<event>
 7    1  0.2834226E-010  0.4778727E+02  0.7816164E-02  0.1312668E+00
        -11   -1    0    0    0    0  0.00000000000E+00  0.00000000000E+00  0.45593999997E+02  0.45594000000E+02  0.51100000000E-03 0.  1.
         11   -1    0    0    0    0 -0.00000000000E+00 -0.00000000000E+00 -0.45593999997E+02  0.45594000000E+02  0.51100000000E-03 0. -1.
    9900012    2    1    2    0    0 -0.26092167322E+02 -0.43147697745E+01 -0.34412273959E+02  0.47787273822E+02  0.20000012664E+02 0.  0.
        -12    1    1    2    0    0  0.26092167322E+02  0.43147697745E+01  0.34412273959E+02  0.43400726178E+02  0.00000000000E+00 0.  1.
         11    1    3    3    0    0 -0.10801456037E+02 -0.93239538862E+01 -0.14931411893E+02  0.20653199025E+02  0.51100000000E-03 0. -1.
        -11    1    3    3    0    0 -0.12640597896E+02  0.40896304879E+01 -0.20255600503E+02  0.24223937431E+02  0.51100000000E-03 0.  1.
        -12    1    3    3    0    0 -0.26501133888E+01  0.91955362382E+00  0.77473843660E+00  0.29101373654E+01  0.00000000000E+00 0.  1.
</event>
<event>
 7    1  0.2834226E-010  0.4778727E+02  0.7816164E-02  0.1312668E+00
        -11   -1    0    0    0    0  0.00000000000E+00  0.00000000000E+00  0.45593999997E+02  0.45594000000E+02  0.51100000000E-03 0.  1.
         11   -1    0    0    0    0 -0.00000000000E+00 -0.00000000000E+00 -0.45593999997E+02  0.45594000000E+02  0.51100000000E-03 0. -1.
    9900012    2    1    2    0    0  0.29619456385E+02 -0.21132856208E+02 -0.23658263596E+02  0.47787271383E+02  0.20000001545E+02 0.  0.
        -12    1    1    2    0    0 -0.29619456385E+02  0.21132856208E+02  0.23658263596E+02  0.43400728617E+02  0.00000000000E+00 0.  1.
         11    1    3    3    0    0  0.15777615747E+02 -0.30056807660E+01 -0.67557421671E+01  0.17424331494E+02  0.51100000000E-03 0. -1.
        -11    1    3    3    0    0  0.22834858134E+01 -0.10991327759E+02 -0.49483511431E+01  0.12268242444E+02  0.51100000000E-03 0.  1.
        -12    1    3    3    0    0  0.11558354825E+02 -0.71358476831E+01 -0.11954170286E+02  0.18094697446E+02  0.00000000000E+00 0.  1.
</event>
<event>
 7    1  0.2834226E-010  0.4778727E+02  0.7816164E-02  0.1312668E+00
        -11   -1    0    0    0    0  0.00000000000E+00  0.00000000000E+00  0.45593999997E+02  0.45594000000E+02  0.51100000000E-03 0. -1.
         11   -1    0    0    0    0 -0.00000000000E+00 -0.00000000000E+00 -0.45593999997E+02  0.45594000000E+02  0.51100000000E-03 0.  1.
    9900012    2    1    2    0    0 -0.11056806900E+02  0.13813878327E+02  0.39630127992E+02  0.47787271228E+02  0.20000000838E+02 0.  0.
        -12    1    1    2    0    0  0.11056806900E+02 -0.13813878327E+02 -0.39630127992E+02  0.43400728772E+02  0.00000000000E+00 0.  1.
         11    1    3    3    0    0 -0.13090614068E+02  0.11069056041E+02  0.31645328277E+02  0.35990484581E+02  0.51100000000E-03 0. -1.
        -11    1    3    3    0    0  0.32269689565E+01 -0.17162811467E+01  0.53523671885E+01  0.64812641052E+01  0.51100000000E-03 0.  1.
        -12    1    3    3    0    0 -0.11931617879E+01  0.44611034326E+01  0.26324325261E+01  0.53155225418E+01  0.00000000000E+00 0.  1.
</event>
<event>
 7    1  0.2834226E-010  0.4778727E+02  0.7816164E-02  0.1312668E+00
        -11   -1    0    0    0    0  0.00000000000E+00  0.00000000000E+00  0.45593999997E+02  0.45594000000E+02  0.51100000000E-03 0.  1.
         11   -1    0    0    0    0 -0.00000000000E+00 -0.00000000000E+00 -0.45593999997E+02  0.45594000000E+02  0.51100000000E-03 0. -1.
    9900012    2    1    2    0    0  0.76571224272E+01 -0.36762090169E+02  0.21760982567E+02  0.47787272360E+02  0.20000005998E+02 0.  0.
        -12    1    1    2    0    0 -0.76571224272E+01  0.36762090169E+02 -0.21760982567E+02  0.43400727640E+02  0.00000000000E+00 0.  1.
         11    1    3    3    0    0  0.34342604356E+01 -0.35299680259E+02  0.23887100396E+02  0.42760438921E+02  0.51100000000E-03 0. -1.
        -11    1    3    3    0    0  0.17507425303E+01 -0.28949686135E+00 -0.11825875704E+01  0.21324683967E+01  0.51100000000E-03 0.  1.
         12    1    3    3    0    0  0.24721194612E+01 -0.11729130477E+01 -0.94353025844E+00  0.28943650420E+01  0.00000000000E+00 0. -1.
</event>
<event>
 7    1  0.2834226E-010  0.4778727E+02  0.7816164E-02  0.1312668E+00
        -11   -1    0    0    0    0  0.00000000000E+00  0.00000000000E+00  0.45593999997E+02  0.45594000000E+02  0.51100000000E-03 0.  1.
         11   -1    0    0    0    0 -0.00000000000E+00 -0.00000000000E+00 -0.45593999997E+02  0.45594000000E+02  0.51100000000E-03 0. -1.
    9900012    2    1    2    0    0  0.19018948756E+01  0.37260152292E+02 -0.22174019189E+02  0.47787270975E+02  0.19999999681E+02 0.  0.
        -12    1    1    2    0    0 -0.19018948756E+01 -0.37260152292E+02  0.22174019189E+02  0.43400729025E+02  0.00000000000E+00 0.  1.
         11    1    3    3    0    0 -0.47592273163E+01  0.19326831331E+02 -0.20384979980E+02  0.28490771541E+02  0.51100000000E-03 0. -1.
        -11    1    3    3    0    0  0.54013076661E+01  0.12188822031E+02 -0.11845101125E+01  0.13384489960E+02  0.51100000000E-03 0.  1.
         12    1    3    3    0    0  0.12598145257E+01  0.57444989297E+01 -0.60452909681E+00  0.59120094741E+01  0.00000000000E+00 0. -1.
</event>
<event>
 7    1  0.2834226E-010  0.4778727E+02  0.7816164E-02  0.1312668E+00
        -11   -1    0    0    0    0  0.00000000000E+00  0.00000000000E+00  0.45593999997E+02  0.45594000000E+02  0.51100000000E-03 0. -1.
         11   -1    0    0    0    0 -0.00000000000E+00 -0.00000000000E+00 -0.45593999997E+02  0.45594000000E+02  0.51100000000E-03 0.  1.
    9900012    2    1    2    0    0  0.37359825674E+02  0.56843823656E+01  0.21343721334E+02  0.47787271692E+02  0.20000002954E+02 0.  0.
        -12    1    1    2    0    0 -0.37359825674E+02 -0.56843823656E+01 -0.21343721334E+02  0.43400728308E+02  0.00000000000E+00 0.  1.
         11    1    3    3    0    0  0.16347185079E+02 -0.68843089171E+01  0.11975306790E+02  0.21401685500E+02  0.51100000000E-03 0. -1.
        -11    1    3    3    0    0  0.13650874613E+02  0.89756874126E+01  0.75343956120E+01  0.17991010526E+02  0.51100000000E-03 0.  1.
         12    1    3    3    0    0  0.73617659820E+01  0.35930038700E+01  0.18340189318E+01  0.83945756668E+01  0.00000000000E+00 0. -1.
</event>
<event>
 7    1  0.2834226E-010  0.4778727E+02  0.7816164E-02  0.1312668E+00
        -11   -1    0    0    0    0  0.00000000000E+00  0.00000000000E+00  0.45593999997E+02  0.45594000000E+02  0.51100000000E-03 0.  1.
         11   -1    0    0    0    0 -0.00000000000E+00 -0.00000000000E+00 -0.45593999997E+02  0.45594000000E+02  0.51100000000E-03 0. -1.
    9900012    2    1    2    0    0  0.31148600678E+02 -0.29739110612E+02  0.53826735703E+01  0.47787271908E+02  0.20000003938E+02 0.  0.
        -12    1    1    2    0    0 -0.31148600678E+02  0.29739110612E+02 -0.53826735703E+01  0.43400728092E+02  0.00000000000E+00 0.  1.
         11    1    3    3    0    0  0.10861074716E+02 -0.11680889674E+02  0.31321967548E+01  0.16254746517E+02  0.51100000000E-03 0. -1.
        -11    1    3    3    0    0  0.21057855592E+02 -0.11545421586E+02 -0.13460326432E+01  0.24052896829E+02  0.51100000000E-03 0.  1.
        -12    1    3    3    0    0 -0.77032963050E+00 -0.65127993524E+01  0.35965094586E+01  0.74796285623E+01  0.00000000000E+00 0.  1.
</event>
<event>
 7    1  0.2834226E-010  0.4778726E+02  0.7816164E-02  0.1312668E+00
        -11   -1    0    0    0    0  0.00000000000E+00  0.00000000000E+00  0.45593999997E+02  0.45594000000E+02  0.51100000000E-03 0.  1.
         11   -1    0    0    0    0 -0.00000000000E+00 -0.00000000000E+00 -0.45593999997E+02  0.45594000000E+02  0.51100000000E-03 0. -1.
    9900012    2    1    2    0    0 -0.15142997493E+02 -0.34454984000E+01 -0.40527056707E+02  0.47787260863E+02  0.19999953580E+02 0.  0.
        -12    1    1    2    0    0  0.15142997493E+02  0.34454984000E+01  0.40527056707E+02  0.43400739137E+02  0.00000000000E+00 0.  1.
         11    1    3    3    0    0 -0.44991129379E+01 -0.99770200194E-01 -0.99767143857E+01  0.10944715689E+02  0.51100000000E-03 0. -1.
        -11    1    3    3    0    0 -0.78796574472E+01  0.40731513753E+01 -0.26508914919E+02  0.27953571043E+02  0.51100000000E-03 0.  1.
        -12    1    3    3    0    0 -0.27642271082E+01 -0.74188795751E+01 -0.40414274019E+01  0.88889741309E+01  0.00000000000E+00 0.  1.
</event>
<event>
 7    1  0.2834226E-010  0.4778727E+02  0.7816164E-02  0.1312668E+00
        -11   -1    0    0    0    0  0.00000000000E+00  0.00000000000E+00  0.45593999997E+02  0.45594000000E+02  0.51100000000E-03 0.  1.
         11   -1    0    0    0    0 -0.00000000000E+00 -0.00000000000E+00 -0.45593999997E+02  0.45594000000E+02  0.51100000000E-03 0. -1.
    9900012    2    1    2    0    0 -0.37319240276E+02 -0.18847891001E+02 -0.11647102676E+02  0.47787266242E+02  0.19999978106E+02 0.  0.
        -12    1    1    2    0    0  0.37319240276E+02  0.18847891001E+02  0.11647102676E+02  0.43400733758E+02  0.00000000000E+00 0.  1.
         11    1    3    3    0    0 -0.24325259570E+02 -0.14905225603E+02 -0.10293854968E+02  0.30328987022E+02  0.51100000000E-03 0. -1.
        -11    1    3    3    0    0 -0.24321000870E+01  0.10767563651E+00  0.42017230496E+01  0.48560458938E+01  0.51100000000E-03 0.  1.
        -12    1    3    3    0    0 -0.10561880619E+02 -0.40503410354E+01 -0.55549707574E+01  0.12602233327E+02  0.00000000000E+00 0.  1.
</event>
<event>
 7    1  0.2834226E-010  0.4778727E+02  0.7816164E-02  0.1312668E+00
        -11   -1    0    0    0    0  0.00000000000E+00  0.00000000000E+00  0.45593999997E+02  0.45594000000E+02  0.51100000000E-03 0.  1.
         11   -1    0    0    0    0 -0.00000000000E+00 -0.00000000000E+00 -0.45593999997E+02  0.45594000000E+02  0.51100000000E-03 0. -1.
    9900012    2    1    2    0    0 -0.10698049130E+02  0.28559616721E+02 -0.30879170807E+02  0.47787272447E+02  0.20000006395E+02 0.  0.
        -12    1    1    2    0    0  0.10698049130E+02 -0.28559616721E+02  0.30879170807E+02  0.43400727553E+02  0.00000000000E+00 0.  1.
         11    1    3    3    0    0 -0.22450712509E+01  0.10572326471E+02 -0.44146961442E+01  0.11674929303E+02  0.51100000000E-03 0. -1.
        -11    1    3    3    0    0 -0.10089088479E+02  0.46124883753E+01 -0.12231891368E+02  0.16513143918E+02  0.51100000000E-03 0.  1.
        -12    1    3    3    0    0  0.16361105994E+01  0.13374801875E+02 -0.14232583295E+02  0.19599199226E+02  0.00000000000E+00 0.  1.
</event>
<event>
 7    1  0.2834226E-010  0.4778727E+02  0.7816164E-02  0.1312668E+00
        -11   -1    0    0    0    0  0.00000000000E+00  0.00000000000E+00  0.45593999997E+02  0.45594000000E+02  0.51100000000E-03 0. -1.
         11   -1    0    0    0    0 -0.00000000000E+00 -0.00000000000E+00 -0.45593999997E+02  0.45594000000E+02  0.51100000000E-03 0.  1.
    9900012    2    1    2    0    0  0.35193517995E+02 -0.16686195571E+02  0.19147081681E+02  0.47787267651E+02  0.19999984527E+02 0.  0.
        -12    1    1    2    0    0 -0.35193517995E+02  0.16686195571E+02 -0.19147081681E+02  0.43400732349E+02  0.00000000000E+00 0.  1.
         11    1    3    3    0    0  0.88627345432E+01  0.13114810850E+01  0.56180114399E+01  0.10574975131E+02  0.51100000000E-03 0. -1.
        -11    1    3    3    0    0  0.82747992488E+01 -0.75143977424E+01 -0.17853311340E+01  0.11319270452E+02  0.51100000000E-03 0.  1.
        -12    1    3    3    0    0  0.18055984203E+02 -0.10483278914E+02  0.15314401375E+02  0.25893022068E+02  0.00000000000E+00 0.  1.
</event>
<event>
 7    1  0.2834226E-010  0.4778727E+02  0.7816164E-02  0.1312668E+00
        -11   -1    0    0    0    0  0.00000000000E+00  0.00000000000E+00  0.45593999997E+02  0.45594000000E+02  0.51100000000E-03 0. -1.
         11   -1    0    0    0    0 -0.00000000000E+00 -0.00000000000E+00 -0.45593999997E+02  0.45594000000E+02  0.51100000000E-03 0.  1.
    9900012    2    1    2    0    0 -0.87967452664E+01  0.34904916434E+02  0.24246390863E+02  0.47787269725E+02  0.19999993983E+02 0.  0.
        -12    1    1    2    0    0  0.87967452664E+01 -0.34904916434E+02 -0.24246390863E+02  0.43400730275E+02  0.00000000000E+00 0.  1.
         11    1    3    3    0    0 -0.17511822748E+01  0.45922744059E+01  0.25182166815E+01  0.55224124343E+01  0.51100000000E-03 0. -1.
        -11    1    3    3    0    0 -0.97612874155E+01  0.55840099238E+01  0.51427610956E+01  0.12365754760E+02  0.51100000000E-03 0.  1.
        -12    1    3    3    0    0  0.27157244238E+01  0.24728632104E+02  0.16585413086E+02  0.29899102530E+02  0.00000000000E+00 0.  1.
</event>
<event>
 7    1  0.2834226E-010  0.4778727E+02  0.7816164E-02  0.1312668E+00
        -11   -1    0    0    0    0  0.00000000000E+00  0.00000000000E+00  0.45593999997E+02  0.45594000000E+02  0.51100000000E-03 0.  1.
         11   -1    0    0    0    0 -0.00000000000E+00 -0.00000000000E+00 -0.45593999997E+02  0.45594000000E+02  0.51100000000E-03 0. -1.
    9900012    2    1    2    0    0 -0.25964681324E+02 -0.28970700884E+02  0.19239464241E+02  0.47787272238E+02  0.20000005443E+02 0.  0.
        -12    1    1    2    0    0  0.25964681324E+02  0.28970700884E+02 -0.19239464241E+02  0.43400727762E+02  0.00000000000E+00 0.  1.
         11    1    3    3    0    0 -0.12898006224E+02 -0.86510228283E+01  0.56548771531E+01  0.16528048778E+02  0.51100000000E-03 0. -1.
        -11    1    3    3    0    0 -0.58691519160E+01 -0.66112962122E+00 -0.65232190763E+00  0.59421848441E+01  0.51100000000E-03 0.  1.
         12    1    3    3    0    0 -0.71975231839E+01 -0.19658548434E+02  0.14236908996E+02  0.25317038616E+02  0.00000000000E+00 0. -1.
</event>
<event>
 7    1  0.2834226E-010  0.4778727E+02  0.7816164E-02  0.1312668E+00
        -11   -1    0    0    0    0  0.00000000000E+00  0.00000000000E+00  0.45593999997E+02  0.45594000000E+02  0.51100000000E-03 0.  1.
         11   -1    0    0    0    0 -0.00000000000E+00 -0.00000000000E+00 -0.45593999997E+02  0.45594000000E+02  0.51100000000E-03 0. -1.
    9900012    2    1    2    0    0 -0.54566320961E+01 -0.42175174205E+02  0.86662317535E+01  0.47787265838E+02  0.19999976261E+02 0.  0.
        -12    1    1    2    0    0  0.54566320961E+01  0.42175174205E+02 -0.86662317535E+01  0.43400734162E+02  0.00000000000E+00 0.  1.
         11    1    3    3    0    0 -0.57280548837E+01 -0.37759048529E+02  0.13045313720E+02  0.40357608562E+02  0.51100000000E-03 0. -1.
        -11    1    3    3    0    0  0.20436664315E+01 -0.13356352079E+01 -0.16125794422E+01  0.29259027001E+01  0.51100000000E-03 0.  1.
         12    1    3    3    0    0 -0.17722436439E+01 -0.30804904680E+01 -0.27665025246E+01  0.45037545754E+01  0.00000000000E+00 0. -1.
</event>
<event>
 7    1  0.2834226E-010  0.4778727E+02  0.7816164E-02  0.1312668E+00
        -11   -1    0    0    0    0  0.00000000000E+00  0.00000000000E+00  0.45593999997E+02  0.45594000000E+02  0.51100000000E-03 0.  1.
         11   -1    0    0    0    0 -0.00000000000E+00 -0.00000000000E+00 -0.45593999997E+02  0.45594000000E+02  0.51100000000E-03 0. -1.
    9900012    2    1    2    0    0 -0.21015364774E+01  0.39413665756E+02 -0.18049088113E+02  0.47787273213E+02  0.20000009889E+02 0.  0.
        -12    1    1    2    0    0  0.21015364774E+01 -0.39413665756E+02  0.18049088113E+02  0.43400726787E+02  0.00000000000E+00 0.  1.
         11    1    3    3    0    0 -0.74449111641E+00  0.77899515808E+01 -0.43006312885E+01  0.89293360556E+01  0.51100000000E-03 0. -1.
        -11    1    3    3    0    0 -0.52238392296E+01  0.28756363358E+02 -0.61564350904E+01  0.29868354879E+02  0.51100000000E-03 0.  1.
        -12    1    3    3    0    0  0.38667938687E+01  0.28673508167E+01 -0.75920217345E+01  0.89895822788E+01  0.00000000000E+00 0.  1.
</event>
<event>
 7    1  0.2834226E-010  0.4778727E+02  0.7816164E-02  0.1312668E+00
        -11   -1    0    0    0    0  0.00000000000E+00  0.00000000000E+00  0.45593999997E+02  0.45594000000E+02  0.51100000000E-03 0.  1.
         11   -1    0    0    0    0 -0.00000000000E+00 -0.00000000000E+00 -0.45593999997E+02  0.45594000000E+02  0.51100000000E-03 0. -1.
    9900012    2    1    2    0    0 -0.22315257939E+02  0.33117163931E+02  0.16997241792E+02  0.47787268298E+02  0.19999987478E+02 0.  0.
        -12    1    1    2    0    0  0.22315257939E+02 -0.33117163931E+02 -0.16997241792E+02  0.43400731702E+02  0.00000000000E+00 0.  1.
         11    1    3    3    0    0 -0.13685518804E+02  0.14264704652E+02  0.19496601298E+01  0.19863947207E+02  0.51100000000E-03 0. -1.
        -11    1    3    3    0    0 -0.84434288145E+01  0.77230689105E+01  0.11543339429E+02  0.16253798601E+02  0.51100000000E-03 0.  1.
        -12    1    3    3    0    0 -0.18631031987E+00  0.11129390368E+02  0.35042422336E+01  0.11669522490E+02  0.00000000000E+00 0.  1.
</event>
<event>
 7    1  0.2834226E-010  0.4778728E+02  0.7816164E-02  0.1312668E+00
        -11   -1    0    0    0    0  0.00000000000E+00  0.00000000000E+00  0.45593999997E+02  0.45594000000E+02  0.51100000000E-03 0.  1.
         11   -1    0    0    0    0 -0.00000000000E+00 -0.00000000000E+00 -0.45593999997E+02  0.45594000000E+02  0.51100000000E-03 0. -1.
    9900012    2    1    2    0    0  0.45157484010E+01  0.25891009089E+02 -0.34538190165E+02  0.47787275177E+02  0.20000018844E+02 0.  0.
        -12    1    1    2    0    0 -0.45157484010E+01 -0.25891009089E+02  0.34538190165E+02  0.43400724823E+02  0.00000000000E+00 0.  1.
         11    1    3    3    0    0 -0.24647791189E+01  0.14962082292E+02 -0.22926995604E+02  0.27487927720E+02  0.51100000000E-03 0. -1.
        -11    1    3    3    0    0  0.56196039983E+01  0.12268552839E+02 -0.67746264504E+01  0.15099433819E+02  0.51100000000E-03 0.  1.
         12    1    3    3    0    0  0.13609235216E+01 -0.13396260421E+01 -0.48365681100E+01  0.51999136385E+01  0.00000000000E+00 0. -1.
</event>
<event>
 7    1  0.2834226E-010  0.4778727E+02  0.7816164E-02  0.1312668E+00
        -11   -1    0    0    0    0  0.00000000000E+00  0.00000000000E+00  0.45593999997E+02  0.45594000000E+02  0.51100000000E-03 0.  1.
         11   -1    0    0    0    0 -0.00000000000E+00 -0.00000000000E+00 -0.45593999997E+02  0.45594000000E+02  0.51100000000E-03 0. -1.
    9900012    2    1    2    0    0  0.29276522544E+01 -0.67157781106E+01 -0.42777920576E+02  0.47787270604E+02  0.19999997990E+02 0.  0.
        -12    1    1    2    0    0 -0.29276522544E+01  0.67157781106E+01  0.42777920576E+02  0.43400729396E+02  0.00000000000E+00 0.  1.
         11    1    3    3    0    0  0.56814284097E+00 -0.93679369940E+01 -0.32281669804E+02  0.33618257471E+02  0.51100000000E-03 0. -1.
        -11    1    3    3    0    0  0.53202163213E+01  0.35824793702E+01 -0.70073869314E+01  0.94995964130E+01  0.51100000000E-03 0.  1.
        -12    1    3    3    0    0 -0.29607069078E+01 -0.93032048672E+00 -0.34888638403E+01  0.46694167192E+01  0.00000000000E+00 0.  1.
</event>
<event>
 7    1  0.2834226E-010  0.4778727E+02  0.7816164E-02  0.1312668E+00
        -11   -1    0    0    0    0  0.00000000000E+00  0.00000000000E+00  0.45593999997E+02  0.45594000000E+02  0.51100000000E-03 0.  1.
         11   -1    0    0    0    0 -0.00000000000E+00 -0.00000000000E+00 -0.45593999997E+02  0.45594000000E+02  0.51100000000E-03 0. -1.
    9900012    2    1    2    0    0  0.78536755566E+01  0.12504959267E+02 -0.40811384672E+02  0.47787270226E+02  0.19999996269E+02 0.  0.
        -12    1    1    2    0    0 -0.78536755566E+01 -0.12504959267E+02  0.40811384672E+02  0.43400729774E+02  0.00000000000E+00 0.  1.
         11    1    3    3    0    0  0.11960744249E+02  0.31950714168E+01 -0.30554697208E+02  0.32967520473E+02  0.51100000000E-03 0. -1.
        -11    1    3    3    0    0 -0.31463087221E+01  0.37778439021E+01 -0.35023398459E+01  0.60363687578E+01  0.51100000000E-03 0.  1.
        -12    1    3    3    0    0 -0.96075997041E+00  0.55320439485E+01 -0.67543476181E+01  0.87833809956E+01  0.00000000000E+00 0.  1.
</event>
<event>
 7    1  0.2834226E-010  0.4778727E+02  0.7816164E-02  0.1312668E+00
        -11   -1    0    0    0    0  0.00000000000E+00  0.00000000000E+00  0.45593999997E+02  0.45594000000E+02  0.51100000000E-03 0. -1.
         11   -1    0    0    0    0 -0.00000000000E+00 -0.00000000000E+00 -0.45593999997E+02  0.45594000000E+02  0.51100000000E-03 0.  1.
    9900012    2    1    2    0    0 -0.26278895074E+02  0.36421281968E+01  0.34347899809E+02  0.47787266764E+02  0.19999980486E+02 0.  0.
        -12    1    1    2    0    0  0.26278895074E+02 -0.36421281968E+01 -0.34347899809E+02  0.43400733236E+02  0.00000000000E+00 0.  1.
         11    1    3    3    0    0 -0.10490293997E+02  0.14783714565E+01  0.51160204361E+01  0.11764587356E+02  0.51100000000E-03 0. -1.
        -11    1    3    3    0    0 -0.17114854548E+01  0.27372507842E+01  0.17185178559E+02  0.17485768118E+02  0.51100000000E-03 0.  1.
        -12    1    3    3    0    0 -0.14077115623E+02 -0.57349404387E+00  0.12046700813E+02  0.18536911290E+02  0.00000000000E+00 0.  1.
</event>
<event>
 7    1  0.2834226E-010  0.4778728E+02  0.7816164E-02  0.1312668E+00
        -11   -1    0    0    0    0  0.00000000000E+00  0.00000000000E+00  0.45593999997E+02  0.45594000000E+02  0.51100000000E-03 0.  1.
         11   -1    0    0    0    0 -0.00000000000E+00 -0.00000000000E+00 -0.45593999997E+02  0.45594000000E+02  0.51100000000E-03 0. -1.
    9900012    2    1    2    0    0 -0.39368307354E+02  0.12190712054E+02 -0.13606818105E+02  0.47787279001E+02  0.20000036279E+02 0.  0.
        -12    1    1    2    0    0  0.39368307354E+02 -0.12190712054E+02  0.13606818105E+02  0.43400720999E+02  0.00000000000E+00 0.  1.
         11    1    3    3    0    0 -0.87307458918E+01  0.59557029645E+01  0.39354983381E+01  0.11277609191E+02  0.51100000000E-03 0. -1.
        -11    1    3    3    0    0 -0.20317364507E+02  0.72143155590E+01 -0.13126762876E+02  0.25241900748E+02  0.51100000000E-03 0.  1.
         12    1    3    3    0    0 -0.10320196955E+02 -0.97930646993E+00 -0.44155535668E+01  0.11267769063E+02  0.00000000000E+00 0. -1.
</event>
<event>
 7    1  0.2834226E-010  0.4778727E+02  0.7816164E-02  0.1312668E+00
        -11   -1    0    0    0    0  0.00000000000E+00  0.00000000000E+00  0.45593999997E+02  0.45594000000E+02  0.51100000000E-03 0.  1.
         11   -1    0    0    0    0 -0.00000000000E+00 -0.00000000000E+00 -0.45593999997E+02  0.45594000000E+02  0.51100000000E-03 0. -1.
    9900012    2    1    2    0    0  0.31686321197E+02  0.28341299019E+02 -0.87390610066E+01  0.47787269956E+02  0.19999995037E+02 0.  0.
        -12    1    1    2    0    0 -0.31686321197E+02 -0.28341299019E+02  0.87390610066E+01  0.43400730044E+02  0.00000000000E+00 0.  1.
         11    1    3    3    0    0  0.20620285020E+02  0.18900150423E+02 -0.10337723777E+02  0.29820804374E+02  0.51100000000E-03 0. -1.
        -11    1    3    3    0    0  0.99394876682E+01  0.82818606771E+01  0.52585452914E+01  0.13965490690E+02  0.51100000000E-03 0.  1.
        -12    1    3    3    0    0  0.11265485090E+01  0.11592879184E+01 -0.36598825206E+01  0.40009748919E+01  0.00000000000E+00 0.  1.
</event>
<event>
 7    1  0.2834226E-010  0.4778728E+02  0.7816164E-02  0.1312668E+00
        -11   -1    0    0    0    0  0.00000000000E+00  0.00000000000E+00  0.45593999997E+02  0.45594000000E+02  0.51100000000E-03 0. -1.
         11   -1    0    0    0    0 -0.00000000000E+00 -0.00000000000E+00 -0.45593999997E+02  0.45594000000E+02  0.51100000000E-03 0.  1.
    9900012    2    1    2    0    0  0.36048791498E+02  0.99078334531E+01  0.22044095623E+02  0.47787277840E+02  0.20000030984E+02 0.  0.
        -12    1    1    2    0    0 -0.36048791498E+02 -0.99078334531E+01 -0.22044095623E+02  0.43400722160E+02  0.00000000000E+00 0.  1.
         11    1    3    3    0    0  0.24215938834E+02  0.36153907390E+01  0.18417099870E+02  0.30637759574E+02  0.51100000000E-03 0. -1.
        -11    1    3    3    0    0  0.78413303420E+01  0.82730868520E+01 -0.84738842132E-02  0.11398706052E+02  0.51100000000E-03 0.  1.
        -12    1    3    3    0    0  0.39915223215E+01 -0.19806441379E+01  0.36354696370E+01  0.57508122145E+01  0.00000000000E+00 0.  1.
</event>
<event>
 7    1  0.2834226E-010  0.4778727E+02  0.7816164E-02  0.1312668E+00
        -11   -1    0    0    0    0  0.00000000000E+00  0.00000000000E+00  0.45593999997E+02  0.45594000000E+02  0.51100000000E-03 0. -1.
         11   -1    0    0    0    0 -0.00000000000E+00 -0.00000000000E+00 -0.45593999997E+02  0.45594000000E+02  0.51100000000E-03 0.  1.
    9900012    2    1    2    0    0  0.17725002774E+02  0.11877771405E+02  0.37793731722E+02  0.47787270347E+02  0.19999996822E+02 0.  0.
        -12    1    1    2    0    0 -0.17725002774E+02 -0.11877771405E+02 -0.37793731722E+02  0.43400729653E+02  0.00000000000E+00 0.  1.
         11    1    3    3    0    0  0.58279791335E+01  0.25335877675E+01  0.17434659639E+02  0.18556717510E+02  0.51100000000E-03 0. -1.
        -11    1    3    3    0    0  0.62527268275E+00  0.86792596670E+01  0.13366266305E+02  0.15949219087E+02  0.51100000000E-03 0.  1.
        -12    1    3    3    0    0  0.11271750957E+02  0.66492397074E+00  0.69928057781E+01  0.13281333750E+02  0.00000000000E+00 0.  1.
</event>
<event>
 7    1  0.2834226E-010  0.4778727E+02  0.7816164E-02  0.1312668E+00
        -11   -1    0    0    0    0  0.00000000000E+00  0.00000000000E+00  0.45593999997E+02  0.45594000000E+02  0.51100000000E-03 0.  1.
         11   -1    0    0    0    0 -0.00000000000E+00 -0.00000000000E+00 -0.45593999997E+02  0.45594000000E+02  0.51100000000E-03 0. -1.
    9900012    2    1    2    0    0  0.30856770760E+02  0.18666282174E+02 -0.24146498025E+02  0.47787265458E+02  0.19999974527E+02 0.  0.
        -12    1    1    2    0    0 -0.30856770760E+02 -0.18666282174E+02  0.24146498025E+02  0.43400734542E+02  0.00000000000E+00 0.  1.
         11    1    3    3    0    0  0.19599739943E+02  0.80124268823E+01 -0.13769727834E+02  0.25257755151E+02  0.51100000000E-03 0. -1.
        -11    1    3    3    0    0  0.88672736417E+01  0.13128478491E+02 -0.10632726492E+02  0.19079841777E+02  0.51100000000E-03 0.  1.
        -12    1    3    3    0    0  0.23897571755E+01 -0.24746231993E+01  0.25595630098E+00  0.34496685297E+01  0.00000000000E+00 0.  1.
</event>
<event>
 7    1  0.2834226E-010  0.4778727E+02  0.7816164E-02  0.1312668E+00
        -11   -1    0    0    0    0  0.00000000000E+00  0.00000000000E+00  0.45593999997E+02  0.45594000000E+02  0.51100000000E-03 0. -1.
         11   -1    0    0    0    0 -0.00000000000E+00 -0.00000000000E+00 -0.45593999997E+02  0.45594000000E+02  0.51100000000E-03 0.  1.
    9900012    2    1    2    0    0  0.52698319159E+01 -0.58005903941E+01  0.42687296924E+02  0.47787270789E+02  0.19999998836E+02 0.  0.
        -12    1    1    2    0    0 -0.52698319159E+01  0.58005903941E+01 -0.42687296924E+02  0.43400729211E+02  0.00000000000E+00 0.  1.
         11    1    3    3    0    0  0.55243313183E+01  0.58922777608E+01  0.18200976629E+02  0.19912627256E+02  0.51100000000E-03 0. -1.
        -11    1    3    3    0    0 -0.11218693284E+01 -0.99195957326E+01  0.23758704020E+02  0.25770777778E+02  0.51100000000E-03 0.  1.
        -12    1    3    3    0    0  0.86736992598E+00 -0.17732724223E+01  0.72761627433E+00  0.21038657550E+01  0.00000000000E+00 0.  1.
</event>
<event>
 7    1  0.2834226E-010  0.4778727E+02  0.7816164E-02  0.1312668E+00
        -11   -1    0    0    0    0  0.00000000000E+00  0.00000000000E+00  0.45593999997E+02  0.45594000000E+02  0.51100000000E-03 0.  1.
         11   -1    0    0    0    0 -0.00000000000E+00 -0.00000000000E+00 -0.45593999997E+02  0.45594000000E+02  0.51100000000E-03 0. -1.
    9900012    2    1    2    0    0 -0.36617612576E+02 -0.22882452133E+02 -0.43780440641E+01  0.47787269174E+02  0.19999991473E+02 0.  0.
        -12    1    1    2    0    0  0.36617612576E+02  0.22882452133E+02  0.43780440641E+01  0.43400730826E+02  0.00000000000E+00 0.  1.
         11    1    3    3    0    0 -0.50439575864E+01 -0.27707519573E+01 -0.31181990734E+01  0.65453602090E+01  0.51100000000E-03 0. -1.
        -11    1    3    3    0    0 -0.27405082049E+02 -0.11265983363E+02 -0.62213557754E+01  0.30276495358E+02  0.51100000000E-03 0.  1.
        -12    1    3    3    0    0 -0.41685729406E+01 -0.88457168135E+01  0.49615107848E+01  0.10965413607E+02  0.00000000000E+00 0.  1.
</event>
<event>
 7    1  0.2834226E-010  0.4778727E+02  0.7816164E-02  0.1312668E+00
        -11   -1    0    0    0    0  0.00000000000E+00  0.00000000000E+00  0.45593999997E+02  0.45594000000E+02  0.51100000000E-03 0. -1.
         11   -1    0    0    0    0 -0.00000000000E+00 -0.00000000000E+00 -0.45593999997E+02  0.45594000000E+02  0.51100000000E-03 0.  1.
    9900012    2    1    2    0    0 -0.52124130615E+01 -0.15523291620E+02  0.40193054229E+02  0.47787269120E+02  0.19999991224E+02 0.  0.
        -12    1    1    2    0    0  0.52124130615E+01  0.15523291620E+02 -0.40193054229E+02  0.43400730880E+02  0.00000000000E+00 0.  1.
         11    1    3    3    0    0  0.43781589476E+01  0.25205340722E+01  0.10260992253E+02  0.11437190654E+02  0.51100000000E-03 0. -1.
        -11    1    3    3    0    0 -0.78366890585E+01 -0.12893908338E+02  0.20384466628E+02  0.25361250907E+02  0.51100000000E-03 0.  1.
         12    1    3    3    0    0 -0.17538829506E+01 -0.51499173549E+01  0.95475953487E+01  0.10988827558E+02  0.00000000000E+00 0. -1.
</event>
<event>
 7    1  0.2834226E-010  0.4778725E+02  0.7816164E-02  0.1312668E+00
        -11   -1    0    0    0    0  0.00000000000E+00  0.00000000000E+00  0.45593999997E+02  0.45594000000E+02  0.51100000000E-03 0.  1.
         11   -1    0    0    0    0 -0.00000000000E+00 -0.00000000000E+00 -0.45593999997E+02  0.45594000000E+02  0.51100000000E-03 0. -1.
    9900012    2    1    2    0    0  0.37905407344E+02 -0.16119917077E+02 -0.13673079456E+02  0.47787254219E+02  0.19999923288E+02 0.  0.
        -12    1    1    2    0    0 -0.37905407344E+02  0.16119917077E+02  0.13673079456E+02  0.43400745781E+02  0.00000000000E+00 0.  1.
         11    1    3    3    0    0  0.17388432420E+02 -0.80814532545E+01 -0.51933369929E+00  0.19181688572E+02  0.51100000000E-03 0. -1.
        -11    1    3    3    0    0  0.13244145448E+02 -0.32322571295E+01 -0.14365161006E+02  0.19804361282E+02  0.51100000000E-03 0.  1.
        -12    1    3    3    0    0  0.72728294767E+01 -0.48062066935E+01  0.12114152497E+01  0.88012043655E+01  0.00000000000E+00 0.  1.
</event>
<event>
 7    1  0.2834226E-010  0.4778727E+02  0.7816164E-02  0.1312668E+00
        -11   -1    0    0    0    0  0.00000000000E+00  0.00000000000E+00  0.45593999997E+02  0.45594000000E+02  0.51100000000E-03 0. -1.
         11   -1    0    0    0    0 -0.00000000000E+00 -0.00000000000E+00 -0.45593999997E+02  0.45594000000E+02  0.51100000000E-03 0.  1.
    9900012    2    1    2    0    0  0.10592148058E+02 -0.21927094810E+02  0.35925373016E+02  0.47787268282E+02  0.19999987405E+02 0.  0.
        -12    1    1    2    0    0 -0.10592148058E+02  0.21927094810E+02 -0.35925373016E+02  0.43400731718E+02  0.00000000000E+00 0.  1.
         11    1    3    3    0    0  0.12221844492E+02 -0.11655700302E+02  0.29516614062E+02  0.34006754303E+02  0.51100000000E-03 0. -1.
        -11    1    3    3    0    0 -0.22648634838E+01 -0.10879018704E+02  0.65366406146E+01  0.12892258349E+02  0.51100000000E-03 0.  1.
        -12    1    3    3    0    0  0.63516704971E+00  0.60762419573E+00 -0.12788166009E+00  0.88825562946E+00  0.00000000000E+00 0.  1.
</event>
<event>
 7    1  0.2834226E-010  0.4778729E+02  0.7816164E-02  0.1312668E+00
        -11   -1    0    0    0    0  0.00000000000E+00  0.00000000000E+00  0.45593999997E+02  0.45594000000E+02  0.51100000000E-03 0. -1.
         11   -1    0    0    0    0 -0.00000000000E+00 -0.00000000000E+00 -0.45593999997E+02  0.45594000000E+02  0.51100000000E-03 0.  1.
    9900012    2    1    2    0    0 -0.94872410331E+01  0.74784153186E+01  0.41685574662E+02  0.47787290640E+02  0.20000089342E+02 0.  0.
        -12    1    1    2    0    0  0.94872410331E+01 -0.74784153186E+01 -0.41685574662E+02  0.43400709360E+02  0.00000000000E+00 0.  1.
         11    1    3    3    0    0  0.22091038460E+01 -0.20520515123E+01  0.21602454848E+02  0.21811857118E+02  0.51100000000E-03 0. -1.
        -11    1    3    3    0    0 -0.98753293698E+01  0.10439559135E+02  0.16745962117E+02  0.22066575914E+02  0.51100000000E-03 0.  1.
        -12    1    3    3    0    0 -0.18210155093E+01 -0.90909230368E+00  0.33371576967E+01  0.39088576073E+01  0.00000000000E+00 0.  1.
</event>
<event>
 7    1  0.2834226E-010  0.4778728E+02  0.7816164E-02  0.1312668E+00
        -11   -1    0    0    0    0  0.00000000000E+00  0.00000000000E+00  0.45593999997E+02  0.45594000000E+02  0.51100000000E-03 0. -1.
         11   -1    0    0    0    0 -0.00000000000E+00 -0.00000000000E+00 -0.45593999997E+02  0.45594000000E+02  0.51100000000E-03 0.  1.
    9900012    2    1    2    0    0 -0.10120211714E+02  0.15956272454E+02  0.39071747865E+02  0.47787276539E+02  0.20000025051E+02 0.  0.
        -12    1    1    2    0    0  0.10120211714E+02 -0.15956272454E+02 -0.39071747865E+02  0.43400723461E+02  0.00000000000E+00 0.  1.
         11    1    3    3    0    0 -0.14525248027E+02  0.16311557281E+02  0.26190396677E+02  0.34102589485E+02  0.51100000000E-03 0.  1.
        -11    1    3    3    0    0  0.32833111121E+01  0.33761947963E+00  0.93016510977E+01  0.98698952465E+01  0.51100000000E-03 0. -1.
        -12    1    3    3    0    0  0.11217252006E+01 -0.69290430711E+00  0.35797000897E+01  0.38147918077E+01  0.00000000000E+00 0.  1.
</event>
<event>
 7    1  0.2834226E-010  0.4778727E+02  0.7816164E-02  0.1312668E+00
        -11   -1    0    0    0    0  0.00000000000E+00  0.00000000000E+00  0.45593999997E+02  0.45594000000E+02  0.51100000000E-03 0.  1.
         11   -1    0    0    0    0 -0.00000000000E+00 -0.00000000000E+00 -0.45593999997E+02  0.45594000000E+02  0.51100000000E-03 0. -1.
    9900012    2    1    2    0    0 -0.10018576864E+02 -0.28649361743E+02 -0.31023634168E+02  0.47787266277E+02  0.19999978264E+02 0.  0.
        -12    1    1    2    0    0  0.10018576864E+02  0.28649361743E+02  0.31023634168E+02  0.43400733723E+02  0.00000000000E+00 0.  1.
         11    1    3    3    0    0 -0.46004082800E+01 -0.18471785553E+01 -0.54311443203E+01  0.73534450325E+01  0.51100000000E-03 0. -1.
        -11    1    3    3    0    0 -0.29650301655E+01 -0.22470262435E+02 -0.11353554248E+02  0.25349700040E+02  0.51100000000E-03 0.  1.
        -12    1    3    3    0    0 -0.24531384188E+01 -0.43319207534E+01 -0.14238935600E+02  0.15084121205E+02  0.00000000000E+00 0.  1.
</event>
<event>
 7    1  0.2834226E-010  0.4778731E+02  0.7816164E-02  0.1312668E+00
        -11   -1    0    0    0    0  0.00000000000E+00  0.00000000000E+00  0.45593999997E+02  0.45594000000E+02  0.51100000000E-03 0.  1.
         11   -1    0    0    0    0 -0.00000000000E+00 -0.00000000000E+00 -0.45593999997E+02  0.45594000000E+02  0.51100000000E-03 0. -1.
    9900012    2    1    2    0    0 -0.34757254499E+02 -0.90463646154E+00 -0.25975654764E+02  0.47787311666E+02  0.20000185210E+02 0.  0.
        -12    1    1    2    0    0  0.34757254499E+02  0.90463646154E+00  0.25975654764E+02  0.43400688334E+02  0.00000000000E+00 0.  1.
         11    1    3    3    0    0 -0.52544053275E+01 -0.71697885281E+01 -0.49094105906E+01  0.10154651914E+02  0.51100000000E-03 0. -1.
        -11    1    3    3    0    0 -0.22012908098E+02  0.43116936275E+01 -0.19528499517E+02  0.29740899759E+02  0.51100000000E-03 0.  1.
        -12    1    3    3    0    0 -0.74899410732E+01  0.19534584391E+01 -0.15377446571E+01  0.78917599928E+01  0.00000000000E+00 0.  1.
</event>
<event>
 7    1  0.2834226E-010  0.4778727E+02  0.7816164E-02  0.1312668E+00
        -11   -1    0    0    0    0  0.00000000000E+00  0.00000000000E+00  0.45593999997E+02  0.45594000000E+02  0.51100000000E-03 0. -1.
         11   -1    0    0    0    0 -0.00000000000E+00 -0.00000000000E+00 -0.45593999997E+02  0.45594000000E+02  0.51100000000E-03 0.  1.
    9900012    2    1    2    0    0  0.21892914905E+01 -0.39486623594E+02  0.17878392487E+02  0.47787270075E+02  0.19999995581E+02 0.  0.
        -12    1    1    2    0    0 -0.21892914905E+01  0.39486623594E+02 -0.17878392487E+02  0.43400729925E+02  0.00000000000E+00 0.  1.
         11    1    3    3    0    0  0.10583535214E+02 -0.22458164612E+02  0.10271511561E+02  0.26867905117E+02  0.51100000000E-03 0. -1.
        -11    1    3    3    0    0 -0.63561450854E+01 -0.79458289988E+01  0.37741416040E+01  0.10852692013E+02  0.51100000000E-03 0.  1.
         12    1    3    3    0    0 -0.20380986385E+01 -0.90826299833E+01  0.38327393214E+01  0.10066672945E+02  0.00000000000E+00 0. -1.
</event>
<event>
 7    1  0.2834226E-010  0.4778727E+02  0.7816164E-02  0.1312668E+00
        -11   -1    0    0    0    0  0.00000000000E+00  0.00000000000E+00  0.45593999997E+02  0.45594000000E+02  0.51100000000E-03 0. -1.
         11   -1    0    0    0    0 -0.00000000000E+00 -0.00000000000E+00 -0.45593999997E+02  0.45594000000E+02  0.51100000000E-03 0.  1.
    9900012    2    1    2    0    0  0.64185692316E+01 -0.22053183852E+02  0.36825026429E+02  0.47787268203E+02  0.19999987045E+02 0.  0.
        -12    1    1    2    0    0 -0.64185692316E+01  0.22053183852E+02 -0.36825026429E+02  0.43400731797E+02  0.00000000000E+00 0.  1.
         11    1    3    3    0    0  0.48481468420E+01 -0.83658660242E+00  0.12949432085E+01  0.50873650468E+01  0.51100000000E-03 0. -1.
        -11    1    3    3    0    0  0.24737565322E+01 -0.39876528411E+00  0.19290623563E+01  0.31622408143E+01  0.51100000000E-03 0.  1.
         12    1    3    3    0    0 -0.90333414256E+00 -0.20817831966E+02  0.33601020864E+02  0.39537662342E+02  0.00000000000E+00 0. -1.
</event>
<event>
 7    1  0.2834226E-010  0.4778727E+02  0.7816164E-02  0.1312668E+00
        -11   -1    0    0    0    0  0.00000000000E+00  0.00000000000E+00  0.45593999997E+02  0.45594000000E+02  0.51100000000E-03 0.  1.
         11   -1    0    0    0    0 -0.00000000000E+00 -0.00000000000E+00 -0.45593999997E+02  0.45594000000E+02  0.51100000000E-03 0. -1.
    9900012    2    1    2    0    0  0.22633084308E+02 -0.24197613568E+02 -0.28032887117E+02  0.47787265354E+02  0.19999974054E+02 0.  0.
        -12    1    1    2    0    0 -0.22633084308E+02  0.24197613568E+02  0.28032887117E+02  0.43400734646E+02  0.00000000000E+00 0.  1.
         11    1    3    3    0    0  0.18173836122E+02 -0.18337668563E+02 -0.20376775296E+02  0.32890293088E+02  0.51100000000E-03 0. -1.
        -11    1    3    3    0    0 -0.40297323467E-01  0.28648637886E+01 -0.25307188218E+01  0.38227747014E+01  0.51100000000E-03 0.  1.
        -12    1    3    3    0    0  0.44995455096E+01 -0.87248087942E+01 -0.51253929994E+01  0.11074197564E+02  0.00000000000E+00 0.  1.
</event>
<event>
 7    1  0.2834226E-010  0.4778728E+02  0.7816164E-02  0.1312668E+00
        -11   -1    0    0    0    0  0.00000000000E+00  0.00000000000E+00  0.45593999997E+02  0.45594000000E+02  0.51100000000E-03 0.  1.
         11   -1    0    0    0    0 -0.00000000000E+00 -0.00000000000E+00 -0.45593999997E+02  0.45594000000E+02  0.51100000000E-03 0. -1.
    9900012    2    1    2    0    0 -0.22103659351E+02  0.37175645020E+02  0.36085713848E+01  0.47787284259E+02  0.20000060250E+02 0.  0.
        -12    1    1    2    0    0  0.22103659351E+02 -0.37175645020E+02 -0.36085713848E+01  0.43400715741E+02  0.00000000000E+00 0.  1.
         11    1    3    3    0    0 -0.20184145516E+02  0.28076759945E+02 -0.38579137432E+01  0.34793500513E+02  0.51100000000E-03 0. -1.
        -11    1    3    3    0    0 -0.18541034432E+01  0.92879078231E+01  0.53696443737E+01  0.10887424501E+02  0.51100000000E-03 0.  1.
         12    1    3    3    0    0 -0.65410392082E-01 -0.18902274809E+00  0.20968407543E+01  0.21063592446E+01  0.00000000000E+00 0. -1.
</event>
<event>
 7    1  0.2834226E-010  0.4778727E+02  0.7816164E-02  0.1312668E+00
        -11   -1    0    0    0    0  0.00000000000E+00  0.00000000000E+00  0.45593999997E+02  0.45594000000E+02  0.51100000000E-03 0.  1.
         11   -1    0    0    0    0 -0.00000000000E+00 -0.00000000000E+00 -0.45593999997E+02  0.45594000000E+02  0.51100000000E-03 0. -1.
    9900012    2    1    2    0    0  0.47930875105E+01  0.42911601147E+02 -0.43868157314E+01  0.47787270132E+02  0.19999995838E+02 0.  0.
        -12    1    1    2    0    0 -0.47930875105E+01 -0.42911601147E+02  0.43868157314E+01  0.43400729868E+02  0.00000000000E+00 0.  1.
         11    1    3    3    0    0 -0.45670351394E+01  0.40299389314E+01 -0.32879990976E+01  0.69216440303E+01  0.51100000000E-03 0. -1.
        -11    1    3    3    0    0  0.99186488296E+01  0.38406688579E+02 -0.19838419514E+01  0.39716356219E+02  0.51100000000E-03 0.  1.
         12    1    3    3    0    0 -0.55852617966E+00  0.47497363651E+00  0.88502531761E+00  0.11492698820E+01  0.00000000000E+00 0. -1.
</event>
<event>
 7    1  0.2834226E-010  0.4778727E+02  0.7816164E-02  0.1312668E+00
        -11   -1    0    0    0    0  0.00000000000E+00  0.00000000000E+00  0.45593999997E+02  0.45594000000E+02  0.51100000000E-03 0. -1.
         11   -1    0    0    0    0 -0.00000000000E+00 -0.00000000000E+00 -0.45593999997E+02  0.45594000000E+02  0.51100000000E-03 0.  1.
    9900012    2    1    2    0    0 -0.11320534424E+02  0.36405760520E+02  0.20738606080E+02  0.47787266357E+02  0.19999978626E+02 0.  0.
        -12    1    1    2    0    0  0.11320534424E+02 -0.36405760520E+02 -0.20738606080E+02  0.43400733643E+02  0.00000000000E+00 0.  1.
         11    1    3    3    0    0 -0.64759463904E+01  0.90869667674E+01  0.46550693945E+01  0.12090513555E+02  0.51100000000E-03 0. -1.
        -11    1    3    3    0    0 -0.63614893491E+01  0.22873715086E+02  0.18788468352E+02  0.30276755636E+02  0.51100000000E-03 0.  1.
        -12    1    3    3    0    0  0.15169013158E+01  0.44450786664E+01 -0.27049316672E+01  0.54199971657E+01  0.00000000000E+00 0.  1.
</event>
<event>
 7    1  0.2834226E-010  0.4778727E+02  0.7816164E-02  0.1312668E+00
        -11   -1    0    0    0    0  0.00000000000E+00  0.00000000000E+00  0.45593999997E+02  0.45594000000E+02  0.51100000000E-03 0.  1.
         11   -1    0    0    0    0 -0.00000000000E+00 -0.00000000000E+00 -0.45593999997E+02  0.45594000000E+02  0.51100000000E-03 0. -1.
    9900012    2    1    2    0    0 -0.18119962674E+01 -0.27642774162E+02 -0.33409836937E+02  0.47787268463E+02  0.19999988229E+02 0.  0.
        -12    1    1    2    0    0  0.18119962674E+01  0.27642774162E+02  0.33409836937E+02  0.43400731537E+02  0.00000000000E+00 0.  1.
         11    1    3    3    0    0 -0.82846320021E+01 -0.70801214648E+01 -0.15445828165E+02  0.18903355663E+02  0.51100000000E-03 0. -1.
        -11    1    3    3    0    0  0.64962690085E+01 -0.14270994916E+02 -0.15722231391E+02  0.22204760010E+02  0.51100000000E-03 0.  1.
        -12    1    3    3    0    0 -0.23633273761E-01 -0.62916577807E+01 -0.22417773809E+01  0.66791527896E+01  0.00000000000E+00 0.  1.
</event>
<event>
 7    1  0.2834226E-010  0.4778726E+02  0.7816164E-02  0.1312668E+00
        -11   -1    0    0    0    0  0.00000000000E+00  0.00000000000E+00  0.45593999997E+02  0.45594000000E+02  0.51100000000E-03 0.  1.
         11   -1    0    0    0    0 -0.00000000000E+00 -0.00000000000E+00 -0.45593999997E+02  0.45594000000E+02  0.51100000000E-03 0. -1.
    9900012    2    1    2    0    0  0.97365399373E+01 -0.12657089155E+02 -0.40356187250E+02  0.47787263081E+02  0.19999963689E+02 0.  0.
        -12    1    1    2    0    0 -0.97365399373E+01  0.12657089155E+02  0.40356187250E+02  0.43400736919E+02  0.00000000000E+00 0.  1.
         11    1    3    3    0    0  0.61589882570E+01 -0.14342174645E+02 -0.15360050935E+02  0.21898910358E+02  0.51100000000E-03 0. -1.
        -11    1    3    3    0    0 -0.87032003100E+00 -0.10991990553E+01 -0.37422266401E+01  0.39962427362E+01  0.51100000000E-03 0.  1.
         12    1    3    3    0    0  0.44478717113E+01  0.27842845454E+01 -0.21253909674E+02  0.21892109986E+02  0.00000000000E+00 0. -1.
</event>
<event>
 7    1  0.2834226E-010  0.4778727E+02  0.7816164E-02  0.1312668E+00
        -11   -1    0    0    0    0  0.00000000000E+00  0.00000000000E+00  0.45593999997E+02  0.45594000000E+02  0.51100000000E-03 0.  1.
         11   -1    0    0    0    0 -0.00000000000E+00 -0.00000000000E+00 -0.45593999997E+02  0.45594000000E+02  0.51100000000E-03 0. -1.
    9900012    2    1    2    0    0 -0.10556511929E+02 -0.33572069068E+02 -0.25398808250E+02  0.47787271595E+02  0.20000002508E+02 0.  0.
        -12    1    1    2    0    0  0.10556511929E+02  0.33572069068E+02  0.25398808250E+02  0.43400728405E+02  0.00000000000E+00 0.  1.
         11    1    3    3    0    0 -0.11427244480E+02 -0.12643256546E+02 -0.15465201568E+02  0.23013176927E+02  0.51100000000E-03 0. -1.
        -11    1    3    3    0    0  0.27707046882E+01 -0.58209255161E+01  0.25695463015E+00  0.64518217796E+01  0.51100000000E-03 0.  1.
         12    1    3    3    0    0 -0.18999721368E+01 -0.15107887006E+02 -0.10190561312E+02  0.18322272888E+02  0.00000000000E+00 0. -1.
</event>
<event>
 7    1  0.2834226E-010  0.4778725E+02  0.7816164E-02  0.1312668E+00
        -11   -1    0    0    0    0  0.00000000000E+00  0.00000000000E+00  0.45593999997E+02  0.45594000000E+02  0.51100000000E-03 0.  1.
         11   -1    0    0    0    0 -0.00000000000E+00 -0.00000000000E+00 -0.45593999997E+02  0.45594000000E+02  0.51100000000E-03 0. -1.
    9900012    2    1    2    0    0  0.20166536328E+02 -0.19239612255E+02 -0.33268196956E+02  0.47787253510E+02  0.19999920052E+02 0.  0.
        -12    1    1    2    0    0 -0.20166536328E+02  0.19239612255E+02  0.33268196956E+02  0.43400746490E+02  0.00000000000E+00 0.  1.
         11    1    3    3    0    0  0.69639045139E+01 -0.38900949221E+01 -0.89150854397E+01  0.11962756925E+02  0.51100000000E-03 0. -1.
        -11    1    3    3    0    0  0.99270841925E+01 -0.17930034375E+01 -0.33825284131E+01  0.10639706792E+02  0.51100000000E-03 0.  1.
        -12    1    3    3    0    0  0.32755476216E+01 -0.13556513896E+02 -0.20970583103E+02  0.25184789793E+02  0.00000000000E+00 0.  1.
</event>
<event>
 7    1  0.2834226E-010  0.4778727E+02  0.7816164E-02  0.1312668E+00
        -11   -1    0    0    0    0  0.00000000000E+00  0.00000000000E+00  0.45593999997E+02  0.45594000000E+02  0.51100000000E-03 0.  1.
         11   -1    0    0    0    0 -0.00000000000E+00 -0.00000000000E+00 -0.45593999997E+02  0.45594000000E+02  0.51100000000E-03 0. -1.
    9900012    2    1    2    0    0 -0.73647937521E+01 -0.25274794671E+02 -0.34504603312E+02  0.47787273251E+02  0.20000010058E+02 0.  0.
        -12    1    1    2    0    0  0.73647937521E+01  0.25274794671E+02  0.34504603312E+02  0.43400726749E+02  0.00000000000E+00 0.  1.
         11    1    3    3    0    0 -0.44891063035E+01 -0.19086112300E+02 -0.23474182716E+02  0.30585437917E+02  0.51100000000E-03 0. -1.
        -11    1    3    3    0    0  0.38332816446E+01  0.70529459337E-01 -0.46466792886E+01  0.60241722456E+01  0.51100000000E-03 0.  1.
        -12    1    3    3    0    0 -0.67089690931E+01 -0.62592118301E+01 -0.63837413073E+01  0.11177663088E+02  0.00000000000E+00 0.  1.
</event>
<event>
 7    1  0.2834226E-010  0.4778727E+02  0.7816164E-02  0.1312668E+00
        -11   -1    0    0    0    0  0.00000000000E+00  0.00000000000E+00  0.45593999997E+02  0.45594000000E+02  0.51100000000E-03 0. -1.
         11   -1    0    0    0    0 -0.00000000000E+00 -0.00000000000E+00 -0.45593999997E+02  0.45594000000E+02  0.51100000000E-03 0.  1.
    9900012    2    1    2    0    0 -0.15988206343E+02 -0.35655508491E+02 -0.18886125608E+02  0.47787265348E+02  0.19999974028E+02 0.  0.
        -12    1    1    2    0    0  0.15988206343E+02  0.35655508491E+02  0.18886125608E+02  0.43400734652E+02  0.00000000000E+00 0.  1.
         11    1    3    3    0    0 -0.10719883623E+02 -0.13510406909E+02 -0.15191084759E+02  0.22982951424E+02  0.51100000000E-03 0. -1.
        -11    1    3    3    0    0 -0.42162374538E+01 -0.20358696968E+02 -0.60633144028E+01  0.21656799909E+02  0.51100000000E-03 0.  1.
         12    1    3    3    0    0 -0.10520852661E+01 -0.17864046140E+01  0.23682735531E+01  0.31475140149E+01  0.00000000000E+00 0. -1.
</event>
<event>
 7    1  0.2834226E-010  0.4778727E+02  0.7816164E-02  0.1312668E+00
        -11   -1    0    0    0    0  0.00000000000E+00  0.00000000000E+00  0.45593999997E+02  0.45594000000E+02  0.51100000000E-03 0. -1.
         11   -1    0    0    0    0 -0.00000000000E+00 -0.00000000000E+00 -0.45593999997E+02  0.45594000000E+02  0.51100000000E-03 0.  1.
    9900012    2    1    2    0    0  0.20008929635E+02  0.11853916239E+02  0.36643559861E+02  0.47787273340E+02  0.20000010468E+02 0.  0.
        -12    1    1    2    0    0 -0.20008929635E+02 -0.11853916239E+02 -0.36643559861E+02  0.43400726660E+02  0.00000000000E+00 0.  1.
         11    1    3    3    0    0  0.84211327401E+01  0.64875465389E+01  0.11948552268E+02  0.15992862104E+02  0.51100000000E-03 0. -1.
        -11    1    3    3    0    0 -0.34987315923E+00  0.72458587424E+01  0.54650874240E+01  0.90825140218E+01  0.51100000000E-03 0.  1.
        -12    1    3    3    0    0  0.11937670054E+02 -0.18794890427E+01  0.19229920168E+02  0.22711897214E+02  0.00000000000E+00 0.  1.
</event>
<event>
 7    1  0.2834226E-010  0.4778727E+02  0.7816164E-02  0.1312668E+00
        -11   -1    0    0    0    0  0.00000000000E+00  0.00000000000E+00  0.45593999997E+02  0.45594000000E+02  0.51100000000E-03 0.  1.
         11   -1    0    0    0    0 -0.00000000000E+00 -0.00000000000E+00 -0.45593999997E+02  0.45594000000E+02  0.51100000000E-03 0. -1.
    9900012    2    1    2    0    0 -0.22411977415E+02  0.36672168117E+02 -0.60397663481E+01  0.47787269320E+02  0.19999992138E+02 0.  0.
        -12    1    1    2    0    0  0.22411977415E+02 -0.36672168117E+02  0.60397663481E+01  0.43400730680E+02  0.00000000000E+00 0.  1.
         11    1    3    3    0    0 -0.40921048896E+01  0.10751836263E+02 -0.38419777035E+01  0.12128812736E+02  0.51100000000E-03 0. -1.
        -11    1    3    3    0    0 -0.10333967549E+02  0.93926277722E+01 -0.83839976558E+01  0.16288147799E+02  0.51100000000E-03 0.  1.
        -12    1    3    3    0    0 -0.79859049759E+01  0.16527704081E+02  0.61862090112E+01  0.19370308785E+02  0.00000000000E+00 0.  1.
</event>
<event>
 7    1  0.2834226E-010  0.4778725E+02  0.7816164E-02  0.1312668E+00
        -11   -1    0    0    0    0  0.00000000000E+00  0.00000000000E+00  0.45593999997E+02  0.45594000000E+02  0.51100000000E-03 0.  1.
         11   -1    0    0    0    0 -0.00000000000E+00 -0.00000000000E+00 -0.45593999997E+02  0.45594000000E+02  0.51100000000E-03 0. -1.
    9900012    2    1    2    0    0  0.16793055679E+02  0.31015277536E+02 -0.25291718834E+02  0.47787248840E+02  0.19999898760E+02 0.  0.
        -12    1    1    2    0    0 -0.16793055679E+02 -0.31015277536E+02  0.25291718834E+02  0.43400751160E+02  0.00000000000E+00 0.  1.
         11    1    3    3    0    0  0.18102588644E+02  0.16943703341E+02 -0.12923208043E+02  0.27960724327E+02  0.51100000000E-03 0. -1.
        -11    1    3    3    0    0 -0.31367945827E+01  0.78305577726E+01 -0.43142408789E+01  0.94746920745E+01  0.51100000000E-03 0.  1.
         12    1    3    3    0    0  0.18272616181E+01  0.62410164226E+01 -0.80542699123E+01  0.10351832438E+02  0.00000000000E+00 0. -1.
</event>
<event>
 7    1  0.2834226E-010  0.4778727E+02  0.7816164E-02  0.1312668E+00
        -11   -1    0    0    0    0  0.00000000000E+00  0.00000000000E+00  0.45593999997E+02  0.45594000000E+02  0.51100000000E-03 0.  1.
         11   -1    0    0    0    0 -0.00000000000E+00 -0.00000000000E+00 -0.45593999997E+02  0.45594000000E+02  0.51100000000E-03 0. -1.
    9900012    2    1    2    0    0 -0.38844601705E+02  0.85396080233E+01 -0.17372250472E+02  0.47787273355E+02  0.20000010536E+02 0.  0.
        -12    1    1    2    0    0  0.38844601705E+02 -0.85396080233E+01  0.17372250472E+02  0.43400726645E+02  0.00000000000E+00 0.  1.
         11    1    3    3    0    0 -0.36511559971E+02  0.66706391286E+01 -0.15064066286E+02  0.40056429337E+02  0.51100000000E-03 0. -1.
        -11    1    3    3    0    0  0.17805598341E+01  0.18751379218E+01 -0.25214918574E+01  0.36117110898E+01  0.51100000000E-03 0.  1.
        -12    1    3    3    0    0 -0.41136015682E+01 -0.61690271369E-02  0.21330767091E+00  0.41191329283E+01  0.00000000000E+00 0.  1.
</event>
<event>
 7    1  0.2834226E-010  0.4778727E+02  0.7816164E-02  0.1312668E+00
        -11   -1    0    0    0    0  0.00000000000E+00  0.00000000000E+00  0.45593999997E+02  0.45594000000E+02  0.51100000000E-03 0. -1.
         11   -1    0    0    0    0 -0.00000000000E+00 -0.00000000000E+00 -0.45593999997E+02  0.45594000000E+02  0.51100000000E-03 0.  1.
    9900012    2    1    2    0    0 -0.19320052074E+02  0.38484464460E+02 -0.54134144847E+01  0.47787268747E+02  0.19999989523E+02 0.  0.
        -12    1    1    2    0    0  0.19320052074E+02 -0.38484464460E+02  0.54134144847E+01  0.43400731253E+02  0.00000000000E+00 0.  1.
         11    1    3    3    0    0 -0.21512292442E+02  0.36899950569E+02 -0.13739517246E+01  0.42734913381E+02  0.51100000000E-03 0. -1.
        -11    1    3    3    0    0  0.13346210270E+01  0.15356814173E+01 -0.20640121040E+01  0.28982196135E+01  0.51100000000E-03 0.  1.
         12    1    3    3    0    0  0.85761934099E+00  0.48832474492E-01 -0.19754506561E+01  0.21541357523E+01  0.00000000000E+00 0. -1.
</event>
<event>
 7    1  0.2834226E-010  0.4778727E+02  0.7816164E-02  0.1312668E+00
        -11   -1    0    0    0    0  0.00000000000E+00  0.00000000000E+00  0.45593999997E+02  0.45594000000E+02  0.51100000000E-03 0.  1.
         11   -1    0    0    0    0 -0.00000000000E+00 -0.00000000000E+00 -0.45593999997E+02  0.45594000000E+02  0.51100000000E-03 0. -1.
    9900012    2    1    2    0    0  0.16749140924E+02  0.12247285846E+02 -0.38119460406E+02  0.47787274269E+02  0.20000014704E+02 0.  0.
        -12    1    1    2    0    0 -0.16749140924E+02 -0.12247285846E+02  0.38119460406E+02  0.43400725731E+02  0.00000000000E+00 0.  1.
         11    1    3    3    0    0  0.39218499001E+01  0.12376311536E+02 -0.14624636969E+02  0.19555919836E+02  0.51100000000E-03 0. -1.
        -11    1    3    3    0    0  0.68594119264E+01 -0.28437444336E+01 -0.59944175195E+01  0.95431365933E+01  0.51100000000E-03 0.  1.
         12    1    3    3    0    0  0.59678790978E+01  0.27147187436E+01 -0.17500405917E+02  0.18688217840E+02  0.00000000000E+00 0. -1.
</event>
<event>
 7    1  0.2834226E-010  0.4778727E+02  0.7816164E-02  0.1312668E+00
        -11   -1    0    0    0    0  0.00000000000E+00  0.00000000000E+00  0.45593999997E+02  0.45594000000E+02  0.51100000000E-03 0.  1.
         11   -1    0    0    0    0 -0.00000000000E+00 -0.00000000000E+00 -0.45593999997E+02  0.45594000000E+02  0.51100000000E-03 0. -1.
    9900012    2    1    2    0    0 -0.24855382545E+02  0.33367102867E+02 -0.12347875018E+02  0.47787267142E+02  0.19999982205E+02 0.  0.
        -12    1    1    2    0    0  0.24855382545E+02 -0.33367102867E+02  0.12347875018E+02  0.43400732858E+02  0.00000000000E+00 0.  1.
         11    1    3    3    0    0 -0.17551187691E+01  0.35979048372E+01 -0.47769524561E+01  0.62325465213E+01  0.51100000000E-03 0. -1.
        -11    1    3    3    0    0 -0.19472566894E+02  0.29032536486E+02 -0.10856601741E+02  0.36605120378E+02  0.51100000000E-03 0.  1.
        -12    1    3    3    0    0 -0.36276968816E+01  0.73666154362E+00  0.32856791785E+01  0.49496002423E+01  0.00000000000E+00 0.  1.
</event>
<event>
 7    1  0.2834226E-010  0.4778727E+02  0.7816164E-02  0.1312668E+00
        -11   -1    0    0    0    0  0.00000000000E+00  0.00000000000E+00  0.45593999997E+02  0.45594000000E+02  0.51100000000E-03 0. -1.
         11   -1    0    0    0    0 -0.00000000000E+00 -0.00000000000E+00 -0.45593999997E+02  0.45594000000E+02  0.51100000000E-03 0.  1.
    9900012    2    1    2    0    0  0.14865028549E+02  0.10158150727E+02  0.39490077035E+02  0.47787270926E+02  0.19999999459E+02 0.  0.
        -12    1    1    2    0    0 -0.14865028549E+02 -0.10158150727E+02 -0.39490077035E+02  0.43400729074E+02  0.00000000000E+00 0.  1.
         11    1    3    3    0    0  0.15555075549E+02  0.57998019281E+01  0.30780628898E+02  0.34972063041E+02  0.51100000000E-03 0. -1.
        -11    1    3    3    0    0  0.27716299465E+01  0.34667974683E+01  0.13594700416E+01  0.46420659519E+01  0.51100000000E-03 0.  1.
         12    1    3    3    0    0 -0.34616769458E+01  0.89155133029E+00  0.73499780954E+01  0.81731419328E+01  0.00000000000E+00 0. -1.
</event>
<event>
 7    1  0.2834226E-010  0.4778727E+02  0.7816164E-02  0.1312668E+00
        -11   -1    0    0    0    0  0.00000000000E+00  0.00000000000E+00  0.45593999997E+02  0.45594000000E+02  0.51100000000E-03 0. -1.
         11   -1    0    0    0    0 -0.00000000000E+00 -0.00000000000E+00 -0.45593999997E+02  0.45594000000E+02  0.51100000000E-03 0.  1.
    9900012    2    1    2    0    0  0.25206655969E+02  0.43807726135E+00  0.35327832039E+02  0.47787272663E+02  0.20000007380E+02 0.  0.
        -12    1    1    2    0    0 -0.25206655969E+02 -0.43807726135E+00 -0.35327832039E+02  0.43400727337E+02  0.00000000000E+00 0.  1.
         11    1    3    3    0    0  0.12870085981E+02 -0.13872025118E+01  0.18633197134E+02  0.22688311521E+02  0.51100000000E-03 0. -1.
        -11    1    3    3    0    0  0.18987924673E+00  0.19596576005E+01 -0.19986310460E+01  0.28055014451E+01  0.51100000000E-03 0.  1.
        -12    1    3    3    0    0  0.12146690741E+02 -0.13437782740E+00  0.18693265951E+02  0.22293459697E+02  0.00000000000E+00 0.  1.
</event>
<event>
 7    1  0.2834226E-010  0.4778728E+02  0.7816164E-02  0.1312668E+00
        -11   -1    0    0    0    0  0.00000000000E+00  0.00000000000E+00  0.45593999997E+02  0.45594000000E+02  0.51100000000E-03 0. -1.
         11   -1    0    0    0    0 -0.00000000000E+00 -0.00000000000E+00 -0.45593999997E+02  0.45594000000E+02  0.51100000000E-03 0.  1.
    9900012    2    1    2    0    0 -0.10302321547E+02  0.32740879015E+02 -0.26561622878E+02  0.47787276528E+02  0.20000025004E+02 0.  0.
        -12    1    1    2    0    0  0.10302321547E+02 -0.32740879015E+02  0.26561622878E+02  0.43400723472E+02  0.00000000000E+00 0.  1.
         11    1    3    3    0    0 -0.11251067912E+02  0.10720992209E+02 -0.49499368805E+01  0.16310367209E+02  0.51100000000E-03 0. -1.
        -11    1    3    3    0    0  0.26522721596E+01  0.72837654948E+01 -0.99177149421E+01  0.12587647013E+02  0.51100000000E-03 0.  1.
         12    1    3    3    0    0 -0.17035257945E+01  0.14736121312E+02 -0.11693971055E+02  0.18889262307E+02  0.00000000000E+00 0. -1.
</event>
<event>
 7    1  0.3337332E-010  0.4778725E+02  0.7816164E-02  0.1312668E+00
        -11   -1    0    0    0    0  0.00000000000E+00  0.00000000000E+00  0.45593999997E+02  0.45594000000E+02  0.51100000000E-03 0. -1.
         11   -1    0    0    0    0 -0.00000000000E+00 -0.00000000000E+00 -0.45593999997E+02  0.45594000000E+02  0.51100000000E-03 0.  1.
    9900012    2    1    2    0    0  0.20824147022E+02 -0.25487394440E+02  0.28290854027E+02  0.47787253508E+02  0.19999920043E+02 0.  0.
        -12    1    1    2    0    0 -0.20824147022E+02  0.25487394440E+02 -0.28290854027E+02  0.43400746492E+02  0.00000000000E+00 0.  1.
         11    1    3    3    0    0  0.32243910101E+01 -0.61450177733E+01  0.16296332459E+02  0.17712379645E+02  0.51100000000E-03 0. -1.
        -11    1    3    3    0    0  0.58494429081E+01 -0.42509824411E+01 -0.46867336971E+00  0.72461361454E+01  0.51100000000E-03 0.  1.
         12    1    3    3    0    0  0.11750313104E+02 -0.15091394225E+02  0.12463194938E+02  0.22828737717E+02  0.00000000000E+00 0. -1.
</event>
<event>
 7    1  0.2834226E-010  0.4778727E+02  0.7816164E-02  0.1312668E+00
        -11   -1    0    0    0    0  0.00000000000E+00  0.00000000000E+00  0.45593999997E+02  0.45594000000E+02  0.51100000000E-03 0.  1.
         11   -1    0    0    0    0 -0.00000000000E+00 -0.00000000000E+00 -0.45593999997E+02  0.45594000000E+02  0.51100000000E-03 0. -1.
    9900012    2    1    2    0    0 -0.38055148320E+02  0.13036665790E+02 -0.16293393472E+02  0.47787266833E+02  0.19999980799E+02 0.  0.
        -12    1    1    2    0    0  0.38055148320E+02 -0.13036665790E+02  0.16293393472E+02  0.43400733167E+02  0.00000000000E+00 0.  1.
         11    1    3    3    0    0 -0.14385825110E+02  0.13700111729E+02 -0.78132008382E+01  0.21346923270E+02  0.51100000000E-03 0. -1.
        -11    1    3    3    0    0 -0.22906070147E+02 -0.19991120056E+01 -0.64264521068E+01  0.23874333191E+02  0.51100000000E-03 0.  1.
        -12    1    3    3    0    0 -0.76325306387E+00  0.13356660663E+01 -0.20537405271E+01  0.25660103727E+01  0.00000000000E+00 0.  1.
</event>
<event>
 7    1  0.2834226E-010  0.4778728E+02  0.7816164E-02  0.1312668E+00
        -11   -1    0    0    0    0  0.00000000000E+00  0.00000000000E+00  0.45593999997E+02  0.45594000000E+02  0.51100000000E-03 0.  1.
         11   -1    0    0    0    0 -0.00000000000E+00 -0.00000000000E+00 -0.45593999997E+02  0.45594000000E+02  0.51100000000E-03 0. -1.
    9900012    2    1    2    0    0  0.12582099621E+02 -0.24036890710E+02 -0.33875381141E+02  0.47787276581E+02  0.20000025242E+02 0.  0.
        -12    1    1    2    0    0 -0.12582099621E+02  0.24036890710E+02  0.33875381141E+02  0.43400723419E+02  0.00000000000E+00 0.  1.
         11    1    3    3    0    0  0.16690643037E+02 -0.20269860976E+02 -0.28794589303E+02  0.38968874790E+02  0.51100000000E-03 0.  1.
        -11    1    3    3    0    0 -0.27181522844E+01 -0.13709066192E+01 -0.52219054766E+01  0.60445044352E+01  0.51100000000E-03 0. -1.
        -12    1    3    3    0    0 -0.13903911321E+01 -0.23961231150E+01  0.14111363854E+00  0.27738973560E+01  0.00000000000E+00 0.  1.
</event>
<event>
 7    1  0.2834226E-010  0.4778727E+02  0.7816164E-02  0.1312668E+00
        -11   -1    0    0    0    0  0.00000000000E+00  0.00000000000E+00  0.45593999997E+02  0.45594000000E+02  0.51100000000E-03 0.  1.
         11   -1    0    0    0    0 -0.00000000000E+00 -0.00000000000E+00 -0.45593999997E+02  0.45594000000E+02  0.51100000000E-03 0. -1.
    9900012    2    1    2    0    0 -0.34218437319E+02 -0.24711042787E+02 -0.10103783970E+02  0.47787267993E+02  0.19999986088E+02 0.  0.
        -12    1    1    2    0    0  0.34218437319E+02  0.24711042787E+02  0.10103783970E+02  0.43400732007E+02  0.00000000000E+00 0.  1.
         11    1    3    3    0    0 -0.19253338566E+02 -0.14258644301E+02 -0.14405816224E+02  0.27955813788E+02  0.51100000000E-03 0.  1.
        -11    1    3    3    0    0 -0.13306918653E+02 -0.80190840945E+01  0.12438770986E+01  0.15586116394E+02  0.51100000000E-03 0. -1.
         12    1    3    3    0    0 -0.16581801010E+01 -0.24333143914E+01  0.30581551552E+01  0.42453378109E+01  0.00000000000E+00 0. -1.
</event>
<event>
 7    1  0.2834226E-010  0.4778727E+02  0.7816164E-02  0.1312668E+00
        -11   -1    0    0    0    0  0.00000000000E+00  0.00000000000E+00  0.45593999997E+02  0.45594000000E+02  0.51100000000E-03 0.  1.
         11   -1    0    0    0    0 -0.00000000000E+00 -0.00000000000E+00 -0.45593999997E+02  0.45594000000E+02  0.51100000000E-03 0. -1.
    9900012    2    1    2    0    0  0.37662419508E+02  0.14441522823E+02 -0.16018987535E+02  0.47787269749E+02  0.19999994093E+02 0.  0.
        -12    1    1    2    0    0 -0.37662419508E+02 -0.14441522823E+02  0.16018987535E+02  0.43400730251E+02  0.00000000000E+00 0.  1.
         11    1    3    3    0    0  0.95897040204E+01  0.10329674479E+00 -0.12547616794E+02  0.15792902865E+02  0.51100000000E-03 0. -1.
        -11    1    3    3    0    0  0.17854353122E+02  0.11015310836E+02 -0.33763025347E+01  0.21248868612E+02  0.51100000000E-03 0.  1.
         12    1    3    3    0    0  0.10218362366E+02  0.33229152424E+01 -0.95068205990E-01  0.10745498272E+02  0.00000000000E+00 0. -1.
</event>
<event>
 7    1  0.2834226E-010  0.4778727E+02  0.7816164E-02  0.1312668E+00
        -11   -1    0    0    0    0  0.00000000000E+00  0.00000000000E+00  0.45593999997E+02  0.45594000000E+02  0.51100000000E-03 0. -1.
         11   -1    0    0    0    0 -0.00000000000E+00 -0.00000000000E+00 -0.45593999997E+02  0.45594000000E+02  0.51100000000E-03 0.  1.
    9900012    2    1    2    0    0  0.14835634122E+02 -0.37372154996E+02  0.16335528031E+02  0.47787268613E+02  0.19999988916E+02 0.  0.
        -12    1    1    2    0    0 -0.14835634122E+02  0.37372154996E+02 -0.16335528031E+02  0.43400731387E+02  0.00000000000E+00 0.  1.
         11    1    3    3    0    0  0.17617628542E+02 -0.27441992480E+02  0.87137213304E+01  0.33754595633E+02  0.51100000000E-03 0. -1.
        -11    1    3    3    0    0  0.97601217772E+00 -0.14056923974E+01 -0.37871086511E+00  0.17527102064E+01  0.51100000000E-03 0.  1.
         12    1    3    3    0    0 -0.37580065976E+01 -0.85244701188E+01  0.80005175660E+01  0.12279962773E+02  0.00000000000E+00 0. -1.
</event>
<event>
 7    1  0.2834226E-010  0.4778727E+02  0.7816164E-02  0.1312668E+00
        -11   -1    0    0    0    0  0.00000000000E+00  0.00000000000E+00  0.45593999997E+02  0.45594000000E+02  0.51100000000E-03 0. -1.
         11   -1    0    0    0    0 -0.00000000000E+00 -0.00000000000E+00 -0.45593999997E+02  0.45594000000E+02  0.51100000000E-03 0.  1.
    9900012    2    1    2    0    0 -0.18044224414E+02 -0.24375670952E+02  0.31046026621E+02  0.47787272610E+02  0.20000007138E+02 0.  0.
        -12    1    1    2    0    0  0.18044224414E+02  0.24375670952E+02 -0.31046026621E+02  0.43400727390E+02  0.00000000000E+00 0.  1.
         11    1    3    3    0    0 -0.69996161193E+01 -0.75761580634E+01  0.21658482639E+02  0.23989219815E+02  0.51100000000E-03 0. -1.
        -11    1    3    3    0    0 -0.80381607491E+01 -0.17012115061E+02  0.75896690703E+01  0.20288596894E+02  0.51100000000E-03 0.  1.
        -12    1    3    3    0    0 -0.30064475457E+01  0.21260217240E+00  0.17978749112E+01  0.35094559016E+01  0.00000000000E+00 0.  1.
</event>
<event>
 7    1  0.2834226E-010  0.4778727E+02  0.7816164E-02  0.1312668E+00
        -11   -1    0    0    0    0  0.00000000000E+00  0.00000000000E+00  0.45593999997E+02  0.45594000000E+02  0.51100000000E-03 0.  1.
         11   -1    0    0    0    0 -0.00000000000E+00 -0.00000000000E+00 -0.45593999997E+02  0.45594000000E+02  0.51100000000E-03 0. -1.
    9900012    2    1    2    0    0 -0.10539481527E+02 -0.30895754392E+02 -0.28600609660E+02  0.47787272089E+02  0.20000004761E+02 0.  0.
        -12    1    1    2    0    0  0.10539481527E+02  0.30895754392E+02  0.28600609660E+02  0.43400727911E+02  0.00000000000E+00 0.  1.
         11    1    3    3    0    0  0.17087123256E+01 -0.12946126678E+02 -0.17399016687E+02  0.21754256496E+02  0.51100000000E-03 0. -1.
        -11    1    3    3    0    0 -0.12450204932E+02 -0.11256939057E+02 -0.75258417353E+01  0.18394688740E+02  0.51100000000E-03 0.  1.
        -12    1    3    3    0    0  0.20201107883E+00 -0.66926886569E+01 -0.36757512382E+01  0.76383268521E+01  0.00000000000E+00 0.  1.
</event>
<event>
 7    1  0.2834226E-010  0.4778727E+02  0.7816164E-02  0.1312668E+00
        -11   -1    0    0    0    0  0.00000000000E+00  0.00000000000E+00  0.45593999997E+02  0.45594000000E+02  0.51100000000E-03 0.  1.
         11   -1    0    0    0    0 -0.00000000000E+00 -0.00000000000E+00 -0.45593999997E+02  0.45594000000E+02  0.51100000000E-03 0. -1.
    9900012    2    1    2    0    0  0.62934556671E+01  0.41778810119E+02 -0.99270789221E+01  0.47787268956E+02  0.19999990480E+02 0.  0.
        -12    1    1    2    0    0 -0.62934556671E+01 -0.41778810119E+02  0.99270789221E+01  0.43400731044E+02  0.00000000000E+00 0.  1.
         11    1    3    3    0    0  0.10514238513E+02  0.39443792353E+02 -0.10270145610E+02  0.42093204414E+02  0.51100000000E-03 0. -1.
        -11    1    3    3    0    0 -0.12995054631E+01 -0.42074964992E+00  0.90562475836E+00  0.16388719232E+01  0.51100000000E-03 0.  1.
         12    1    3    3    0    0 -0.29212773829E+01  0.27557674155E+01 -0.56255807018E+00  0.40551926192E+01  0.00000000000E+00 0. -1.
</event>
<event>
 7    1  0.2834226E-010  0.4778727E+02  0.7816164E-02  0.1312668E+00
        -11   -1    0    0    0    0  0.00000000000E+00  0.00000000000E+00  0.45593999997E+02  0.45594000000E+02  0.51100000000E-03 0.  1.
         11   -1    0    0    0    0 -0.00000000000E+00 -0.00000000000E+00 -0.45593999997E+02  0.45594000000E+02  0.51100000000E-03 0. -1.
    9900012    2    1    2    0    0  0.17901980970E+02 -0.71257396418E+01 -0.38889152252E+02  0.47787271308E+02  0.20000001203E+02 0.  0.
        -12    1    1    2    0    0 -0.17901980970E+02  0.71257396418E+01  0.38889152252E+02  0.43400728692E+02  0.00000000000E+00 0.  1.
         11    1    3    3    0    0  0.15530375055E+02 -0.11018212582E+02 -0.37743655065E+02  0.42275016922E+02  0.51100000000E-03 0. -1.
        -11    1    3    3    0    0  0.78561925937E+00  0.32705282020E+01  0.15788540850E+00  0.33672660133E+01  0.51100000000E-03 0.  1.
         12    1    3    3    0    0  0.15859866550E+01  0.62194473834E+00 -0.13033825960E+01  0.21449883727E+01  0.00000000000E+00 0. -1.
</event>
<event>
 7    1  0.2834226E-010  0.4778726E+02  0.7816164E-02  0.1312668E+00
        -11   -1    0    0    0    0  0.00000000000E+00  0.00000000000E+00  0.45593999997E+02  0.45594000000E+02  0.51100000000E-03 0.  1.
         11   -1    0    0    0    0 -0.00000000000E+00 -0.00000000000E+00 -0.45593999997E+02  0.45594000000E+02  0.51100000000E-03 0. -1.
    9900012    2    1    2    0    0  0.24981116809E+02  0.33079768102E+02 -0.12856779439E+02  0.47787262307E+02  0.19999960162E+02 0.  0.
        -12    1    1    2    0    0 -0.24981116809E+02 -0.33079768102E+02  0.12856779439E+02  0.43400737693E+02  0.00000000000E+00 0.  1.
         11    1    3    3    0    0  0.52577084196E+01  0.11051980986E+02 -0.51494871815E+01  0.13278064620E+02  0.51100000000E-03 0. -1.
        -11    1    3    3    0    0  0.82439831007E+01  0.19954841395E+02 -0.74544742151E+01  0.22841369017E+02  0.51100000000E-03 0.  1.
        -12    1    3    3    0    0  0.11479425289E+02  0.20729457208E+01 -0.25281804275E+00  0.11667828671E+02  0.00000000000E+00 0.  1.
</event>
<event>
 7    1  0.2834226E-010  0.4778727E+02  0.7816164E-02  0.1312668E+00
        -11   -1    0    0    0    0  0.00000000000E+00  0.00000000000E+00  0.45593999997E+02  0.45594000000E+02  0.51100000000E-03 0. -1.
         11   -1    0    0    0    0 -0.00000000000E+00 -0.00000000000E+00 -0.45593999997E+02  0.45594000000E+02  0.51100000000E-03 0.  1.
    9900012    2    1    2    0    0  0.37721438331E+02  0.19557008352E+02 -0.88453275308E+01  0.47787270691E+02  0.19999998389E+02 0.  0.
        -12    1    1    2    0    0 -0.37721438331E+02 -0.19557008352E+02  0.88453275308E+01  0.43400729309E+02  0.00000000000E+00 0.  1.
         11    1    3    3    0    0  0.21862650865E+02  0.74870192737E+01 -0.10696854936E+02  0.25464753410E+02  0.51100000000E-03 0. -1.
        -11    1    3    3    0    0  0.54954269490E-01  0.15314363242E+00  0.25129667641E+01  0.25182285763E+01  0.51100000000E-03 0.  1.
         12    1    3    3    0    0  0.15803833196E+02  0.11916845445E+02 -0.66143935848E+00  0.19804288705E+02  0.00000000000E+00 0. -1.
</event>
<event>
 7    1  0.2834226E-010  0.4778727E+02  0.7816164E-02  0.1312668E+00
        -11   -1    0    0    0    0  0.00000000000E+00  0.00000000000E+00  0.45593999997E+02  0.45594000000E+02  0.51100000000E-03 0.  1.
         11   -1    0    0    0    0 -0.00000000000E+00 -0.00000000000E+00 -0.45593999997E+02  0.45594000000E+02  0.51100000000E-03 0. -1.
    9900012    2    1    2    0    0  0.39194005608E+02  0.80495932667E+01 -0.16812413842E+02  0.47787270898E+02  0.19999999332E+02 0.  0.
        -12    1    1    2    0    0 -0.39194005608E+02 -0.80495932667E+01  0.16812413842E+02  0.43400729102E+02  0.00000000000E+00 0.  1.
         11    1    3    3    0    0  0.24131165536E+02 -0.35189481997E+01 -0.62145508228E+01  0.25165786074E+02  0.51100000000E-03 0. -1.
        -11    1    3    3    0    0  0.15544897350E+02  0.11586296569E+02 -0.10675941847E+02  0.22132822604E+02  0.51100000000E-03 0.  1.
         12    1    3    3    0    0 -0.48205727713E+00 -0.17755103020E-01  0.78078827921E-01  0.48866222024E+00  0.00000000000E+00 0. -1.
</event>
<event>
 7    1  0.2834226E-010  0.4778727E+02  0.7816164E-02  0.1312668E+00
        -11   -1    0    0    0    0  0.00000000000E+00  0.00000000000E+00  0.45593999997E+02  0.45594000000E+02  0.51100000000E-03 0.  1.
         11   -1    0    0    0    0 -0.00000000000E+00 -0.00000000000E+00 -0.45593999997E+02  0.45594000000E+02  0.51100000000E-03 0. -1.
    9900012    2    1    2    0    0 -0.20186708958E+02  0.20160855592E+02 -0.32705657406E+02  0.47787270247E+02  0.19999996365E+02 0.  0.
        -12    1    1    2    0    0  0.20186708958E+02 -0.20160855592E+02  0.32705657406E+02  0.43400729753E+02  0.00000000000E+00 0.  1.
         11    1    3    3    0    0 -0.57733388022E+01  0.22631938418E+01  0.12803507040E+01  0.63318864075E+01  0.51100000000E-03 0. -1.
        -11    1    3    3    0    0 -0.32694273159E+01  0.65744980762E+01 -0.14988392624E+02  0.16690269430E+02  0.51100000000E-03 0.  1.
         12    1    3    3    0    0 -0.11143942840E+02  0.11323163674E+02 -0.18997615486E+02  0.24765114410E+02  0.00000000000E+00 0. -1.
</event>
<event>
 7    1  0.2834226E-010  0.4778727E+02  0.7816164E-02  0.1312668E+00
        -11   -1    0    0    0    0  0.00000000000E+00  0.00000000000E+00  0.45593999997E+02  0.45594000000E+02  0.51100000000E-03 0. -1.
         11   -1    0    0    0    0 -0.00000000000E+00 -0.00000000000E+00 -0.45593999997E+02  0.45594000000E+02  0.51100000000E-03 0.  1.
    9900012    2    1    2    0    0  0.68291374545E+01  0.42370743468E+02  0.64580141484E+01  0.47787274578E+02  0.20000016113E+02 0.  0.
        -12    1    1    2    0    0 -0.68291374545E+01 -0.42370743468E+02 -0.64580141484E+01  0.43400725422E+02  0.00000000000E+00 0.  1.
         11    1    3    3    0    0  0.10835128818E+02  0.26272005156E+02  0.71070566831E+01  0.29293830859E+02  0.51100000000E-03 0. -1.
        -11    1    3    3    0    0 -0.74480151762E+00  0.75553203905E+01 -0.42085632901E+01  0.86804147787E+01  0.51100000000E-03 0.  1.
        -12    1    3    3    0    0 -0.32611898460E+01  0.85434179208E+01  0.35595207554E+01  0.98130289407E+01  0.00000000000E+00 0.  1.
</event>
<event>
 7    1  0.2834226E-010  0.4778727E+02  0.7816164E-02  0.1312668E+00
        -11   -1    0    0    0    0  0.00000000000E+00  0.00000000000E+00  0.45593999997E+02  0.45594000000E+02  0.51100000000E-03 0.  1.
         11   -1    0    0    0    0 -0.00000000000E+00 -0.00000000000E+00 -0.45593999997E+02  0.45594000000E+02  0.51100000000E-03 0. -1.
    9900012    2    1    2    0    0 -0.22712075361E+02 -0.34229992737E+02 -0.14003307728E+02  0.47787269622E+02  0.19999993516E+02 0.  0.
        -12    1    1    2    0    0  0.22712075361E+02  0.34229992737E+02  0.14003307728E+02  0.43400730378E+02  0.00000000000E+00 0.  1.
         11    1    3    3    0    0 -0.13649193804E+02 -0.11120099358E+02 -0.92416196910E+01  0.19883778212E+02  0.51100000000E-03 0. -1.
        -11    1    3    3    0    0 -0.54600359594E+01 -0.23186643060E+02 -0.47999362287E+01  0.24299625453E+02  0.51100000000E-03 0.  1.
         12    1    3    3    0    0 -0.36028455975E+01  0.76749680657E-01  0.38248191549E-01  0.36038659572E+01  0.00000000000E+00 0. -1.
</event>
<event>
 7    1  0.2834226E-010  0.4778728E+02  0.7816164E-02  0.1312668E+00
        -11   -1    0    0    0    0  0.00000000000E+00  0.00000000000E+00  0.45593999997E+02  0.45594000000E+02  0.51100000000E-03 0. -1.
         11   -1    0    0    0    0 -0.00000000000E+00 -0.00000000000E+00 -0.45593999997E+02  0.45594000000E+02  0.51100000000E-03 0.  1.
    9900012    2    1    2    0    0 -0.17884388486E+02 -0.28656896581E+02  0.27249830426E+02  0.47787281902E+02  0.20000049504E+02 0.  0.
        -12    1    1    2    0    0  0.17884388486E+02  0.28656896581E+02 -0.27249830426E+02  0.43400718098E+02  0.00000000000E+00 0.  1.
         11    1    3    3    0    0 -0.16207155820E+02 -0.96115873281E+01  0.89196531338E+01  0.20847415260E+02  0.51100000000E-03 0. -1.
        -11    1    3    3    0    0  0.15201130471E+01 -0.47463306102E+01  0.34829525194E+01  0.60802431243E+01  0.51100000000E-03 0.  1.
         12    1    3    3    0    0 -0.31973457124E+01 -0.14298978643E+02  0.14847224773E+02  0.20859623517E+02  0.00000000000E+00 0. -1.
</event>
<event>
 7    1  0.2834226E-010  0.4778727E+02  0.7816164E-02  0.1312668E+00
        -11   -1    0    0    0    0  0.00000000000E+00  0.00000000000E+00  0.45593999997E+02  0.45594000000E+02  0.51100000000E-03 0. -1.
         11   -1    0    0    0    0 -0.00000000000E+00 -0.00000000000E+00 -0.45593999997E+02  0.45594000000E+02  0.51100000000E-03 0.  1.
    9900012    2    1    2    0    0  0.31708655130E+02  0.24116125860E+02  0.17221993176E+02  0.47787269757E+02  0.19999994131E+02 0.  0.
        -12    1    1    2    0    0 -0.31708655130E+02 -0.24116125860E+02 -0.17221993176E+02  0.43400730243E+02  0.00000000000E+00 0.  1.
         11    1    3    3    0    0  0.16560480441E+02  0.25581310816E+01  0.63218853786E+01  0.17909767784E+02  0.51100000000E-03 0. -1.
        -11    1    3    3    0    0  0.58496180500E+01  0.39789562122E+01  0.62827905374E+01  0.94616901803E+01  0.51100000000E-03 0.  1.
         12    1    3    3    0    0  0.92985566385E+01  0.17579038567E+02  0.46173172604E+01  0.20415811793E+02  0.00000000000E+00 0. -1.
</event>
<event>
 7    1  0.2834226E-010  0.4778727E+02  0.7816164E-02  0.1312668E+00
        -11   -1    0    0    0    0  0.00000000000E+00  0.00000000000E+00  0.45593999997E+02  0.45594000000E+02  0.51100000000E-03 0.  1.
         11   -1    0    0    0    0 -0.00000000000E+00 -0.00000000000E+00 -0.45593999997E+02  0.45594000000E+02  0.51100000000E-03 0. -1.
    9900012    2    1    2    0    0  0.38510942059E+02  0.83938533378E+01 -0.18167927745E+02  0.47787273846E+02  0.20000012774E+02 0.  0.
        -12    1    1    2    0    0 -0.38510942059E+02 -0.83938533378E+01  0.18167927745E+02  0.43400726154E+02  0.00000000000E+00 0.  1.
         11    1    3    3    0    0  0.20647823431E+01  0.28697080154E+01  0.23047312464E+01  0.42202294484E+01  0.51100000000E-03 0. -1.
        -11    1    3    3    0    0  0.17963401926E+02  0.33361568611E+00 -0.15517743147E+02  0.23740165560E+02  0.51100000000E-03 0.  1.
         12    1    3    3    0    0  0.18482757789E+02  0.51905296363E+01 -0.49549158447E+01  0.19826878837E+02  0.00000000000E+00 0. -1.
</event>
<event>
 7    1  0.2834226E-010  0.4778727E+02  0.7816164E-02  0.1312668E+00
        -11   -1    0    0    0    0  0.00000000000E+00  0.00000000000E+00  0.45593999997E+02  0.45594000000E+02  0.51100000000E-03 0.  1.
         11   -1    0    0    0    0 -0.00000000000E+00 -0.00000000000E+00 -0.45593999997E+02  0.45594000000E+02  0.51100000000E-03 0. -1.
    9900012    2    1    2    0    0 -0.14680148612E+02 -0.35381092692E+02 -0.20403302150E+02  0.47787271642E+02  0.20000002727E+02 0.  0.
        -12    1    1    2    0    0  0.14680148612E+02  0.35381092692E+02  0.20403302150E+02  0.43400728358E+02  0.00000000000E+00 0.  1.
         11    1    3    3    0    0 -0.12220966733E+02 -0.24688854780E+02 -0.22495470904E+02  0.35565963922E+02  0.51100000000E-03 0. -1.
        -11    1    3    3    0    0 -0.35671506663E+01 -0.10054636878E+02  0.23322993358E+01  0.10920618439E+02  0.51100000000E-03 0.  1.
         12    1    3    3    0    0  0.11079687873E+01 -0.63760103362E+00 -0.24013058171E+00  0.13006892818E+01  0.00000000000E+00 0. -1.
</event>
<event>
 7    1  0.2834226E-010  0.4778727E+02  0.7816164E-02  0.1312668E+00
        -11   -1    0    0    0    0  0.00000000000E+00  0.00000000000E+00  0.45593999997E+02  0.45594000000E+02  0.51100000000E-03 0. -1.
         11   -1    0    0    0    0 -0.00000000000E+00 -0.00000000000E+00 -0.45593999997E+02  0.45594000000E+02  0.51100000000E-03 0.  1.
    9900012    2    1    2    0    0 -0.41629741613E+02  0.91641039328E+01  0.81613120574E+01  0.47787271870E+02  0.20000003766E+02 0.  0.
        -12    1    1    2    0    0  0.41629741613E+02 -0.91641039328E+01 -0.81613120574E+01  0.43400728130E+02  0.00000000000E+00 0.  1.
         11    1    3    3    0    0 -0.32352154768E+02  0.43067348963E+01  0.21950036085E+01  0.32711281306E+02  0.51100000000E-03 0. -1.
        -11    1    3    3    0    0 -0.44755438327E+01  0.29193202938E+01 -0.18888649231E+01  0.56675157287E+01  0.51100000000E-03 0.  1.
         12    1    3    3    0    0 -0.48020430124E+01  0.19380487427E+01  0.78551733720E+01  0.94084748353E+01  0.00000000000E+00 0. -1.
</event>
<event>
 7    1  0.2834226E-010  0.4778727E+02  0.7816164E-02  0.1312668E+00
        -11   -1    0    0    0    0  0.00000000000E+00  0.00000000000E+00  0.45593999997E+02  0.45594000000E+02  0.51100000000E-03 0.  1.
         11   -1    0    0    0    0 -0.00000000000E+00 -0.00000000000E+00 -0.45593999997E+02  0.45594000000E+02  0.51100000000E-03 0. -1.
    9900012    2    1    2    0    0  0.96225526730E+01 -0.37174712309E+02 -0.20225495024E+02  0.47787269543E+02  0.19999993155E+02 0.  0.
        -12    1    1    2    0    0 -0.96225526730E+01  0.37174712309E+02  0.20225495024E+02  0.43400730457E+02  0.00000000000E+00 0.  1.
         11    1    3    3    0    0  0.93398031867E+00  0.17521656434E+01  0.12563881593E+01  0.23496627727E+01  0.51100000000E-03 0.  1.
        -11    1    3    3    0    0  0.70104119309E+01 -0.23930467480E+02 -0.13933777835E+02  0.28565071578E+02  0.51100000000E-03 0. -1.
         12    1    3    3    0    0  0.16781604234E+01 -0.14996410473E+02 -0.75481053483E+01  0.16872535192E+02  0.00000000000E+00 0. -1.
</event>
<event>
 7    1  0.2834226E-010  0.4778727E+02  0.7816164E-02  0.1312668E+00
        -11   -1    0    0    0    0  0.00000000000E+00  0.00000000000E+00  0.45593999997E+02  0.45594000000E+02  0.51100000000E-03 0.  1.
         11   -1    0    0    0    0 -0.00000000000E+00 -0.00000000000E+00 -0.45593999997E+02  0.45594000000E+02  0.51100000000E-03 0. -1.
    9900012    2    1    2    0    0 -0.90775725792E+01  0.18886488830E+02 -0.38006861324E+02  0.47787270836E+02  0.19999999050E+02 0.  0.
        -12    1    1    2    0    0  0.90775725792E+01 -0.18886488830E+02  0.38006861324E+02  0.43400729164E+02  0.00000000000E+00 0.  1.
         11    1    3    3    0    0  0.41696089036E+00 -0.13932322482E+01  0.60228596501E+00  0.15740715125E+01  0.51100000000E-03 0. -1.
        -11    1    3    3    0    0 -0.81536897190E+01  0.19735541751E+02 -0.26569207429E+02  0.34086610977E+02  0.51100000000E-03 0.  1.
         12    1    3    3    0    0 -0.13408437505E+01  0.54417932781E+00 -0.12039939860E+02  0.12126588347E+02  0.00000000000E+00 0. -1.
</event>
<event>
 7    1  0.2834226E-010  0.4778728E+02  0.7816164E-02  0.1312668E+00
        -11   -1    0    0    0    0  0.00000000000E+00  0.00000000000E+00  0.45593999997E+02  0.45594000000E+02  0.51100000000E-03 0. -1.
         11   -1    0    0    0    0 -0.00000000000E+00 -0.00000000000E+00 -0.45593999997E+02  0.45594000000E+02  0.51100000000E-03 0.  1.
    9900012    2    1    2    0    0 -0.33617052013E+02 -0.23118440859E+02  0.14800480586E+02  0.47787277433E+02  0.20000029129E+02 0.  0.
        -12    1    1    2    0    0  0.33617052013E+02  0.23118440859E+02 -0.14800480586E+02  0.43400722567E+02  0.00000000000E+00 0.  1.
         11    1    3    3    0    0 -0.11707135256E+02 -0.11397505791E+00  0.74644133449E+01  0.13884792870E+02  0.51100000000E-03 0. -1.
        -11    1    3    3    0    0 -0.15975795720E+01  0.80407367487E+00  0.62888754263E+00  0.18958625388E+01  0.51100000000E-03 0.  1.
         12    1    3    3    0    0 -0.20312337185E+02 -0.23808539476E+02  0.67071796980E+01  0.32006622024E+02  0.00000000000E+00 0. -1.
</event>
<event>
 7    1  0.2834226E-010  0.4778727E+02  0.7816164E-02  0.1312668E+00
        -11   -1    0    0    0    0  0.00000000000E+00  0.00000000000E+00  0.45593999997E+02  0.45594000000E+02  0.51100000000E-03 0. -1.
         11   -1    0    0    0    0 -0.00000000000E+00 -0.00000000000E+00 -0.45593999997E+02  0.45594000000E+02  0.51100000000E-03 0.  1.
    9900012    2    1    2    0    0 -0.41718540377E+02 -0.43522746787E+01 -0.11146510248E+02  0.47787267324E+02  0.19999983038E+02 0.  0.
        -12    1    1    2    0    0  0.41718540377E+02  0.43522746787E+01  0.11146510248E+02  0.43400732676E+02  0.00000000000E+00 0.  1.
         11    1    3    3    0    0 -0.29486537536E+02 -0.32898863289E+01 -0.47162474778E+01  0.30042007896E+02  0.51100000000E-03 0. -1.
        -11    1    3    3    0    0  0.20682803603E+01 -0.56045582833E+00 -0.14791789539E+01  0.26038173943E+01  0.51100000000E-03 0.  1.
         12    1    3    3    0    0 -0.14300283202E+02 -0.50193252144E+00 -0.49510838165E+01  0.15141442034E+02  0.00000000000E+00 0. -1.
</event>
<event>
 7    1  0.2834226E-010  0.4778727E+02  0.7816164E-02  0.1312668E+00
        -11   -1    0    0    0    0  0.00000000000E+00  0.00000000000E+00  0.45593999997E+02  0.45594000000E+02  0.51100000000E-03 0. -1.
         11   -1    0    0    0    0 -0.00000000000E+00 -0.00000000000E+00 -0.45593999997E+02  0.45594000000E+02  0.51100000000E-03 0.  1.
    9900012    2    1    2    0    0  0.35732919106E+02 -0.20630557172E+02  0.13459638618E+02  0.47787271103E+02  0.20000000268E+02 0.  0.
        -12    1    1    2    0    0 -0.35732919106E+02  0.20630557172E+02 -0.13459638618E+02  0.43400728897E+02  0.00000000000E+00 0.  1.
         11    1    3    3    0    0  0.12497786694E+02 -0.53552762554E+01  0.14511228966E+02  0.19885910147E+02  0.51100000000E-03 0. -1.
        -11    1    3    3    0    0  0.18802439301E+02 -0.12862502991E+02 -0.15273310488E+01  0.22832180081E+02  0.51100000000E-03 0.  1.
         12    1    3    3    0    0  0.44326931110E+01 -0.24127779252E+01  0.47574070154E+00  0.50691808754E+01  0.00000000000E+00 0. -1.
</event>
<event>
 7    1  0.2834226E-010  0.4778728E+02  0.7816164E-02  0.1312668E+00
        -11   -1    0    0    0    0  0.00000000000E+00  0.00000000000E+00  0.45593999997E+02  0.45594000000E+02  0.51100000000E-03 0.  1.
         11   -1    0    0    0    0 -0.00000000000E+00 -0.00000000000E+00 -0.45593999997E+02  0.45594000000E+02  0.51100000000E-03 0. -1.
    9900012    2    1    2    0    0 -0.33433955479E+02 -0.14415949682E+02 -0.23621459390E+02  0.47787281943E+02  0.20000049689E+02 0.  0.
        -12    1    1    2    0    0  0.33433955479E+02  0.14415949682E+02  0.23621459390E+02  0.43400718057E+02  0.00000000000E+00 0.  1.
         11    1    3    3    0    0 -0.20357918735E+02 -0.13623805865E+02 -0.16986197752E+02  0.29809123701E+02  0.51100000000E-03 0. -1.
        -11    1    3    3    0    0 -0.12266629955E+01  0.23626655958E+01  0.16932995488E+01  0.31550205142E+01  0.51100000000E-03 0.  1.
         12    1    3    3    0    0 -0.11849373748E+02 -0.31548094123E+01 -0.83285611867E+01  0.14823137727E+02  0.00000000000E+00 0. -1.
</event>
<event>
 7    1  0.2834226E-010  0.4778728E+02  0.7816164E-02  0.1312668E+00
        -11   -1    0    0    0    0  0.00000000000E+00  0.00000000000E+00  0.45593999997E+02  0.45594000000E+02  0.51100000000E-03 0.  1.
         11   -1    0    0    0    0 -0.00000000000E+00 -0.00000000000E+00 -0.45593999997E+02  0.45594000000E+02  0.51100000000E-03 0. -1.
    9900012    2    1    2    0    0 -0.80645399781E+01  0.25907361742E+02 -0.33873209082E+02  0.47787280063E+02  0.20000041121E+02 0.  0.
        -12    1    1    2    0    0  0.80645399781E+01 -0.25907361742E+02  0.33873209082E+02  0.43400719937E+02  0.00000000000E+00 0.  1.
         11    1    3    3    0    0 -0.67768646540E+01  0.18379230441E+02 -0.11030535306E+02  0.22480985645E+02  0.51100000000E-03 0. -1.
        -11    1    3    3    0    0 -0.36213157633E+01  0.19710598121E+01 -0.14077548282E+02  0.14668891251E+02  0.51100000000E-03 0.  1.
         12    1    3    3    0    0  0.23336404392E+01  0.55570714890E+01 -0.87651254936E+01  0.10637403168E+02  0.00000000000E+00 0. -1.
</event>
<event>
 7    1  0.2834226E-010  0.4778724E+02  0.7816164E-02  0.1312668E+00
        -11   -1    0    0    0    0  0.00000000000E+00  0.00000000000E+00  0.45593999997E+02  0.45594000000E+02  0.51100000000E-03 0.  1.
         11   -1    0    0    0    0 -0.00000000000E+00 -0.00000000000E+00 -0.45593999997E+02  0.45594000000E+02  0.51100000000E-03 0. -1.
    9900012    2    1    2    0    0 -0.11624682415E+02  0.14203913957E+02 -0.39328631295E+02  0.47787243641E+02  0.19999875057E+02 0.  0.
        -12    1    1    2    0    0  0.11624682415E+02 -0.14203913957E+02  0.39328631295E+02  0.43400756359E+02  0.00000000000E+00 0.  1.
         11    1    3    3    0    0 -0.56658077709E+01  0.60029060984E+01 -0.28480125648E+02  0.29652214361E+02  0.51100000000E-03 0. -1.
        -11    1    3    3    0    0 -0.40380894129E+01 -0.84972862372E+00 -0.35002980573E+00  0.41413434978E+01  0.51100000000E-03 0.  1.
         12    1    3    3    0    0 -0.19207852314E+01  0.90507364824E+01 -0.10498475841E+02  0.13993685782E+02  0.00000000000E+00 0. -1.
</event>
<event>
 7    1  0.2834226E-010  0.4778727E+02  0.7816164E-02  0.1312668E+00
        -11   -1    0    0    0    0  0.00000000000E+00  0.00000000000E+00  0.45593999997E+02  0.45594000000E+02  0.51100000000E-03 0.  1.
         11   -1    0    0    0    0 -0.00000000000E+00 -0.00000000000E+00 -0.45593999997E+02  0.45594000000E+02  0.51100000000E-03 0. -1.
    9900012    2    1    2    0    0 -0.26437864950E+02 -0.17473062673E+02 -0.29653912124E+02  0.47787272742E+02  0.20000007739E+02 0.  0.
        -12    1    1    2    0    0  0.26437864950E+02  0.17473062673E+02  0.29653912124E+02  0.43400727258E+02  0.00000000000E+00 0.  1.
         11    1    3    3    0    0 -0.32061454068E+01 -0.28463924563E+01 -0.16557415272E+02  0.17103488508E+02  0.51100000000E-03 0. -1.
        -11    1    3    3    0    0 -0.18342840701E+02 -0.95253055241E+01 -0.93308281566E+01  0.22677204516E+02  0.51100000000E-03 0.  1.
         12    1    3    3    0    0 -0.48888788423E+01 -0.51013646924E+01 -0.37656686949E+01  0.80065797179E+01  0.00000000000E+00 0. -1.
</event>
<event>
 7    1  0.2834226E-010  0.4778727E+02  0.7816164E-02  0.1312668E+00
        -11   -1    0    0    0    0  0.00000000000E+00  0.00000000000E+00  0.45593999997E+02  0.45594000000E+02  0.51100000000E-03 0.  1.
         11   -1    0    0    0    0 -0.00000000000E+00 -0.00000000000E+00 -0.45593999997E+02  0.45594000000E+02  0.51100000000E-03 0. -1.
    9900012    2    1    2    0    0 -0.40226366117E+01  0.20676314285E+02 -0.37946432015E+02  0.47787270970E+02  0.19999999659E+02 0.  0.
        -12    1    1    2    0    0  0.40226366117E+01 -0.20676314285E+02  0.37946432015E+02  0.43400729030E+02  0.00000000000E+00 0.  1.
         11    1    3    3    0    0  0.52510458097E+01  0.61846404841E+01 -0.15269531318E+02  0.17291091548E+02  0.51100000000E-03 0. -1.
        -11    1    3    3    0    0 -0.76548335732E+01  0.34032659112E+01 -0.56207150726E+01  0.10088168024E+02  0.51100000000E-03 0.  1.
         12    1    3    3    0    0 -0.16188488481E+01  0.11088407890E+02 -0.17056185624E+02  0.20408011397E+02  0.00000000000E+00 0. -1.
</event>
<event>
 7    1  0.2834226E-010  0.4778727E+02  0.7816164E-02  0.1312668E+00
        -11   -1    0    0    0    0  0.00000000000E+00  0.00000000000E+00  0.45593999997E+02  0.45594000000E+02  0.51100000000E-03 0.  1.
         11   -1    0    0    0    0 -0.00000000000E+00 -0.00000000000E+00 -0.45593999997E+02  0.45594000000E+02  0.51100000000E-03 0. -1.
    9900012    2    1    2    0    0 -0.14400490773E+02  0.28525401904E+02 -0.29369207819E+02  0.47787273552E+02  0.20000011434E+02 0.  0.
        -12    1    1    2    0    0  0.14400490773E+02 -0.28525401904E+02  0.29369207819E+02  0.43400726448E+02  0.00000000000E+00 0.  1.
         11    1    3    3    0    0 -0.13358955805E+02  0.27592472169E+02 -0.25086842088E+02  0.39612572080E+02  0.51100000000E-03 0. -1.
        -11    1    3    3    0    0  0.24410870354E+01  0.48654105948E+00  0.18118449264E+00  0.24956875202E+01  0.51100000000E-03 0.  1.
         12    1    3    3    0    0 -0.34826220035E+01  0.44638867548E+00 -0.44635502242E+01  0.56790139525E+01  0.00000000000E+00 0. -1.
</event>
<event>
 7    1  0.2834226E-010  0.4778728E+02  0.7816164E-02  0.1312668E+00
        -11   -1    0    0    0    0  0.00000000000E+00  0.00000000000E+00  0.45593999997E+02  0.45594000000E+02  0.51100000000E-03 0.  1.
         11   -1    0    0    0    0 -0.00000000000E+00 -0.00000000000E+00 -0.45593999997E+02  0.45594000000E+02  0.51100000000E-03 0. -1.
    9900012    2    1    2    0    0 -0.25234320868E+02  0.35106803559E+02 -0.37899849382E+01  0.47787278904E+02  0.20000035835E+02 0.  0.
        -12    1    1    2    0    0  0.25234320868E+02 -0.35106803559E+02  0.37899849382E+01  0.43400721096E+02  0.00000000000E+00 0.  1.
         11    1    3    3    0    0 -0.10780181243E+01  0.24410409979E+01  0.37610690133E+01  0.46115555525E+01  0.51100000000E-03 0. -1.
        -11    1    3    3    0    0  0.14564020189E+01  0.28262179290E+01 -0.76415272800E+00  0.32699456074E+01  0.51100000000E-03 0.  1.
         12    1    3    3    0    0 -0.25612704763E+02  0.29839544632E+02 -0.67869012235E+01  0.39905777744E+02  0.00000000000E+00 0. -1.
</event>
<event>
 7    1  0.2834226E-010  0.4778726E+02  0.7816164E-02  0.1312668E+00
        -11   -1    0    0    0    0  0.00000000000E+00  0.00000000000E+00  0.45593999997E+02  0.45594000000E+02  0.51100000000E-03 0.  1.
         11   -1    0    0    0    0 -0.00000000000E+00 -0.00000000000E+00 -0.45593999997E+02  0.45594000000E+02  0.51100000000E-03 0. -1.
    9900012    2    1    2    0    0 -0.20412119620E+02  0.34407151132E+02 -0.16826104456E+02  0.47787257292E+02  0.19999937299E+02 0.  0.
        -12    1    1    2    0    0  0.20412119620E+02 -0.34407151132E+02  0.16826104456E+02  0.43400742708E+02  0.00000000000E+00 0.  1.
         11    1    3    3    0    0 -0.18989779815E+02  0.25199553559E+02 -0.15790935621E+02  0.35284315000E+02  0.51100000000E-03 0. -1.
        -11    1    3    3    0    0  0.26987281018E+01  0.46545828605E+01 -0.28642191640E+01  0.60952462340E+01  0.51100000000E-03 0.  1.
         12    1    3    3    0    0 -0.41210679070E+01  0.45530147124E+01  0.18290503289E+01  0.64076960580E+01  0.00000000000E+00 0. -1.
</event>
<event>
 7    1  0.2834226E-010  0.4778726E+02  0.7816164E-02  0.1312668E+00
        -11   -1    0    0    0    0  0.00000000000E+00  0.00000000000E+00  0.45593999997E+02  0.45594000000E+02  0.51100000000E-03 0. -1.
         11   -1    0    0    0    0 -0.00000000000E+00 -0.00000000000E+00 -0.45593999997E+02  0.45594000000E+02  0.51100000000E-03 0.  1.
    9900012    2    1    2    0    0  0.38656349564E+02 -0.98257759592E+01 -0.17110378456E+02  0.47787259388E+02  0.19999946852E+02 0.  0.
        -12    1    1    2    0    0 -0.38656349564E+02  0.98257759592E+01  0.17110378456E+02  0.43400740612E+02  0.00000000000E+00 0.  1.
         11    1    3    3    0    0  0.26767957729E+02 -0.62437197900E-01 -0.86987213217E+01  0.28145962629E+02  0.51100000000E-03 0. -1.
        -11    1    3    3    0    0  0.64241884725E+01 -0.53999842320E+01 -0.93751161742E+01  0.12582640056E+02  0.51100000000E-03 0.  1.
         12    1    3    3    0    0  0.54642033621E+01 -0.43633545293E+01  0.96345903995E+00  0.70586567031E+01  0.00000000000E+00 0. -1.
</event>
<event>
 7    1  0.2834226E-010  0.4778727E+02  0.7816164E-02  0.1312668E+00
        -11   -1    0    0    0    0  0.00000000000E+00  0.00000000000E+00  0.45593999997E+02  0.45594000000E+02  0.51100000000E-03 0.  1.
         11   -1    0    0    0    0 -0.00000000000E+00 -0.00000000000E+00 -0.45593999997E+02  0.45594000000E+02  0.51100000000E-03 0. -1.
    9900012    2    1    2    0    0  0.71544644293E+01 -0.24253616486E+02 -0.35273201232E+02  0.47787274210E+02  0.20000014434E+02 0.  0.
        -12    1    1    2    0    0 -0.71544644293E+01  0.24253616486E+02  0.35273201232E+02  0.43400725790E+02  0.00000000000E+00 0.  1.
         11    1    3    3    0    0  0.36617214950E+00  0.37087506111E+00 -0.10982206858E+02  0.10994566753E+02  0.51100000000E-03 0. -1.
        -11    1    3    3    0    0  0.65638377553E+01 -0.90454928372E+01 -0.57307669605E+01  0.12559721214E+02  0.51100000000E-03 0.  1.
         12    1    3    3    0    0  0.22445452450E+00 -0.15578998710E+02 -0.18560227414E+02  0.24232986244E+02  0.00000000000E+00 0. -1.
</event>
<event>
 7    1  0.2834226E-010  0.4778727E+02  0.7816164E-02  0.1312668E+00
        -11   -1    0    0    0    0  0.00000000000E+00  0.00000000000E+00  0.45593999997E+02  0.45594000000E+02  0.51100000000E-03 0. -1.
         11   -1    0    0    0    0 -0.00000000000E+00 -0.00000000000E+00 -0.45593999997E+02  0.45594000000E+02  0.51100000000E-03 0.  1.
    9900012    2    1    2    0    0  0.26284493615E+02  0.89638143207E+01  0.33352644079E+02  0.47787269144E+02  0.19999991337E+02 0.  0.
        -12    1    1    2    0    0 -0.26284493615E+02 -0.89638143207E+01 -0.33352644079E+02  0.43400730856E+02  0.00000000000E+00 0.  1.
         11    1    3    3    0    0  0.89772213458E+01  0.31026053327E+01  0.23748648051E+02  0.25577625915E+02  0.51100000000E-03 0. -1.
        -11    1    3    3    0    0  0.82221047845E+01  0.67383626334E+01  0.33526775956E+01  0.11146702893E+02  0.51100000000E-03 0.  1.
        -12    1    3    3    0    0  0.90851674844E+01 -0.87715364547E+00  0.62513184319E+01  0.11062940336E+02  0.00000000000E+00 0.  1.
</event>
<event>
 7    1  0.2834226E-010  0.4778727E+02  0.7816164E-02  0.1312668E+00
        -11   -1    0    0    0    0  0.00000000000E+00  0.00000000000E+00  0.45593999997E+02  0.45594000000E+02  0.51100000000E-03 0. -1.
         11   -1    0    0    0    0 -0.00000000000E+00 -0.00000000000E+00 -0.45593999997E+02  0.45594000000E+02  0.51100000000E-03 0.  1.
    9900012    2    1    2    0    0  0.35499143866E+02  0.23033503848E+02  0.96380332427E+01  0.47787271901E+02  0.20000003905E+02 0.  0.
        -12    1    1    2    0    0 -0.35499143866E+02 -0.23033503848E+02 -0.96380332427E+01  0.43400728099E+02  0.00000000000E+00 0.  1.
         11    1    3    3    0    0  0.29016756991E+02  0.10516730296E+02  0.49259150205E+01  0.31254414752E+02  0.51100000000E-03 0. -1.
        -11    1    3    3    0    0  0.12050159130E+01  0.69360305241E+01 -0.79076939000E+00  0.70842006797E+01  0.51100000000E-03 0.  1.
         12    1    3    3    0    0  0.52773709617E+01  0.55807430274E+01  0.55028876123E+01  0.94486564695E+01  0.00000000000E+00 0. -1.
</event>
<event>
 7    1  0.2834226E-010  0.4778727E+02  0.7816164E-02  0.1312668E+00
        -11   -1    0    0    0    0  0.00000000000E+00  0.00000000000E+00  0.45593999997E+02  0.45594000000E+02  0.51100000000E-03 0.  1.
         11   -1    0    0    0    0 -0.00000000000E+00 -0.00000000000E+00 -0.45593999997E+02  0.45594000000E+02  0.51100000000E-03 0. -1.
    9900012    2    1    2    0    0 -0.16871463137E+02  0.38521558718E+02  0.10726908147E+02  0.47787270595E+02  0.19999997952E+02 0.  0.
        -12    1    1    2    0    0  0.16871463137E+02 -0.38521558718E+02 -0.10726908147E+02  0.43400729405E+02  0.00000000000E+00 0.  1.
         11    1    3    3    0    0  0.69067882885E+00  0.38019225204E+01 -0.41893184208E+01  0.56993018158E+01  0.51100000000E-03 0.  1.
        -11    1    3    3    0    0 -0.12794227914E+02  0.26179106030E+02  0.13807165663E+02  0.32244002300E+02  0.51100000000E-03 0. -1.
         12    1    3    3    0    0 -0.47679140514E+01  0.85405301680E+01  0.11090609051E+01  0.98439664792E+01  0.00000000000E+00 0. -1.
</event>
<event>
 7    1  0.2834226E-010  0.4778728E+02  0.7816164E-02  0.1312668E+00
        -11   -1    0    0    0    0  0.00000000000E+00  0.00000000000E+00  0.45593999997E+02  0.45594000000E+02  0.51100000000E-03 0. -1.
         11   -1    0    0    0    0 -0.00000000000E+00 -0.00000000000E+00 -0.45593999997E+02  0.45594000000E+02  0.51100000000E-03 0.  1.
    9900012    2    1    2    0    0 -0.42056804726E+02 -0.94347490673E+01 -0.50826023411E+01  0.47787283873E+02  0.20000058492E+02 0.  0.
        -12    1    1    2    0    0  0.42056804726E+02  0.94347490673E+01  0.50826023411E+01  0.43400716127E+02  0.00000000000E+00 0.  1.
         11    1    3    3    0    0 -0.30478052433E+02 -0.11162680620E+02 -0.47325125082E+01  0.32801124884E+02  0.51100000000E-03 0. -1.
        -11    1    3    3    0    0  0.12726360737E+01 -0.11019399290E+01 -0.69777835062E+00  0.18222977449E+01  0.51100000000E-03 0.  1.
         12    1    3    3    0    0 -0.12851388367E+02  0.28298714820E+01  0.34768851773E+00  0.13163861245E+02  0.00000000000E+00 0. -1.
</event>
<event>
 7    1  0.2834226E-010  0.4778727E+02  0.7816164E-02  0.1312668E+00
        -11   -1    0    0    0    0  0.00000000000E+00  0.00000000000E+00  0.45593999997E+02  0.45594000000E+02  0.51100000000E-03 0. -1.
         11   -1    0    0    0    0 -0.00000000000E+00 -0.00000000000E+00 -0.45593999997E+02  0.45594000000E+02  0.51100000000E-03 0.  1.
    9900012    2    1    2    0    0 -0.36551528876E+02  0.37246371527E+01  0.23102728521E+02  0.47787271317E+02  0.20000001244E+02 0.  0.
        -12    1    1    2    0    0  0.36551528876E+02 -0.37246371527E+01 -0.23102728521E+02  0.43400728683E+02  0.00000000000E+00 0.  1.
         11    1    3    3    0    0 -0.23703189823E+02  0.72376761155E+01  0.21064904540E+02  0.32526225832E+02  0.51100000000E-03 0. -1.
        -11    1    3    3    0    0 -0.26728081890E+01 -0.40387925854E+01  0.14477387717E+01  0.50548686408E+01  0.51100000000E-03 0.  1.
         12    1    3    3    0    0 -0.10175530863E+02  0.52575362263E+00  0.59008520919E+00  0.10206176844E+02  0.00000000000E+00 0. -1.
</event>
<event>
 7    1  0.2834226E-010  0.4778727E+02  0.7816164E-02  0.1312668E+00
        -11   -1    0    0    0    0  0.00000000000E+00  0.00000000000E+00  0.45593999997E+02  0.45594000000E+02  0.51100000000E-03 0.  1.
         11   -1    0    0    0    0 -0.00000000000E+00 -0.00000000000E+00 -0.45593999997E+02  0.45594000000E+02  0.51100000000E-03 0. -1.
    9900012    2    1    2    0    0 -0.76026411887E+01  0.38365324678E+02 -0.18812894177E+02  0.47787270997E+02  0.19999999784E+02 0.  0.
        -12    1    1    2    0    0  0.76026411887E+01 -0.38365324678E+02  0.18812894177E+02  0.43400729003E+02  0.00000000000E+00 0.  1.
         11    1    3    3    0    0 -0.42064427288E+01  0.36060736981E+01 -0.89568935634E+01  0.10532040188E+02  0.51100000000E-03 0. -1.
        -11    1    3    3    0    0  0.23489125106E+01  0.17756579131E+02 -0.37647493675E+01  0.18302645450E+02  0.51100000000E-03 0.  1.
         12    1    3    3    0    0 -0.57451109705E+01  0.17002671849E+02 -0.60912512458E+01  0.18952585360E+02  0.00000000000E+00 0. -1.
</event>
<event>
 7    1  0.2834226E-010  0.4778727E+02  0.7816164E-02  0.1312668E+00
        -11   -1    0    0    0    0  0.00000000000E+00  0.00000000000E+00  0.45593999997E+02  0.45594000000E+02  0.51100000000E-03 0.  1.
         11   -1    0    0    0    0 -0.00000000000E+00 -0.00000000000E+00 -0.45593999997E+02  0.45594000000E+02  0.51100000000E-03 0. -1.
    9900012    2    1    2    0    0  0.12056836220E+02 -0.33607993349E+02 -0.24673035445E+02  0.47787271957E+02  0.20000004162E+02 0.  0.
        -12    1    1    2    0    0 -0.12056836220E+02  0.33607993349E+02  0.24673035445E+02  0.43400728043E+02  0.00000000000E+00 0.  1.
         11    1    3    3    0    0 -0.63488975288E+00 -0.10084677330E+02 -0.15985515089E+02  0.18911385321E+02  0.51100000000E-03 0. -1.
        -11    1    3    3    0    0  0.13105711269E+02 -0.22192141102E+02 -0.92357368639E+01  0.27377904051E+02  0.51100000000E-03 0.  1.
        -12    1    3    3    0    0 -0.41398529657E+00 -0.13311749175E+01  0.54821650747E+00  0.14979825852E+01  0.00000000000E+00 0.  1.
</event>
<event>
 7    1  0.2834226E-010  0.4778727E+02  0.7816164E-02  0.1312668E+00
        -11   -1    0    0    0    0  0.00000000000E+00  0.00000000000E+00  0.45593999997E+02  0.45594000000E+02  0.51100000000E-03 0.  1.
         11   -1    0    0    0    0 -0.00000000000E+00 -0.00000000000E+00 -0.45593999997E+02  0.45594000000E+02  0.51100000000E-03 0. -1.
    9900012    2    1    2    0    0 -0.38498966564E+02  0.26270767255E+01  0.19863309436E+02  0.47787273965E+02  0.20000013317E+02 0.  0.
        -12    1    1    2    0    0  0.38498966564E+02 -0.26270767255E+01 -0.19863309436E+02  0.43400726035E+02  0.00000000000E+00 0.  1.
         11    1    3    3    0    0 -0.23851295074E+02  0.66079074069E+01  0.11094442695E+02  0.27122598990E+02  0.51100000000E-03 0. -1.
        -11    1    3    3    0    0 -0.72139644339E+01 -0.72616104097E+01  0.68476882035E+01  0.12315157433E+02  0.51100000000E-03 0.  1.
        -12    1    3    3    0    0 -0.74337070560E+01  0.32807797283E+01  0.19211785373E+01  0.83495175425E+01  0.00000000000E+00 0.  1.
</event>
<event>
 7    1  0.2834226E-010  0.4778727E+02  0.7816164E-02  0.1312668E+00
        -11   -1    0    0    0    0  0.00000000000E+00  0.00000000000E+00  0.45593999997E+02  0.45594000000E+02  0.51100000000E-03 0. -1.
         11   -1    0    0    0    0 -0.00000000000E+00 -0.00000000000E+00 -0.45593999997E+02  0.45594000000E+02  0.51100000000E-03 0.  1.
    9900012    2    1    2    0    0 -0.18511331356E+02  0.23241303227E+02  0.31635358471E+02  0.47787268787E+02  0.19999989707E+02 0.  0.
        -12    1    1    2    0    0  0.18511331356E+02 -0.23241303227E+02 -0.31635358471E+02  0.43400731213E+02  0.00000000000E+00 0.  1.
         11    1    3    3    0    0 -0.63175604467E+01  0.19753143614E+02  0.15267577639E+02  0.25752615010E+02  0.51100000000E-03 0. -1.
        -11    1    3    3    0    0 -0.12715240447E+02  0.32721687274E+01  0.16801301889E+02  0.21322949450E+02  0.51100000000E-03 0.  1.
         12    1    3    3    0    0  0.52146953800E+00  0.21599088550E+00 -0.43352105735E+00  0.71170432684E+00  0.00000000000E+00 0. -1.
</event>
<event>
 7    1  0.2834226E-010  0.4778727E+02  0.7816164E-02  0.1312668E+00
        -11   -1    0    0    0    0  0.00000000000E+00  0.00000000000E+00  0.45593999997E+02  0.45594000000E+02  0.51100000000E-03 0.  1.
         11   -1    0    0    0    0 -0.00000000000E+00 -0.00000000000E+00 -0.45593999997E+02  0.45594000000E+02  0.51100000000E-03 0. -1.
    9900012    2    1    2    0    0 -0.80061570706E+01 -0.22618939290E+02 -0.36165017607E+02  0.47787268852E+02  0.19999990003E+02 0.  0.
        -12    1    1    2    0    0  0.80061570706E+01  0.22618939290E+02  0.36165017607E+02  0.43400731148E+02  0.00000000000E+00 0.  1.
         11    1    3    3    0    0 -0.20280137827E+01 -0.11040198414E+02 -0.21481530196E+02  0.24237470180E+02  0.51100000000E-03 0. -1.
        -11    1    3    3    0    0 -0.77272808948E+01 -0.13072847493E+01 -0.48100412596E+01  0.91954532581E+01  0.51100000000E-03 0.  1.
        -12    1    3    3    0    0  0.17491376068E+01 -0.10271456127E+02 -0.98734461521E+01  0.14354345414E+02  0.00000000000E+00 0.  1.
</event>
<event>
 7    1  0.2834226E-010  0.4778727E+02  0.7816164E-02  0.1312668E+00
        -11   -1    0    0    0    0  0.00000000000E+00  0.00000000000E+00  0.45593999997E+02  0.45594000000E+02  0.51100000000E-03 0.  1.
         11   -1    0    0    0    0 -0.00000000000E+00 -0.00000000000E+00 -0.45593999997E+02  0.45594000000E+02  0.51100000000E-03 0. -1.
    9900012    2    1    2    0    0  0.11488938037E+02 -0.34919194777E+02  0.23071138441E+02  0.47787270858E+02  0.19999999151E+02 0.  0.
        -12    1    1    2    0    0 -0.11488938037E+02  0.34919194777E+02 -0.23071138441E+02  0.43400729142E+02  0.00000000000E+00 0.  1.
         11    1    3    3    0    0  0.11726399874E+02 -0.17126230379E+02  0.19378030946E+02  0.28395850130E+02  0.51100000000E-03 0. -1.
        -11    1    3    3    0    0  0.52450128949E+00 -0.12934570756E+02 -0.46178011646E+00  0.12953434424E+02  0.51100000000E-03 0.  1.
        -12    1    3    3    0    0 -0.76196312661E+00 -0.48583936419E+01  0.41548876116E+01  0.64379863040E+01  0.00000000000E+00 0.  1.
</event>
<event>
 7    1  0.2834226E-010  0.4778727E+02  0.7816164E-02  0.1312668E+00
        -11   -1    0    0    0    0  0.00000000000E+00  0.00000000000E+00  0.45593999997E+02  0.45594000000E+02  0.51100000000E-03 0.  1.
         11   -1    0    0    0    0 -0.00000000000E+00 -0.00000000000E+00 -0.45593999997E+02  0.45594000000E+02  0.51100000000E-03 0. -1.
    9900012    2    1    2    0    0  0.31903819254E+02 -0.23023780806E+02 -0.18321434423E+02  0.47787272761E+02  0.20000007826E+02 0.  0.
        -12    1    1    2    0    0 -0.31903819254E+02  0.23023780806E+02  0.18321434423E+02  0.43400727239E+02  0.00000000000E+00 0.  1.
         11    1    3    3    0    0  0.22067752424E+02 -0.21596043079E+02 -0.13892443228E+02  0.33858156371E+02  0.51100000000E-03 0. -1.
        -11    1    3    3    0    0  0.65298239565E+01 -0.34215919931E+01  0.81525793313E+00  0.74169089538E+01  0.51100000000E-03 0.  1.
         12    1    3    3    0    0  0.33062428726E+01  0.19938542665E+01 -0.52442491281E+01  0.65122074358E+01  0.00000000000E+00 0. -1.
</event>
<event>
 7    1  0.2834226E-010  0.4778727E+02  0.7816164E-02  0.1312668E+00
        -11   -1    0    0    0    0  0.00000000000E+00  0.00000000000E+00  0.45593999997E+02  0.45594000000E+02  0.51100000000E-03 0. -1.
         11   -1    0    0    0    0 -0.00000000000E+00 -0.00000000000E+00 -0.45593999997E+02  0.45594000000E+02  0.51100000000E-03 0.  1.
    9900012    2    1    2    0    0  0.31437331826E+02 -0.17352480146E+02  0.24376397908E+02  0.47787272189E+02  0.20000005217E+02 0.  0.
        -12    1    1    2    0    0 -0.31437331826E+02  0.17352480146E+02 -0.24376397908E+02  0.43400727811E+02  0.00000000000E+00 0.  1.
         11    1    3    3    0    0  0.23501784549E+02 -0.16410415181E+02  0.14634618422E+02  0.32183965884E+02  0.51100000000E-03 0. -1.
        -11    1    3    3    0    0  0.64772788720E+01  0.35320750246E+01  0.49322501006E+01  0.88745584048E+01  0.51100000000E-03 0.  1.
         12    1    3    3    0    0  0.14582684054E+01 -0.44741399897E+01  0.48095293855E+01  0.67287478998E+01  0.00000000000E+00 0. -1.
</event>
<event>
 7    1  0.2834226E-010  0.4778727E+02  0.7816164E-02  0.1312668E+00
        -11   -1    0    0    0    0  0.00000000000E+00  0.00000000000E+00  0.45593999997E+02  0.45594000000E+02  0.51100000000E-03 0. -1.
         11   -1    0    0    0    0 -0.00000000000E+00 -0.00000000000E+00 -0.45593999997E+02  0.45594000000E+02  0.51100000000E-03 0.  1.
    9900012    2    1    2    0    0  0.57858574367E+01  0.14601851262E+02  0.40459027367E+02  0.47787273024E+02  0.20000009024E+02 0.  0.
        -12    1    1    2    0    0 -0.57858574367E+01 -0.14601851262E+02 -0.40459027367E+02  0.43400726976E+02  0.00000000000E+00 0.  1.
         11    1    3    3    0    0 -0.58214669116E+01  0.26652252136E+01  0.12736534808E+02  0.14255252422E+02  0.51100000000E-03 0. -1.
        -11    1    3    3    0    0  0.26815705888E+01 -0.10671546252E+01  0.26922297156E+01  0.39468646948E+01  0.51100000000E-03 0.  1.
         12    1    3    3    0    0  0.89257537595E+01  0.13003780674E+02  0.25030262844E+02  0.29585155907E+02  0.00000000000E+00 0. -1.
</event>
<event>
 7    1  0.2834226E-010  0.4778727E+02  0.7816164E-02  0.1312668E+00
        -11   -1    0    0    0    0  0.00000000000E+00  0.00000000000E+00  0.45593999997E+02  0.45594000000E+02  0.51100000000E-03 0.  1.
         11   -1    0    0    0    0 -0.00000000000E+00 -0.00000000000E+00 -0.45593999997E+02  0.45594000000E+02  0.51100000000E-03 0. -1.
    9900012    2    1    2    0    0  0.39300994999E+01 -0.33509533881E+02 -0.27299974410E+02  0.47787272520E+02  0.20000006729E+02 0.  0.
        -12    1    1    2    0    0 -0.39300994999E+01  0.33509533881E+02  0.27299974410E+02  0.43400727480E+02  0.00000000000E+00 0.  1.
         11    1    3    3    0    0 -0.29767876702E+01 -0.21048542610E+02 -0.10760050373E+02  0.23826059161E+02  0.51100000000E-03 0.  1.
        -11    1    3    3    0    0  0.63762818724E+01 -0.14013238508E+02 -0.16070173865E+02  0.22254849186E+02  0.51100000000E-03 0. -1.
         12    1    3    3    0    0  0.53060529764E+00  0.15522472373E+01 -0.46975017236E+00  0.17063641734E+01  0.00000000000E+00 0. -1.
</event>
<event>
 7    1  0.2834226E-010  0.4778727E+02  0.7816164E-02  0.1312668E+00
        -11   -1    0    0    0    0  0.00000000000E+00  0.00000000000E+00  0.45593999997E+02  0.45594000000E+02  0.51100000000E-03 0.  1.
         11   -1    0    0    0    0 -0.00000000000E+00 -0.00000000000E+00 -0.45593999997E+02  0.45594000000E+02  0.51100000000E-03 0. -1.
    9900012    2    1    2    0    0  0.51500520362E+00 -0.43378693937E+02 -0.12833518254E+01  0.47787270629E+02  0.19999998104E+02 0.  0.
        -12    1    1    2    0    0 -0.51500520362E+00  0.43378693937E+02  0.12833518254E+01  0.43400729371E+02  0.00000000000E+00 0.  1.
         11    1    3    3    0    0  0.27790608182E+01 -0.19428332853E+02 -0.30653622824E+01  0.19864031380E+02  0.51100000000E-03 0. -1.
        -11    1    3    3    0    0 -0.57154184591E+01 -0.11719839627E+02 -0.44390038410E+01  0.13774084521E+02  0.51100000000E-03 0.  1.
        -12    1    3    3    0    0  0.34513628446E+01 -0.12230521458E+02  0.62210142980E+01  0.14149154728E+02  0.00000000000E+00 0.  1.
</event>
<event>
 7    1  0.2834226E-010  0.4778728E+02  0.7816164E-02  0.1312668E+00
        -11   -1    0    0    0    0  0.00000000000E+00  0.00000000000E+00  0.45593999997E+02  0.45594000000E+02  0.51100000000E-03 0.  1.
         11   -1    0    0    0    0 -0.00000000000E+00 -0.00000000000E+00 -0.45593999997E+02  0.45594000000E+02  0.51100000000E-03 0. -1.
    9900012    2    1    2    0    0 -0.12105680648E+02 -0.99614884762E+01 -0.40470283712E+02  0.47787278574E+02  0.20000034330E+02 0.  0.
        -12    1    1    2    0    0  0.12105680648E+02  0.99614884762E+01  0.40470283712E+02  0.43400721426E+02  0.00000000000E+00 0.  1.
         11    1    3    3    0    0 -0.16026358673E+02 -0.85758707469E+01 -0.25720980419E+02  0.31495373714E+02  0.51100000000E-03 0. -1.
        -11    1    3    3    0    0  0.35087836239E+01  0.77580367323E+00 -0.42550343051E+01  0.55694480029E+01  0.51100000000E-03 0.  1.
        -12    1    3    3    0    0  0.41189440175E+00 -0.21614214025E+01 -0.10494268987E+02  0.10722456857E+02  0.00000000000E+00 0.  1.
</event>
<event>
 7    1  0.2834226E-010  0.4778727E+02  0.7816164E-02  0.1312668E+00
        -11   -1    0    0    0    0  0.00000000000E+00  0.00000000000E+00  0.45593999997E+02  0.45594000000E+02  0.51100000000E-03 0.  1.
         11   -1    0    0    0    0 -0.00000000000E+00 -0.00000000000E+00 -0.45593999997E+02  0.45594000000E+02  0.51100000000E-03 0. -1.
    9900012    2    1    2    0    0  0.20876812816E+02  0.22012068826E+02 -0.31036280054E+02  0.47787272276E+02  0.20000005615E+02 0.  0.
        -12    1    1    2    0    0 -0.20876812816E+02 -0.22012068826E+02  0.31036280054E+02  0.43400727724E+02  0.00000000000E+00 0.  1.
         11    1    3    3    0    0  0.12402343622E+02  0.18556621118E+02 -0.10957782334E+02  0.24864418525E+02  0.51100000000E-03 0. -1.
        -11    1    3    3    0    0  0.14655375943E+01  0.37499901418E+00 -0.10745385900E+02  0.10851347525E+02  0.51100000000E-03 0.  1.
         12    1    3    3    0    0  0.70089315992E+01  0.30804486942E+01 -0.93331118201E+01  0.12071506226E+02  0.00000000000E+00 0. -1.
</event>
<event>
 7    1  0.2834226E-010  0.4778727E+02  0.7816164E-02  0.1312668E+00
        -11   -1    0    0    0    0  0.00000000000E+00  0.00000000000E+00  0.45593999997E+02  0.45594000000E+02  0.51100000000E-03 0.  1.
         11   -1    0    0    0    0 -0.00000000000E+00 -0.00000000000E+00 -0.45593999997E+02  0.45594000000E+02  0.51100000000E-03 0. -1.
    9900012    2    1    2    0    0  0.16790037545E+02 -0.24765640582E+02 -0.31438523594E+02  0.47787273279E+02  0.20000010186E+02 0.  0.
        -12    1    1    2    0    0 -0.16790037545E+02  0.24765640582E+02  0.31438523594E+02  0.43400726721E+02  0.00000000000E+00 0.  1.
         11    1    3    3    0    0  0.24107906601E+01  0.28554688897E+01 -0.77778040301E+01  0.86290121091E+01  0.51100000000E-03 0. -1.
        -11    1    3    3    0    0  0.80012831940E+01 -0.15626191841E+02 -0.12120470266E+02  0.21333171446E+02  0.51100000000E-03 0.  1.
         12    1    3    3    0    0  0.63779636910E+01 -0.11994917631E+02 -0.11540249297E+02  0.17825089724E+02  0.00000000000E+00 0. -1.
</event>
<event>
 7    1  0.2834226E-010  0.4778727E+02  0.7816164E-02  0.1312668E+00
        -11   -1    0    0    0    0  0.00000000000E+00  0.00000000000E+00  0.45593999997E+02  0.45594000000E+02  0.51100000000E-03 0.  1.
         11   -1    0    0    0    0 -0.00000000000E+00 -0.00000000000E+00 -0.45593999997E+02  0.45594000000E+02  0.51100000000E-03 0. -1.
    9900012    2    1    2    0    0 -0.26051615728E+02 -0.11170017805E+02 -0.32865904441E+02  0.47787266659E+02  0.19999980003E+02 0.  0.
        -12    1    1    2    0    0  0.26051615728E+02  0.11170017805E+02  0.32865904441E+02  0.43400733341E+02  0.00000000000E+00 0.  1.
         11    1    3    3    0    0 -0.15293922502E+02 -0.97285356020E+01 -0.10371673542E+02  0.20883488281E+02  0.51100000000E-03 0. -1.
        -11    1    3    3    0    0 -0.42844228649E+01 -0.38914708823E+01 -0.17321771774E+02  0.18263176136E+02  0.51100000000E-03 0.  1.
        -12    1    3    3    0    0 -0.64732703613E+01  0.24499886790E+01 -0.51724591248E+01  0.86406022415E+01  0.00000000000E+00 0.  1.
</event>
<event>
 7    1  0.2834226E-010  0.4778727E+02  0.7816164E-02  0.1312668E+00
        -11   -1    0    0    0    0  0.00000000000E+00  0.00000000000E+00  0.45593999997E+02  0.45594000000E+02  0.51100000000E-03 0. -1.
         11   -1    0    0    0    0 -0.00000000000E+00 -0.00000000000E+00 -0.45593999997E+02  0.45594000000E+02  0.51100000000E-03 0.  1.
    9900012    2    1    2    0    0  0.25694098459E+00  0.20240244235E+02  0.38391273964E+02  0.47787269339E+02  0.19999992224E+02 0.  0.
        -12    1    1    2    0    0 -0.25694098459E+00 -0.20240244235E+02 -0.38391273964E+02  0.43400730661E+02  0.00000000000E+00 0.  1.
         11    1    3    3    0    0  0.47822470303E+01  0.11978467415E+02  0.10580835512E+02  0.16682555220E+02  0.51100000000E-03 0. -1.
        -11    1    3    3    0    0 -0.12034728875E+01 -0.23712202623E+01  0.38237723477E+01  0.46574958671E+01  0.51100000000E-03 0.  1.
         12    1    3    3    0    0 -0.33218331582E+01  0.10632997082E+02  0.23986666104E+02  0.26447218252E+02  0.00000000000E+00 0. -1.
</event>
<event>
 7    1  0.2834226E-010  0.4778727E+02  0.7816164E-02  0.1312668E+00
        -11   -1    0    0    0    0  0.00000000000E+00  0.00000000000E+00  0.45593999997E+02  0.45594000000E+02  0.51100000000E-03 0.  1.
         11   -1    0    0    0    0 -0.00000000000E+00 -0.00000000000E+00 -0.45593999997E+02  0.45594000000E+02  0.51100000000E-03 0. -1.
    9900012    2    1    2    0    0  0.72710687302E+01 -0.37592875071E+02 -0.20433563277E+02  0.47787271841E+02  0.20000003631E+02 0.  0.
        -12    1    1    2    0    0 -0.72710687302E+01  0.37592875071E+02  0.20433563277E+02  0.43400728159E+02  0.00000000000E+00 0.  1.
         11    1    3    3    0    0  0.37241229074E+01 -0.51321355173E+01 -0.11793397754E+02  0.13390001391E+02  0.51100000000E-03 0.  1.
        -11    1    3    3    0    0  0.25568383166E+01 -0.17273112117E+02 -0.13272808483E+01  0.17511696066E+02  0.51100000000E-03 0. -1.
         12    1    3    3    0    0  0.99010750621E+00 -0.15187627436E+02 -0.73128846739E+01  0.16885574384E+02  0.00000000000E+00 0. -1.
</event>
<event>
 7    1  0.2834226E-010  0.4778727E+02  0.7816164E-02  0.1312668E+00
        -11   -1    0    0    0    0  0.00000000000E+00  0.00000000000E+00  0.45593999997E+02  0.45594000000E+02  0.51100000000E-03 0. -1.
         11   -1    0    0    0    0 -0.00000000000E+00 -0.00000000000E+00 -0.45593999997E+02  0.45594000000E+02  0.51100000000E-03 0.  1.
    9900012    2    1    2    0    0 -0.30950910890E+02 -0.26701070528E+02  0.14584820760E+02  0.47787273637E+02  0.20000011820E+02 0.  0.
        -12    1    1    2    0    0  0.30950910890E+02  0.26701070528E+02 -0.14584820760E+02  0.43400726363E+02  0.00000000000E+00 0.  1.
         11    1    3    3    0    0 -0.12184433106E+02 -0.18270418574E+02  0.11307541899E+02  0.24700791668E+02  0.51100000000E-03 0. -1.
        -11    1    3    3    0    0 -0.19886235800E+02 -0.72675692673E+01  0.34889525276E+01  0.21458162254E+02  0.51100000000E-03 0.  1.
        -12    1    3    3    0    0  0.11197580157E+01 -0.11630826872E+01 -0.21167366735E+00  0.16283197144E+01  0.00000000000E+00 0.  1.
</event>
<event>
 7    1  0.2834226E-010  0.4778722E+02  0.7816164E-02  0.1312668E+00
        -11   -1    0    0    0    0  0.00000000000E+00  0.00000000000E+00  0.45593999997E+02  0.45594000000E+02  0.51100000000E-03 0. -1.
         11   -1    0    0    0    0 -0.00000000000E+00 -0.00000000000E+00 -0.45593999997E+02  0.45594000000E+02  0.51100000000E-03 0.  1.
    9900012    2    1    2    0    0  0.43296052347E+01  0.12766143920E+02  0.41254180471E+02  0.47787224449E+02  0.19999787552E+02 0.  0.
        -12    1    1    2    0    0 -0.43296052347E+01 -0.12766143920E+02 -0.41254180471E+02  0.43400775551E+02  0.00000000000E+00 0.  1.
         11    1    3    3    0    0 -0.71808299727E+01  0.87136289184E+01  0.23524889185E+02  0.26094291703E+02  0.51100000000E-03 0. -1.
        -11    1    3    3    0    0  0.73604407057E+01  0.25816992968E+01  0.89538106147E+01  0.11874846670E+02  0.51100000000E-03 0.  1.
         12    1    3    3    0    0  0.41499945018E+01  0.14708157052E+01  0.87754806711E+01  0.98180860768E+01  0.00000000000E+00 0. -1.
</event>
<event>
 7    1  0.2834226E-010  0.4778727E+02  0.7816164E-02  0.1312668E+00
        -11   -1    0    0    0    0  0.00000000000E+00  0.00000000000E+00  0.45593999997E+02  0.45594000000E+02  0.51100000000E-03 0.  1.
         11   -1    0    0    0    0 -0.00000000000E+00 -0.00000000000E+00 -0.45593999997E+02  0.45594000000E+02  0.51100000000E-03 0. -1.
    9900012    2    1    2    0    0 -0.24280860057E+02  0.31567608467E+02 -0.17249618640E+02  0.47787269446E+02  0.19999992710E+02 0.  0.
        -12    1    1    2    0    0  0.24280860057E+02 -0.31567608467E+02  0.17249618640E+02  0.43400730554E+02  0.00000000000E+00 0.  1.
         11    1    3    3    0    0 -0.55822488056E+01  0.66398316905E+01 -0.27336077394E+01  0.90951348610E+01  0.51100000000E-03 0. -1.
        -11    1    3    3    0    0  0.13123143233E+01  0.57469352575E+01  0.22355538132E+01  0.63045328812E+01  0.51100000000E-03 0.  1.
        -12    1    3    3    0    0 -0.20010925575E+02  0.19180841519E+02 -0.16751564714E+02  0.32387601703E+02  0.00000000000E+00 0.  1.
</event>
<event>
 7    1  0.2834226E-010  0.4778727E+02  0.7816164E-02  0.1312668E+00
        -11   -1    0    0    0    0  0.00000000000E+00  0.00000000000E+00  0.45593999997E+02  0.45594000000E+02  0.51100000000E-03 0.  1.
         11   -1    0    0    0    0 -0.00000000000E+00 -0.00000000000E+00 -0.45593999997E+02  0.45594000000E+02  0.51100000000E-03 0. -1.
    9900012    2    1    2    0    0  0.35780053121E+02 -0.22965476071E+02 -0.87176841634E+01  0.47787270632E+02  0.19999998121E+02 0.  0.
        -12    1    1    2    0    0 -0.35780053121E+02  0.22965476071E+02  0.87176841634E+01  0.43400729368E+02  0.00000000000E+00 0.  1.
         11    1    3    3    0    0  0.10580133497E+02 -0.80467479109E+01 -0.12110241616E+02  0.17981861111E+02  0.51100000000E-03 0. -1.
        -11    1    3    3    0    0  0.20963597188E+02 -0.10400845725E+02  0.30853606276E+01  0.23604437069E+02  0.51100000000E-03 0.  1.
        -12    1    3    3    0    0  0.42363224349E+01 -0.45178824349E+01  0.30719682492E+00  0.62009724526E+01  0.00000000000E+00 0.  1.
</event>
<event>
 7    1  0.2834226E-010  0.4778727E+02  0.7816164E-02  0.1312668E+00
        -11   -1    0    0    0    0  0.00000000000E+00  0.00000000000E+00  0.45593999997E+02  0.45594000000E+02  0.51100000000E-03 0.  1.
         11   -1    0    0    0    0 -0.00000000000E+00 -0.00000000000E+00 -0.45593999997E+02  0.45594000000E+02  0.51100000000E-03 0. -1.
    9900012    2    1    2    0    0 -0.15849309553E+02 -0.13492375164E+02 -0.38083833513E+02  0.47787272172E+02  0.20000005143E+02 0.  0.
        -12    1    1    2    0    0  0.15849309553E+02  0.13492375164E+02  0.38083833513E+02  0.43400727828E+02  0.00000000000E+00 0.  1.
         11    1    3    3    0    0 -0.84912244918E+01 -0.10405633480E+02 -0.85724680392E+01  0.15933151290E+02  0.51100000000E-03 0.  1.
        -11    1    3    3    0    0 -0.34120574396E+01 -0.33388838970E+01 -0.26384994499E+02  0.26813396216E+02  0.51100000000E-03 0. -1.
         12    1    3    3    0    0 -0.39460276220E+01  0.25214221279E+00 -0.31263709749E+01  0.50407246663E+01  0.00000000000E+00 0. -1.
</event>
<event>
 7    1  0.2834226E-010  0.4778727E+02  0.7816164E-02  0.1312668E+00
        -11   -1    0    0    0    0  0.00000000000E+00  0.00000000000E+00  0.45593999997E+02  0.45594000000E+02  0.51100000000E-03 0. -1.
         11   -1    0    0    0    0 -0.00000000000E+00 -0.00000000000E+00 -0.45593999997E+02  0.45594000000E+02  0.51100000000E-03 0.  1.
    9900012    2    1    2    0    0 -0.22189209151E+02 -0.32617128688E+02  0.18093800233E+02  0.47787266211E+02  0.19999977961E+02 0.  0.
        -12    1    1    2    0    0  0.22189209151E+02  0.32617128688E+02 -0.18093800233E+02  0.43400733789E+02  0.00000000000E+00 0.  1.
         11    1    3    3    0    0 -0.16146381923E+02 -0.12987297358E+02  0.61828082765E+01  0.21624122186E+02  0.51100000000E-03 0. -1.
        -11    1    3    3    0    0 -0.26815094101E+01 -0.19451065076E+02  0.85808666164E+01  0.21428151984E+02  0.51100000000E-03 0.  1.
        -12    1    3    3    0    0 -0.33613178175E+01 -0.17876625426E+00  0.33301253399E+01  0.47349920404E+01  0.00000000000E+00 0.  1.
</event>
<event>
 7    1  0.2834226E-010  0.4778723E+02  0.7816164E-02  0.1312668E+00
        -11   -1    0    0    0    0  0.00000000000E+00  0.00000000000E+00  0.45593999997E+02  0.45594000000E+02  0.51100000000E-03 0. -1.
         11   -1    0    0    0    0 -0.00000000000E+00 -0.00000000000E+00 -0.45593999997E+02  0.45594000000E+02  0.51100000000E-03 0.  1.
    9900012    2    1    2    0    0  0.70766524445E+01 -0.17967085365E+02  0.38868126561E+02  0.47787234699E+02  0.19999834287E+02 0.  0.
        -12    1    1    2    0    0 -0.70766524445E+01  0.17967085365E+02 -0.38868126561E+02  0.43400765301E+02  0.00000000000E+00 0.  1.
         11    1    3    3    0    0  0.26946839823E+01 -0.42663456861E+00 -0.87319292521E+00  0.28645776243E+01  0.51100000000E-03 0.  1.
        -11    1    3    3    0    0  0.34267733444E+01 -0.18098826653E+02  0.39756044890E+02  0.43816131816E+02  0.51100000000E-03 0. -1.
         12    1    3    3    0    0  0.95519511778E+00  0.55837585679E+00 -0.14725404040E-01  0.11065252586E+01  0.00000000000E+00 0. -1.
</event>
<event>
 7    1  0.3792104E-010  0.4778726E+02  0.7816164E-02  0.1312668E+00
        -11   -1    0    0    0    0  0.00000000000E+00  0.00000000000E+00  0.45593999997E+02  0.45594000000E+02  0.51100000000E-03 0. -1.
         11   -1    0    0    0    0 -0.00000000000E+00 -0.00000000000E+00 -0.45593999997E+02  0.45594000000E+02  0.51100000000E-03 0.  1.
    9900012    2    1    2    0    0  0.18081465800E+01 -0.26238026257E+02  0.34524206692E+02  0.47787259642E+02  0.19999948013E+02 0.  0.
        -12    1    1    2    0    0 -0.18081465800E+01  0.26238026257E+02 -0.34524206692E+02  0.43400740358E+02  0.00000000000E+00 0.  1.
         11    1    3    3    0    0  0.59545724140E+01 -0.74662689804E+01  0.20208782969E+02  0.22351666928E+02  0.51100000000E-03 0. -1.
        -11    1    3    3    0    0 -0.13290944207E+01 -0.32666873182E+01 -0.78139510629E+00  0.36122453664E+01  0.51100000000E-03 0.  1.
         12    1    3    3    0    0 -0.28173314134E+01 -0.15505069958E+02  0.15096818829E+02  0.21823347348E+02  0.00000000000E+00 0. -1.
</event>
<event>
 7    1  0.2834226E-010  0.4778727E+02  0.7816164E-02  0.1312668E+00
        -11   -1    0    0    0    0  0.00000000000E+00  0.00000000000E+00  0.45593999997E+02  0.45594000000E+02  0.51100000000E-03 0.  1.
         11   -1    0    0    0    0 -0.00000000000E+00 -0.00000000000E+00 -0.45593999997E+02  0.45594000000E+02  0.51100000000E-03 0. -1.
    9900012    2    1    2    0    0 -0.11806363116E+02  0.24406643237E+02 -0.33890246744E+02  0.47787271107E+02  0.20000000283E+02 0.  0.
        -12    1    1    2    0    0  0.11806363116E+02 -0.24406643237E+02  0.33890246744E+02  0.43400728893E+02  0.00000000000E+00 0.  1.
         11    1    3    3    0    0 -0.72749198271E+01  0.15376008241E+02 -0.30143060479E+02  0.34611416949E+02  0.51100000000E-03 0. -1.
        -11    1    3    3    0    0 -0.33873518805E+01  0.70184753480E+01  0.10363238639E+01  0.78617502113E+01  0.51100000000E-03 0.  1.
        -12    1    3    3    0    0 -0.11440914089E+01  0.20121596482E+01 -0.47835101288E+01  0.53141039465E+01  0.00000000000E+00 0.  1.
</event>
<event>
 7    1  0.2834226E-010  0.4778728E+02  0.7816164E-02  0.1312668E+00
        -11   -1    0    0    0    0  0.00000000000E+00  0.00000000000E+00  0.45593999997E+02  0.45594000000E+02  0.51100000000E-03 0.  1.
         11   -1    0    0    0    0 -0.00000000000E+00 -0.00000000000E+00 -0.45593999997E+02  0.45594000000E+02  0.51100000000E-03 0. -1.
    9900012    2    1    2    0    0  0.35546609775E+02  0.55081151363E+01 -0.24284180996E+02  0.47787282892E+02  0.20000054017E+02 0.  0.
        -12    1    1    2    0    0 -0.35546609775E+02 -0.55081151363E+01  0.24284180996E+02  0.43400717108E+02  0.00000000000E+00 0.  1.
         11    1    3    3    0    0  0.24401731596E+02 -0.26232559085E+01 -0.20885324639E+02  0.32226119251E+02  0.51100000000E-03 0. -1.
        -11    1    3    3    0    0  0.11865094770E+02  0.69159586599E+01 -0.27485795581E+01  0.14005914748E+02  0.51100000000E-03 0.  1.
         12    1    3    3    0    0 -0.72021659072E+00  0.12154123849E+01 -0.65027679813E+00  0.15552488923E+01  0.00000000000E+00 0. -1.
</event>
<event>
 7    1  0.2834226E-010  0.4778727E+02  0.7816164E-02  0.1312668E+00
        -11   -1    0    0    0    0  0.00000000000E+00  0.00000000000E+00  0.45593999997E+02  0.45594000000E+02  0.51100000000E-03 0. -1.
         11   -1    0    0    0    0 -0.00000000000E+00 -0.00000000000E+00 -0.45593999997E+02  0.45594000000E+02  0.51100000000E-03 0.  1.
    9900012    2    1    2    0    0  0.19459970085E+02 -0.35822536974E+02  0.14888875360E+02  0.47787271890E+02  0.20000003855E+02 0.  0.
        -12    1    1    2    0    0 -0.19459970085E+02  0.35822536974E+02 -0.14888875360E+02  0.43400728110E+02  0.00000000000E+00 0.  1.
         11    1    3    3    0    0  0.13124056023E+02 -0.13927060006E+02  0.15171131797E+02  0.24420628312E+02  0.51100000000E-03 0. -1.
        -11    1    3    3    0    0  0.67789535540E+01 -0.21860700284E+02 -0.44883138409E+00  0.22892048359E+02  0.51100000000E-03 0.  1.
         12    1    3    3    0    0 -0.44303949121E+00 -0.34776683736E-01  0.16657494763E+00  0.47459521877E+00  0.00000000000E+00 0. -1.
</event>
<event>
 7    1  0.2834226E-010  0.4778727E+02  0.7816164E-02  0.1312668E+00
        -11   -1    0    0    0    0  0.00000000000E+00  0.00000000000E+00  0.45593999997E+02  0.45594000000E+02  0.51100000000E-03 0.  1.
         11   -1    0    0    0    0 -0.00000000000E+00 -0.00000000000E+00 -0.45593999997E+02  0.45594000000E+02  0.51100000000E-03 0. -1.
    9900012    2    1    2    0    0 -0.32549646615E+02  0.28527207383E+02  0.32159238715E+01  0.47787271639E+02  0.20000002713E+02 0.  0.
        -12    1    1    2    0    0  0.32549646615E+02 -0.28527207383E+02 -0.32159238715E+01  0.43400728361E+02  0.00000000000E+00 0.  1.
         11    1    3    3    0    0 -0.17628786820E+02  0.21590590966E+02 -0.12220532166E+01  0.27900199952E+02  0.51100000000E-03 0. -1.
        -11    1    3    3    0    0 -0.16222793782E+02  0.59789506033E+01  0.26747355948E+01  0.17495173596E+02  0.51100000000E-03 0.  1.
         12    1    3    3    0    0  0.13019339866E+01  0.95766581432E+00  0.17632414933E+01  0.23918980917E+01  0.00000000000E+00 0. -1.
</event>
<event>
 7    1  0.2834226E-010  0.4778727E+02  0.7816164E-02  0.1312668E+00
        -11   -1    0    0    0    0  0.00000000000E+00  0.00000000000E+00  0.45593999997E+02  0.45594000000E+02  0.51100000000E-03 0.  1.
         11   -1    0    0    0    0 -0.00000000000E+00 -0.00000000000E+00 -0.45593999997E+02  0.45594000000E+02  0.51100000000E-03 0. -1.
    9900012    2    1    2    0    0 -0.60105365035E+01  0.26040752731E+02 -0.34196140520E+02  0.47787269842E+02  0.19999994515E+02 0.  0.
        -12    1    1    2    0    0  0.60105365035E+01 -0.26040752731E+02  0.34196140520E+02  0.43400730158E+02  0.00000000000E+00 0.  1.
         11    1    3    3    0    0  0.32736302411E+01  0.11764726247E+02 -0.78143034190E+01  0.14497888702E+02  0.51100000000E-03 0. -1.
        -11    1    3    3    0    0 -0.11076123824E+02  0.12062868438E+02 -0.17524089865E+02  0.23985142063E+02  0.51100000000E-03 0.  1.
         12    1    3    3    0    0  0.17919570792E+01  0.22131580455E+01 -0.88577472354E+01  0.93042390766E+01  0.00000000000E+00 0. -1.
</event>
<event>
 7    1  0.2834226E-010  0.4778727E+02  0.7816164E-02  0.1312668E+00
        -11   -1    0    0    0    0  0.00000000000E+00  0.00000000000E+00  0.45593999997E+02  0.45594000000E+02  0.51100000000E-03 0.  1.
         11   -1    0    0    0    0 -0.00000000000E+00 -0.00000000000E+00 -0.45593999997E+02  0.45594000000E+02  0.51100000000E-03 0. -1.
    9900012    2    1    2    0    0 -0.12392117372E+02 -0.27244178069E+02 -0.31429503365E+02  0.47787268516E+02  0.19999988472E+02 0.  0.
        -12    1    1    2    0    0  0.12392117372E+02  0.27244178069E+02  0.31429503365E+02  0.43400731484E+02  0.00000000000E+00 0.  1.
         11    1    3    3    0    0 -0.44447499719E+01 -0.89681044734E+01 -0.23346309655E+01  0.10277801427E+02  0.51100000000E-03 0. -1.
        -11    1    3    3    0    0  0.12447556032E+01 -0.38201282157E-01 -0.81894328987E+01  0.82835793781E+01  0.51100000000E-03 0.  1.
        -12    1    3    3    0    0 -0.91921230032E+01 -0.18237872313E+02 -0.20905439500E+02  0.29225887711E+02  0.00000000000E+00 0.  1.
</event>
<event>
 7    1  0.2834226E-010  0.4778727E+02  0.7816164E-02  0.1312668E+00
        -11   -1    0    0    0    0  0.00000000000E+00  0.00000000000E+00  0.45593999997E+02  0.45594000000E+02  0.51100000000E-03 0. -1.
         11   -1    0    0    0    0 -0.00000000000E+00 -0.00000000000E+00 -0.45593999997E+02  0.45594000000E+02  0.51100000000E-03 0.  1.
    9900012    2    1    2    0    0 -0.12170395921E+02  0.15085056985E+02  0.38832275779E+02  0.47787272779E+02  0.20000007910E+02 0.  0.
        -12    1    1    2    0    0  0.12170395921E+02 -0.15085056985E+02 -0.38832275779E+02  0.43400727221E+02  0.00000000000E+00 0.  1.
         11    1    3    3    0    0 -0.11538280652E+02  0.53758330169E+01  0.32020453134E+02  0.34457813630E+02  0.51100000000E-03 0. -1.
        -11    1    3    3    0    0  0.16053577397E+00  0.40077864697E+01 -0.47974753785E+00  0.40395893458E+01  0.51100000000E-03 0.  1.
         12    1    3    3    0    0 -0.79265104270E+00  0.57014374983E+01  0.72915701831E+01  0.92898698031E+01  0.00000000000E+00 0. -1.
</event>
<event>
 7    1  0.2834226E-010  0.4778727E+02  0.7816164E-02  0.1312668E+00
        -11   -1    0    0    0    0  0.00000000000E+00  0.00000000000E+00  0.45593999997E+02  0.45594000000E+02  0.51100000000E-03 0. -1.
         11   -1    0    0    0    0 -0.00000000000E+00 -0.00000000000E+00 -0.45593999997E+02  0.45594000000E+02  0.51100000000E-03 0.  1.
    9900012    2    1    2    0    0  0.28232031050E+02 -0.23996469354E+02 -0.22599666999E+02  0.47787273426E+02  0.20000010860E+02 0.  0.
        -12    1    1    2    0    0 -0.28232031050E+02  0.23996469354E+02  0.22599666999E+02  0.43400726574E+02  0.00000000000E+00 0.  1.
         11    1    3    3    0    0  0.23673905005E+02 -0.15586280563E+02 -0.17216795617E+02  0.33163292532E+02  0.51100000000E-03 0. -1.
        -11    1    3    3    0    0  0.14773153774E+01  0.19821578751E+01  0.10536621934E+00  0.24743712065E+01  0.51100000000E-03 0.  1.
         12    1    3    3    0    0  0.30808106676E+01 -0.10392346666E+02 -0.54882376014E+01  0.12149609688E+02  0.00000000000E+00 0. -1.
</event>
<event>
 7    1  0.2834226E-010  0.4778728E+02  0.7816164E-02  0.1312668E+00
        -11   -1    0    0    0    0  0.00000000000E+00  0.00000000000E+00  0.45593999997E+02  0.45594000000E+02  0.51100000000E-03 0. -1.
         11   -1    0    0    0    0 -0.00000000000E+00 -0.00000000000E+00 -0.45593999997E+02  0.45594000000E+02  0.51100000000E-03 0.  1.
    9900012    2    1    2    0    0  0.38556877058E+02  0.14278155889E+02  0.13896912733E+02  0.47787277799E+02  0.20000030798E+02 0.  0.
        -12    1    1    2    0    0 -0.38556877058E+02 -0.14278155889E+02 -0.13896912733E+02  0.43400722201E+02  0.00000000000E+00 0.  1.
         11    1    3    3    0    0  0.25802426307E+02  0.99446156812E+01  0.12038448535E+02  0.30159324060E+02  0.51100000000E-03 0. -1.
        -11    1    3    3    0    0  0.85622177654E+00  0.54548059598E+01 -0.72178823995E-01  0.55220678947E+01  0.51100000000E-03 0.  1.
         12    1    3    3    0    0  0.11898228974E+02 -0.11212657518E+01  0.19306430227E+01  0.12105885844E+02  0.00000000000E+00 0. -1.
</event>
<event>
 7    1  0.2834226E-010  0.4778727E+02  0.7816164E-02  0.1312668E+00
        -11   -1    0    0    0    0  0.00000000000E+00  0.00000000000E+00  0.45593999997E+02  0.45594000000E+02  0.51100000000E-03 0.  1.
         11   -1    0    0    0    0 -0.00000000000E+00 -0.00000000000E+00 -0.45593999997E+02  0.45594000000E+02  0.51100000000E-03 0. -1.
    9900012    2    1    2    0    0 -0.29245940378E+02  0.32062835300E+02 -0.52241425688E+00  0.47787270136E+02  0.19999995858E+02 0.  0.
        -12    1    1    2    0    0  0.29245940378E+02 -0.32062835300E+02  0.52241425688E+00  0.43400729864E+02  0.00000000000E+00 0.  1.
         11    1    3    3    0    0 -0.24393918543E+00 -0.71308021727E+00  0.30125534293E+01  0.31053933966E+01  0.51100000000E-03 0.  1.
        -11    1    3    3    0    0 -0.31731547636E+00  0.20065994125E+01 -0.15741587813E+01  0.25700401639E+01  0.51100000000E-03 0. -1.
         12    1    3    3    0    0 -0.28684685716E+02  0.30769316105E+02 -0.19608089048E+01  0.42111836575E+02  0.00000000000E+00 0. -1.
</event>
<event>
 7    1  0.2834226E-010  0.4778727E+02  0.7816164E-02  0.1312668E+00
        -11   -1    0    0    0    0  0.00000000000E+00  0.00000000000E+00  0.45593999997E+02  0.45594000000E+02  0.51100000000E-03 0. -1.
         11   -1    0    0    0    0 -0.00000000000E+00 -0.00000000000E+00 -0.45593999997E+02  0.45594000000E+02  0.51100000000E-03 0.  1.
    9900012    2    1    2    0    0 -0.39966634971E+02  0.15179681330E+01  0.16851919083E+02  0.47787270572E+02  0.19999997845E+02 0.  0.
        -12    1    1    2    0    0  0.39966634971E+02 -0.15179681330E+01 -0.16851919083E+02  0.43400729428E+02  0.00000000000E+00 0.  1.
         11    1    3    3    0    0 -0.17334878909E+02  0.82818148684E+01  0.56350387782E+01  0.20020992648E+02  0.51100000000E-03 0. -1.
        -11    1    3    3    0    0 -0.54936750453E+00 -0.25213830939E+00 -0.13916750732E+01  0.15172798531E+01  0.51100000000E-03 0.  1.
         12    1    3    3    0    0 -0.22082388557E+02 -0.65117084260E+01  0.12608555378E+02  0.26248998071E+02  0.00000000000E+00 0. -1.
</event>
<event>
 7    1  0.2834226E-010  0.4778727E+02  0.7816164E-02  0.1312668E+00
        -11   -1    0    0    0    0  0.00000000000E+00  0.00000000000E+00  0.45593999997E+02  0.45594000000E+02  0.51100000000E-03 0.  1.
         11   -1    0    0    0    0 -0.00000000000E+00 -0.00000000000E+00 -0.45593999997E+02  0.45594000000E+02  0.51100000000E-03 0. -1.
    9900012    2    1    2    0    0 -0.36859824423E+01 -0.28251534275E+02 -0.32739694866E+02  0.47787271028E+02  0.19999999923E+02 0.  0.
        -12    1    1    2    0    0  0.36859824423E+01  0.28251534275E+02  0.32739694866E+02  0.43400728972E+02  0.00000000000E+00 0.  1.
         11    1    3    3    0    0 -0.17724170644E+01  0.18543327844E+01 -0.26662223404E+00  0.25789726641E+01  0.51100000000E-03 0. -1.
        -11    1    3    3    0    0  0.17647465811E+01 -0.20161617584E+02 -0.16891661675E+02  0.26361589263E+02  0.51100000000E-03 0.  1.
         12    1    3    3    0    0 -0.36783119590E+01 -0.99442494754E+01 -0.15581410957E+02  0.18846709100E+02  0.00000000000E+00 0. -1.
</event>
<event>
 7    1  0.2834226E-010  0.4778727E+02  0.7816164E-02  0.1312668E+00
        -11   -1    0    0    0    0  0.00000000000E+00  0.00000000000E+00  0.45593999997E+02  0.45594000000E+02  0.51100000000E-03 0.  1.
         11   -1    0    0    0    0 -0.00000000000E+00 -0.00000000000E+00 -0.45593999997E+02  0.45594000000E+02  0.51100000000E-03 0. -1.
    9900012    2    1    2    0    0 -0.38889634534E+02  0.50243889415E+01 -0.18600403662E+02  0.47787272186E+02  0.20000005203E+02 0.  0.
        -12    1    1    2    0    0  0.38889634534E+02 -0.50243889415E+01  0.18600403662E+02  0.43400727814E+02  0.00000000000E+00 0.  1.
         11    1    3    3    0    0 -0.26576622187E+02  0.15758161116E+01 -0.50047336278E+01  0.27089617978E+02  0.51100000000E-03 0. -1.
        -11    1    3    3    0    0 -0.85716610604E+01  0.64984078191E+01 -0.88611950216E+01  0.13936407535E+02  0.51100000000E-03 0.  1.
         12    1    3    3    0    0 -0.37413512871E+01 -0.30498349892E+01 -0.47344750126E+01  0.67612466720E+01  0.00000000000E+00 0. -1.
</event>
<event>
 7    1  0.2834226E-010  0.4778727E+02  0.7816164E-02  0.1312668E+00
        -11   -1    0    0    0    0  0.00000000000E+00  0.00000000000E+00  0.45593999997E+02  0.45594000000E+02  0.51100000000E-03 0.  1.
         11   -1    0    0    0    0 -0.00000000000E+00 -0.00000000000E+00 -0.45593999997E+02  0.45594000000E+02  0.51100000000E-03 0. -1.
    9900012    2    1    2    0    0 -0.29006147540E+02 -0.26680025268E+02 -0.18178099084E+02  0.47787266945E+02  0.19999981308E+02 0.  0.
        -12    1    1    2    0    0  0.29006147540E+02  0.26680025268E+02  0.18178099084E+02  0.43400733055E+02  0.00000000000E+00 0.  1.
         11    1    3    3    0    0 -0.14585579929E+02 -0.20015385019E+02 -0.10555949606E+02  0.26921791391E+02  0.51100000000E-03 0. -1.
        -11    1    3    3    0    0 -0.33361236094E+01  0.26068111977E+01  0.54131806412E+00  0.42682796143E+01  0.51100000000E-03 0.  1.
        -12    1    3    3    0    0 -0.11084444002E+02 -0.92714514458E+01 -0.81634675425E+01  0.16597195940E+02  0.00000000000E+00 0.  1.
</event>
<event>
 7    1  0.2834226E-010  0.4778727E+02  0.7816164E-02  0.1312668E+00
        -11   -1    0    0    0    0  0.00000000000E+00  0.00000000000E+00  0.45593999997E+02  0.45594000000E+02  0.51100000000E-03 0.  1.
         11   -1    0    0    0    0 -0.00000000000E+00 -0.00000000000E+00 -0.45593999997E+02  0.45594000000E+02  0.51100000000E-03 0. -1.
    9900012    2    1    2    0    0  0.17097343210E+02 -0.14840455379E+02 -0.37027896688E+02  0.47787269663E+02  0.19999993701E+02 0.  0.
        -12    1    1    2    0    0 -0.17097343210E+02  0.14840455379E+02  0.37027896688E+02  0.43400730337E+02  0.00000000000E+00 0.  1.
         11    1    3    3    0    0  0.16324082918E+02 -0.94951259990E+01 -0.16826794586E+02  0.25293756486E+02  0.51100000000E-03 0. -1.
        -11    1    3    3    0    0  0.25337787780E+00 -0.75813627786E+01 -0.15959735805E+02  0.17670722373E+02  0.51100000000E-03 0.  1.
        -12    1    3    3    0    0  0.51988241401E+00  0.22360333989E+01 -0.42413662964E+01  0.48227908047E+01  0.00000000000E+00 0.  1.
</event>
<event>
 7    1  0.2834226E-010  0.4778727E+02  0.7816164E-02  0.1312668E+00
        -11   -1    0    0    0    0  0.00000000000E+00  0.00000000000E+00  0.45593999997E+02  0.45594000000E+02  0.51100000000E-03 0.  1.
         11   -1    0    0    0    0 -0.00000000000E+00 -0.00000000000E+00 -0.45593999997E+02  0.45594000000E+02  0.51100000000E-03 0. -1.
    9900012    2    1    2    0    0  0.25408162647E+01  0.72767529322E+01 -0.42710843422E+02  0.47787273896E+02  0.20000013001E+02 0.  0.
        -12    1    1    2    0    0 -0.25408162647E+01 -0.72767529322E+01  0.42710843422E+02  0.43400726104E+02  0.00000000000E+00 0.  1.
         11    1    3    3    0    0  0.44135180533E+00  0.74741837927E+01 -0.52680385704E+01  0.91548044995E+01  0.51100000000E-03 0. -1.
        -11    1    3    3    0    0  0.42641143188E+01  0.11900725154E+01 -0.34241356284E+02  0.34526358393E+02  0.51100000000E-03 0.  1.
         12    1    3    3    0    0 -0.21646498594E+01 -0.13875033759E+01 -0.32014485684E+01  0.41061110029E+01  0.00000000000E+00 0. -1.
</event>
<event>
 7    1  0.2834226E-010  0.4778724E+02  0.7816164E-02  0.1312668E+00
        -11   -1    0    0    0    0  0.00000000000E+00  0.00000000000E+00  0.45593999997E+02  0.45594000000E+02  0.51100000000E-03 0. -1.
         11   -1    0    0    0    0 -0.00000000000E+00 -0.00000000000E+00 -0.45593999997E+02  0.45594000000E+02  0.51100000000E-03 0.  1.
    9900012    2    1    2    0    0 -0.16751479637E+02  0.37243203238E+02  0.14695506014E+02  0.47787237859E+02  0.19999848692E+02 0.  0.
        -12    1    1    2    0    0  0.16751479637E+02 -0.37243203238E+02 -0.14695506014E+02  0.43400762141E+02  0.00000000000E+00 0.  1.
         11    1    3    3    0    0 -0.25722944747E+01  0.11101479333E+02  0.13012568927E+02  0.17297008198E+02  0.51100000000E-03 0.  1.
        -11    1    3    3    0    0 -0.98934201988E+01  0.14436750560E+02  0.36307147340E+01  0.17874048778E+02  0.51100000000E-03 0. -1.
        -12    1    3    3    0    0 -0.42857649635E+01  0.11704973345E+02 -0.19477776465E+01  0.12616180883E+02  0.00000000000E+00 0.  1.
</event>
<event>
 7    1  0.2834226E-010  0.4778727E+02  0.7816164E-02  0.1312668E+00
        -11   -1    0    0    0    0  0.00000000000E+00  0.00000000000E+00  0.45593999997E+02  0.45594000000E+02  0.51100000000E-03 0.  1.
         11   -1    0    0    0    0 -0.00000000000E+00 -0.00000000000E+00 -0.45593999997E+02  0.45594000000E+02  0.51100000000E-03 0. -1.
    9900012    2    1    2    0    0 -0.16115482089E+02 -0.25295581353E+02 -0.31369538966E+02  0.47787272196E+02  0.20000005252E+02 0.  0.
        -12    1    1    2    0    0  0.16115482089E+02  0.25295581353E+02  0.31369538966E+02  0.43400727804E+02  0.00000000000E+00 0.  1.
         11    1    3    3    0    0 -0.18449736377E+02 -0.19091672335E+02 -0.22178536902E+02  0.34594395851E+02  0.51100000000E-03 0. -1.
        -11    1    3    3    0    0  0.36583002700E+01 -0.31729129793E+01 -0.85465015352E+01  0.98230965786E+01  0.51100000000E-03 0.  1.
        -12    1    3    3    0    0 -0.13240459814E+01 -0.30309960380E+01 -0.64450052940E+00  0.33697797666E+01  0.00000000000E+00 0.  1.
</event>
<event>
 7    1  0.2834226E-010  0.4778727E+02  0.7816164E-02  0.1312668E+00
        -11   -1    0    0    0    0  0.00000000000E+00  0.00000000000E+00  0.45593999997E+02  0.45594000000E+02  0.51100000000E-03 0.  1.
         11   -1    0    0    0    0 -0.00000000000E+00 -0.00000000000E+00 -0.45593999997E+02  0.45594000000E+02  0.51100000000E-03 0. -1.
    9900012    2    1    2    0    0 -0.20748364970E+02 -0.22000141407E+02 -0.31130728314E+02  0.47787272861E+02  0.20000008281E+02 0.  0.
        -12    1    1    2    0    0  0.20748364970E+02  0.22000141407E+02  0.31130728314E+02  0.43400727139E+02  0.00000000000E+00 0.  1.
         11    1    3    3    0    0 -0.11331376154E+02 -0.23190008593E+02 -0.24997805689E+02  0.35931419032E+02  0.51100000000E-03 0. -1.
        -11    1    3    3    0    0 -0.85528185476E+01  0.10606794991E+01 -0.39031465859E+01  0.94609883014E+01  0.51100000000E-03 0.  1.
        -12    1    3    3    0    0 -0.86417026839E+00  0.12918768723E+00 -0.22297760389E+01  0.23948655275E+01  0.00000000000E+00 0.  1.
</event>
<event>
 7    1  0.2834226E-010  0.4778727E+02  0.7816164E-02  0.1312668E+00
        -11   -1    0    0    0    0  0.00000000000E+00  0.00000000000E+00  0.45593999997E+02  0.45594000000E+02  0.51100000000E-03 0. -1.
         11   -1    0    0    0    0 -0.00000000000E+00 -0.00000000000E+00 -0.45593999997E+02  0.45594000000E+02  0.51100000000E-03 0.  1.
    9900012    2    1    2    0    0 -0.38886081842E+02 -0.11171731263E+02  0.15706327447E+02  0.47787266570E+02  0.19999979598E+02 0.  0.
        -12    1    1    2    0    0  0.38886081842E+02  0.11171731263E+02 -0.15706327447E+02  0.43400733430E+02  0.00000000000E+00 0.  1.
         11    1    3    3    0    0 -0.46425267548E+00  0.31862986823E+01 -0.37867953943E+00  0.32421332938E+01  0.51100000000E-03 0.  1.
        -11    1    3    3    0    0 -0.36328440800E+02 -0.11722676619E+02  0.14867325890E+02  0.40966011979E+02  0.51100000000E-03 0. -1.
        -12    1    3    3    0    0 -0.20933883661E+01 -0.26353533259E+01  0.12176810965E+01  0.35791212967E+01  0.00000000000E+00 0.  1.
</event>
<event>
 7    1  0.2834226E-010  0.4778726E+02  0.7816164E-02  0.1312668E+00
        -11   -1    0    0    0    0  0.00000000000E+00  0.00000000000E+00  0.45593999997E+02  0.45594000000E+02  0.51100000000E-03 0. -1.
         11   -1    0    0    0    0 -0.00000000000E+00 -0.00000000000E+00 -0.45593999997E+02  0.45594000000E+02  0.51100000000E-03 0.  1.
    9900012    2    1    2    0    0  0.37401129026E+02 -0.19307581897E+02  0.10582855314E+02  0.47787262705E+02  0.19999961977E+02 0.  0.
        -12    1    1    2    0    0 -0.37401129026E+02  0.19307581897E+02 -0.10582855314E+02  0.43400737295E+02  0.00000000000E+00 0.  1.
         11    1    3    3    0    0  0.10624870325E+02 -0.12594327058E+02  0.79814465537E+01  0.18308698282E+02  0.51100000000E-03 0. -1.
        -11    1    3    3    0    0  0.26080339592E+02 -0.48186019012E+01  0.44580737878E+00  0.26525493059E+02  0.51100000000E-03 0.  1.
        -12    1    3    3    0    0  0.69591910939E+00 -0.18946529386E+01  0.21556013814E+01  0.29530713639E+01  0.00000000000E+00 0.  1.
</event>
<event>
 7    1  0.2834226E-010  0.4778727E+02  0.7816164E-02  0.1312668E+00
        -11   -1    0    0    0    0  0.00000000000E+00  0.00000000000E+00  0.45593999997E+02  0.45594000000E+02  0.51100000000E-03 0. -1.
         11   -1    0    0    0    0 -0.00000000000E+00 -0.00000000000E+00 -0.45593999997E+02  0.45594000000E+02  0.51100000000E-03 0.  1.
    9900012    2    1    2    0    0 -0.37620709085E+02  0.32215731237E+01 -0.21399227425E+02  0.47787271667E+02  0.20000002837E+02 0.  0.
        -12    1    1    2    0    0  0.37620709085E+02 -0.32215731237E+01  0.21399227425E+02  0.43400728333E+02  0.00000000000E+00 0.  1.
         11    1    3    3    0    0 -0.24106062441E+02  0.77123609008E+01 -0.11797644108E+02  0.27924311340E+02  0.51100000000E-03 0. -1.
        -11    1    3    3    0    0 -0.37105736525E+01 -0.34630352133E+01  0.12245880465E+01  0.52211670979E+01  0.51100000000E-03 0.  1.
        -12    1    3    3    0    0 -0.98040729920E+01 -0.10277525638E+01 -0.10826171363E+02  0.14641793228E+02  0.00000000000E+00 0.  1.
</event>
<event>
 7    1  0.2834226E-010  0.4778727E+02  0.7816164E-02  0.1312668E+00
        -11   -1    0    0    0    0  0.00000000000E+00  0.00000000000E+00  0.45593999997E+02  0.45594000000E+02  0.51100000000E-03 0. -1.
         11   -1    0    0    0    0 -0.00000000000E+00 -0.00000000000E+00 -0.45593999997E+02  0.45594000000E+02  0.51100000000E-03 0.  1.
    9900012    2    1    2    0    0 -0.16046941123E+02 -0.40252875374E+02  0.24134301531E+01  0.47787274886E+02  0.20000017516E+02 0.  0.
        -12    1    1    2    0    0  0.16046941123E+02  0.40252875374E+02 -0.24134301531E+01  0.43400725114E+02  0.00000000000E+00 0.  1.
         11    1    3    3    0    0 -0.12423214603E+02 -0.35972707900E+02  0.18809631605E+01  0.38103936770E+02  0.51100000000E-03 0. -1.
        -11    1    3    3    0    0  0.75751817103E+00  0.13423809214E+01  0.18779031425E+01  0.24294733568E+01  0.51100000000E-03 0.  1.
        -12    1    3    3    0    0 -0.43812446916E+01 -0.56225483955E+01 -0.13454361499E+01  0.72538647589E+01  0.00000000000E+00 0.  1.
</event>
<event>
 7    1  0.2834226E-010  0.4778727E+02  0.7816164E-02  0.1312668E+00
        -11   -1    0    0    0    0  0.00000000000E+00  0.00000000000E+00  0.45593999997E+02  0.45594000000E+02  0.51100000000E-03 0. -1.
         11   -1    0    0    0    0 -0.00000000000E+00 -0.00000000000E+00 -0.45593999997E+02  0.45594000000E+02  0.51100000000E-03 0.  1.
    9900012    2    1    2    0    0  0.35593494500E+02  0.19328332459E+02  0.15593000194E+02  0.47787274874E+02  0.20000017462E+02 0.  0.
        -12    1    1    2    0    0 -0.35593494500E+02 -0.19328332459E+02 -0.15593000194E+02  0.43400725126E+02  0.00000000000E+00 0.  1.
         11    1    3    3    0    0  0.47854532852E+01  0.21265087238E+01  0.60888833253E+01  0.80310088350E+01  0.51100000000E-03 0. -1.
        -11    1    3    3    0    0  0.26516670458E+02  0.16873387586E+02  0.24919741911E+01  0.31528637085E+02  0.51100000000E-03 0.  1.
        -12    1    3    3    0    0  0.42913707572E+01  0.32843614945E+00  0.70121426780E+01  0.82276289548E+01  0.00000000000E+00 0.  1.
</event>
<event>
 7    1  0.2834226E-010  0.4778727E+02  0.7816164E-02  0.1312668E+00
        -11   -1    0    0    0    0  0.00000000000E+00  0.00000000000E+00  0.45593999997E+02  0.45594000000E+02  0.51100000000E-03 0. -1.
         11   -1    0    0    0    0 -0.00000000000E+00 -0.00000000000E+00 -0.45593999997E+02  0.45594000000E+02  0.51100000000E-03 0.  1.
    9900012    2    1    2    0    0  0.24045758980E+02  0.31741300213E+02  0.17260202052E+02  0.47787271446E+02  0.20000001829E+02 0.  0.
        -12    1    1    2    0    0 -0.24045758980E+02 -0.31741300213E+02 -0.17260202052E+02  0.43400728554E+02  0.00000000000E+00 0.  1.
         11    1    3    3    0    0  0.14486473413E+02  0.24287283894E+02  0.43381165422E+01  0.28610301052E+02  0.51100000000E-03 0. -1.
        -11    1    3    3    0    0  0.94932464904E+01  0.35089362811E+01  0.82181627235E+01  0.13037352552E+02  0.51100000000E-03 0.  1.
         12    1    3    3    0    0  0.66039077394E-01  0.39450800387E+01  0.47039227860E+01  0.61396178422E+01  0.00000000000E+00 0. -1.
</event>
<event>
 7    1  0.2834226E-010  0.4778727E+02  0.7816164E-02  0.1312668E+00
        -11   -1    0    0    0    0  0.00000000000E+00  0.00000000000E+00  0.45593999997E+02  0.45594000000E+02  0.51100000000E-03 0. -1.
         11   -1    0    0    0    0 -0.00000000000E+00 -0.00000000000E+00 -0.45593999997E+02  0.45594000000E+02  0.51100000000E-03 0.  1.
    9900012    2    1    2    0    0 -0.14885723219E+02  0.31019243820E+02  0.26454583668E+02  0.47787271435E+02  0.20000001780E+02 0.  0.
        -12    1    1    2    0    0  0.14885723219E+02 -0.31019243820E+02 -0.26454583668E+02  0.43400728565E+02  0.00000000000E+00 0.  1.
         11    1    3    3    0    0 -0.11507620998E+02  0.16092308537E+02  0.20723957554E+02  0.28650831611E+02  0.51100000000E-03 0. -1.
        -11    1    3    3    0    0  0.58228888827E+00  0.31206608952E+01  0.58805677388E+01  0.66827136677E+01  0.51100000000E-03 0.  1.
         12    1    3    3    0    0 -0.39603911092E+01  0.11806274389E+02 -0.14994162451E+00  0.12453726156E+02  0.00000000000E+00 0. -1.
</event>
<event>
 7    1  0.2834226E-010  0.4778727E+02  0.7816164E-02  0.1312668E+00
        -11   -1    0    0    0    0  0.00000000000E+00  0.00000000000E+00  0.45593999997E+02  0.45594000000E+02  0.51100000000E-03 0. -1.
         11   -1    0    0    0    0 -0.00000000000E+00 -0.00000000000E+00 -0.45593999997E+02  0.45594000000E+02  0.51100000000E-03 0.  1.
    9900012    2    1    2    0    0 -0.26209888941E+02 -0.20388802264E+02  0.27945687189E+02  0.47787274562E+02  0.20000016039E+02 0.  0.
        -12    1    1    2    0    0  0.26209888941E+02  0.20388802264E+02 -0.27945687189E+02  0.43400725438E+02  0.00000000000E+00 0.  1.
         11    1    3    3    0    0 -0.19195405901E+02 -0.10238053459E+02  0.96367492644E+01  0.23793870702E+02  0.51100000000E-03 0. -1.
        -11    1    3    3    0    0 -0.83857994400E+01 -0.46664226847E+01  0.13547805569E+02  0.16602414551E+02  0.51100000000E-03 0.  1.
         12    1    3    3    0    0  0.13713164004E+01 -0.54843261203E+01  0.47611323553E+01  0.73909893092E+01  0.00000000000E+00 0. -1.
</event>
<event>
 7    1  0.2834226E-010  0.4778727E+02  0.7816164E-02  0.1312668E+00
        -11   -1    0    0    0    0  0.00000000000E+00  0.00000000000E+00  0.45593999997E+02  0.45594000000E+02  0.51100000000E-03 0. -1.
         11   -1    0    0    0    0 -0.00000000000E+00 -0.00000000000E+00 -0.45593999997E+02  0.45594000000E+02  0.51100000000E-03 0.  1.
    9900012    2    1    2    0    0  0.42248196452E+02 -0.49819643694E+00  0.99229710226E+01  0.47787266630E+02  0.19999979873E+02 0.  0.
        -12    1    1    2    0    0 -0.42248196452E+02  0.49819643694E+00 -0.99229710226E+01  0.43400733370E+02  0.00000000000E+00 0.  1.
         11    1    3    3    0    0  0.15034012816E+02 -0.30141429154E+01 -0.28416782587E+01  0.15594285314E+02  0.51100000000E-03 0. -1.
        -11    1    3    3    0    0  0.25414899301E+02  0.43292103368E+01  0.14020183037E+02  0.29346630152E+02  0.51100000000E-03 0.  1.
        -12    1    3    3    0    0  0.17992843348E+01 -0.18132638584E+01 -0.12555337554E+01  0.28463511640E+01  0.00000000000E+00 0.  1.
</event>
<event>
 7    1  0.2834226E-010  0.4778728E+02  0.7816164E-02  0.1312668E+00
        -11   -1    0    0    0    0  0.00000000000E+00  0.00000000000E+00  0.45593999997E+02  0.45594000000E+02  0.51100000000E-03 0.  1.
         11   -1    0    0    0    0 -0.00000000000E+00 -0.00000000000E+00 -0.45593999997E+02  0.45594000000E+02  0.51100000000E-03 0. -1.
    9900012    2    1    2    0    0 -0.19617079124E+02  0.32130144289E+02 -0.21597379040E+02  0.47787277117E+02  0.20000027686E+02 0.  0.
        -12    1    1    2    0    0  0.19617079124E+02 -0.32130144289E+02  0.21597379040E+02  0.43400722883E+02  0.00000000000E+00 0.  1.
         11    1    3    3    0    0 -0.17754275416E+02  0.29035515480E+02 -0.17354565966E+02  0.38202832551E+02  0.51100000000E-03 0. -1.
        -11    1    3    3    0    0 -0.17629876789E+01 -0.23261114083E+01 -0.41588810791E+00  0.29481999626E+01  0.51100000000E-03 0.  1.
         12    1    3    3    0    0 -0.99816028844E-01  0.54207402172E+01 -0.38269249661E+01  0.66362446036E+01  0.00000000000E+00 0. -1.
</event>
<event>
 7    1  0.2834226E-010  0.4778727E+02  0.7816164E-02  0.1312668E+00
        -11   -1    0    0    0    0  0.00000000000E+00  0.00000000000E+00  0.45593999997E+02  0.45594000000E+02  0.51100000000E-03 0.  1.
         11   -1    0    0    0    0 -0.00000000000E+00 -0.00000000000E+00 -0.45593999997E+02  0.45594000000E+02  0.51100000000E-03 0. -1.
    9900012    2    1    2    0    0 -0.13366530337E+02 -0.35652932336E+02 -0.20828532981E+02  0.47787268398E+02  0.19999987934E+02 0.  0.
        -12    1    1    2    0    0  0.13366530337E+02  0.35652932336E+02  0.20828532981E+02  0.43400731602E+02  0.00000000000E+00 0.  1.
         11    1    3    3    0    0 -0.11113366784E+02 -0.22416208350E+02 -0.61370176866E+01  0.25761527603E+02  0.51100000000E-03 0. -1.
        -11    1    3    3    0    0 -0.56971626714E+01 -0.60663295509E+01 -0.61079432470E+01  0.10323031904E+02  0.51100000000E-03 0.  1.
         12    1    3    3    0    0  0.34439991191E+01 -0.71703944350E+01 -0.85835720478E+01  0.11702708891E+02  0.00000000000E+00 0. -1.
</event>
<event>
 7    1  0.2834226E-010  0.4778728E+02  0.7816164E-02  0.1312668E+00
        -11   -1    0    0    0    0  0.00000000000E+00  0.00000000000E+00  0.45593999997E+02  0.45594000000E+02  0.51100000000E-03 0.  1.
         11   -1    0    0    0    0 -0.00000000000E+00 -0.00000000000E+00 -0.45593999997E+02  0.45594000000E+02  0.51100000000E-03 0. -1.
    9900012    2    1    2    0    0 -0.51273740575E+01  0.11035716936E+02 -0.41659883057E+02  0.47787275705E+02  0.20000021250E+02 0.  0.
        -12    1    1    2    0    0  0.51273740575E+01 -0.11035716936E+02  0.41659883057E+02  0.43400724295E+02  0.00000000000E+00 0.  1.
         11    1    3    3    0    0 -0.34465820060E+01  0.56722936207E+01 -0.29244341066E+02  0.29988086420E+02  0.51100000000E-03 0. -1.
        -11    1    3    3    0    0  0.45592683321E+01  0.14938155191E+01 -0.23560066550E+01  0.53450145134E+01  0.51100000000E-03 0.  1.
        -12    1    3    3    0    0 -0.62400603836E+01  0.38696077959E+01 -0.10059535336E+02  0.12454174772E+02  0.00000000000E+00 0.  1.
</event>
<event>
 7    1  0.2834226E-010  0.4778728E+02  0.7816164E-02  0.1312668E+00
        -11   -1    0    0    0    0  0.00000000000E+00  0.00000000000E+00  0.45593999997E+02  0.45594000000E+02  0.51100000000E-03 0. -1.
         11   -1    0    0    0    0 -0.00000000000E+00 -0.00000000000E+00 -0.45593999997E+02  0.45594000000E+02  0.51100000000E-03 0.  1.
    9900012    2    1    2    0    0 -0.35267771167E+02 -0.58352593277E-01  0.25294334940E+02  0.47787280327E+02  0.20000042322E+02 0.  0.
        -12    1    1    2    0    0  0.35267771167E+02  0.58352593277E-01 -0.25294334940E+02  0.43400719673E+02  0.00000000000E+00 0.  1.
         11    1    3    3    0    0 -0.21033658705E+02  0.66162209871E+01  0.80371514272E+01  0.23468808704E+02  0.51100000000E-03 0. -1.
        -11    1    3    3    0    0 -0.78888135252E+01 -0.67515344398E+01  0.80602671613E+01  0.13144751922E+02  0.51100000000E-03 0.  1.
        -12    1    3    3    0    0 -0.63452989371E+01  0.76960859423E-01  0.91969163511E+01  0.11173719700E+02  0.00000000000E+00 0.  1.
</event>
<event>
 7    1  0.2834226E-010  0.4778727E+02  0.7816164E-02  0.1312668E+00
        -11   -1    0    0    0    0  0.00000000000E+00  0.00000000000E+00  0.45593999997E+02  0.45594000000E+02  0.51100000000E-03 0.  1.
         11   -1    0    0    0    0 -0.00000000000E+00 -0.00000000000E+00 -0.45593999997E+02  0.45594000000E+02  0.51100000000E-03 0. -1.
    9900012    2    1    2    0    0 -0.16786829639E+02 -0.54979552745E+01 -0.39643385607E+02  0.47787272081E+02  0.20000004725E+02 0.  0.
        -12    1    1    2    0    0  0.16786829639E+02  0.54979552745E+01  0.39643385607E+02  0.43400727919E+02  0.00000000000E+00 0.  1.
         11    1    3    3    0    0 -0.89025341039E+01 -0.24525940331E+01 -0.14170377569E+02  0.16913601972E+02  0.51100000000E-03 0. -1.
        -11    1    3    3    0    0  0.38196948938E+01 -0.17711138554E+01 -0.13249936351E+02  0.13902795652E+02  0.51100000000E-03 0.  1.
        -12    1    3    3    0    0 -0.11703990429E+02 -0.12742473860E+01 -0.12223071687E+02  0.16970874457E+02  0.00000000000E+00 0.  1.
</event>
<event>
 7    1  0.2834226E-010  0.4778727E+02  0.7816164E-02  0.1312668E+00
        -11   -1    0    0    0    0  0.00000000000E+00  0.00000000000E+00  0.45593999997E+02  0.45594000000E+02  0.51100000000E-03 0.  1.
         11   -1    0    0    0    0 -0.00000000000E+00 -0.00000000000E+00 -0.45593999997E+02  0.45594000000E+02  0.51100000000E-03 0. -1.
    9900012    2    1    2    0    0 -0.23013398174E+02 -0.35890426479E+02  0.81169042342E+01  0.47787270251E+02  0.19999996384E+02 0.  0.
        -12    1    1    2    0    0  0.23013398174E+02  0.35890426479E+02 -0.81169042342E+01  0.43400729749E+02  0.00000000000E+00 0.  1.
         11    1    3    3    0    0 -0.12106625095E+02 -0.22481541965E+02  0.14095098225E+01  0.25572970467E+02  0.51100000000E-03 0. -1.
        -11    1    3    3    0    0 -0.85588577358E+01 -0.21709112910E+01  0.60718931122E+01  0.10716099468E+02  0.51100000000E-03 0.  1.
        -12    1    3    3    0    0 -0.23479153432E+01 -0.11237973223E+02  0.63550129952E+00  0.11498200316E+02  0.00000000000E+00 0.  1.
</event>
<event>
 7    1  0.2834226E-010  0.4778726E+02  0.7816164E-02  0.1312668E+00
        -11   -1    0    0    0    0  0.00000000000E+00  0.00000000000E+00  0.45593999997E+02  0.45594000000E+02  0.51100000000E-03 0.  1.
         11   -1    0    0    0    0 -0.00000000000E+00 -0.00000000000E+00 -0.45593999997E+02  0.45594000000E+02  0.51100000000E-03 0. -1.
    9900012    2    1    2    0    0 -0.17325705794E+02 -0.27032414416E+02 -0.29200900793E+02  0.47787261325E+02  0.19999955686E+02 0.  0.
        -12    1    1    2    0    0  0.17325705794E+02  0.27032414416E+02  0.29200900793E+02  0.43400738675E+02  0.00000000000E+00 0.  1.
         11    1    3    3    0    0 -0.12280133210E+02 -0.12972235145E+02 -0.23112497775E+02  0.29210753328E+02  0.51100000000E-03 0. -1.
        -11    1    3    3    0    0  0.14521044656E+01 -0.32239963103E-01  0.79254116229E+00  0.16546203641E+01  0.51100000000E-03 0.  1.
         12    1    3    3    0    0 -0.64976770494E+01 -0.14027939308E+02 -0.68809441803E+01  0.16921887633E+02  0.00000000000E+00 0. -1.
</event>
<event>
 7    1  0.2834226E-010  0.4778727E+02  0.7816164E-02  0.1312668E+00
        -11   -1    0    0    0    0  0.00000000000E+00  0.00000000000E+00  0.45593999997E+02  0.45594000000E+02  0.51100000000E-03 0.  1.
         11   -1    0    0    0    0 -0.00000000000E+00 -0.00000000000E+00 -0.45593999997E+02  0.45594000000E+02  0.51100000000E-03 0. -1.
    9900012    2    1    2    0    0  0.40595822320E+02 -0.22075319807E+01 -0.15189776158E+02  0.47787270893E+02  0.19999999308E+02 0.  0.
        -12    1    1    2    0    0 -0.40595822320E+02  0.22075319807E+01  0.15189776158E+02  0.43400729107E+02  0.00000000000E+00 0.  1.
         11    1    3    3    0    0  0.13502352251E+02 -0.46952134472E+01 -0.91427971239E+01  0.16969068482E+02  0.51100000000E-03 0. -1.
        -11    1    3    3    0    0  0.25642889004E+02  0.34000434502E+01 -0.14451418934E+01  0.25907653064E+02  0.51100000000E-03 0.  1.
        -12    1    3    3    0    0  0.14505810650E+01 -0.91236198360E+00 -0.46018371412E+01  0.49105493470E+01  0.00000000000E+00 0.  1.
</event>
<event>
 7    1  0.2834226E-010  0.4778728E+02  0.7816164E-02  0.1312668E+00
        -11   -1    0    0    0    0  0.00000000000E+00  0.00000000000E+00  0.45593999997E+02  0.45594000000E+02  0.51100000000E-03 0.  1.
         11   -1    0    0    0    0 -0.00000000000E+00 -0.00000000000E+00 -0.45593999997E+02  0.45594000000E+02  0.51100000000E-03 0. -1.
    9900012    2    1    2    0    0 -0.17960885673E+01  0.40454667269E+02 -0.15614609518E+02  0.47787284933E+02  0.20000063321E+02 0.  0.
        -12    1    1    2    0    0  0.17960885673E+01 -0.40454667269E+02  0.15614609518E+02  0.43400715067E+02  0.00000000000E+00 0.  1.
         11    1    3    3    0    0  0.32433120985E+01  0.15703580476E+02 -0.11940125123E+02  0.19992201013E+02  0.51100000000E-03 0. -1.
        -11    1    3    3    0    0 -0.34473307444E+01  0.16699951063E+02  0.28779212725E+01  0.17293203459E+02  0.51100000000E-03 0.  1.
        -12    1    3    3    0    0 -0.15920699214E+01  0.80511357304E+01 -0.65524056677E+01  0.10501880461E+02  0.00000000000E+00 0.  1.
</event>
<event>
 7    1  0.2834226E-010  0.4778727E+02  0.7816164E-02  0.1312668E+00
        -11   -1    0    0    0    0  0.00000000000E+00  0.00000000000E+00  0.45593999997E+02  0.45594000000E+02  0.51100000000E-03 0.  1.
         11   -1    0    0    0    0 -0.00000000000E+00 -0.00000000000E+00 -0.45593999997E+02  0.45594000000E+02  0.51100000000E-03 0. -1.
    9900012    2    1    2    0    0 -0.42810214917E+02 -0.52587019467E+01 -0.48223341299E+01  0.47787270123E+02  0.19999995797E+02 0.  0.
        -12    1    1    2    0    0  0.42810214917E+02  0.52587019467E+01  0.48223341299E+01  0.43400729877E+02  0.00000000000E+00 0.  1.
         11    1    3    3    0    0 -0.30552650141E+02 -0.23036780201E+01  0.13049523647E+01  0.30667152851E+02  0.51100000000E-03 0. -1.
        -11    1    3    3    0    0 -0.54115980510E+01  0.63498103691E+00 -0.74986909694E+01  0.92692481302E+01  0.51100000000E-03 0.  1.
        -12    1    3    3    0    0 -0.68459667257E+01 -0.35900049635E+01  0.13714044748E+01  0.78508691418E+01  0.00000000000E+00 0.  1.
</event>
<event>
 7    1  0.2834226E-010  0.4778727E+02  0.7816164E-02  0.1312668E+00
        -11   -1    0    0    0    0  0.00000000000E+00  0.00000000000E+00  0.45593999997E+02  0.45594000000E+02  0.51100000000E-03 0.  1.
         11   -1    0    0    0    0 -0.00000000000E+00 -0.00000000000E+00 -0.45593999997E+02  0.45594000000E+02  0.51100000000E-03 0. -1.
    9900012    2    1    2    0    0  0.15936223427E+02  0.28206231734E+01 -0.40270387408E+02  0.47787271502E+02  0.20000002084E+02 0.  0.
        -12    1    1    2    0    0 -0.15936223427E+02 -0.28206231734E+01  0.40270387408E+02  0.43400728498E+02  0.00000000000E+00 0.  1.
         11    1    3    3    0    0  0.10711938618E+02  0.18235107357E+01 -0.34768765174E+02  0.36427158171E+02  0.51100000000E-03 0. -1.
        -11    1    3    3    0    0  0.46109824162E+01 -0.31613239361E+01 -0.21719692748E+01  0.59977144533E+01  0.51100000000E-03 0.  1.
        -12    1    3    3    0    0  0.61330239240E+00  0.41584363737E+01 -0.33296529588E+01  0.53623988778E+01  0.00000000000E+00 0.  1.
</event>
<event>
 7    1  0.2834226E-010  0.4778727E+02  0.7816164E-02  0.1312668E+00
        -11   -1    0    0    0    0  0.00000000000E+00  0.00000000000E+00  0.45593999997E+02  0.45594000000E+02  0.51100000000E-03 0. -1.
         11   -1    0    0    0    0 -0.00000000000E+00 -0.00000000000E+00 -0.45593999997E+02  0.45594000000E+02  0.51100000000E-03 0.  1.
    9900012    2    1    2    0    0 -0.32025609610E+02 -0.23160496488E+02  0.17932505246E+02  0.47787274052E+02  0.20000013713E+02 0.  0.
        -12    1    1    2    0    0  0.32025609610E+02  0.23160496488E+02 -0.17932505246E+02  0.43400725948E+02  0.00000000000E+00 0.  1.
         11    1    3    3    0    0 -0.47317757744E+00 -0.37406154034E+01  0.25080235891E+01  0.45283863793E+01  0.51100000000E-03 0. -1.
        -11    1    3    3    0    0 -0.56673710941E+01 -0.11239838113E+02  0.12926357657E+01  0.12654009776E+02  0.51100000000E-03 0.  1.
        -12    1    3    3    0    0 -0.25885060938E+02 -0.81800429712E+01  0.14131845891E+02  0.30604877897E+02  0.00000000000E+00 0.  1.
</event>
<event>
 7    1  0.2834226E-010  0.4778725E+02  0.7816164E-02  0.1312668E+00
        -11   -1    0    0    0    0  0.00000000000E+00  0.00000000000E+00  0.45593999997E+02  0.45594000000E+02  0.51100000000E-03 0.  1.
         11   -1    0    0    0    0 -0.00000000000E+00 -0.00000000000E+00 -0.45593999997E+02  0.45594000000E+02  0.51100000000E-03 0. -1.
    9900012    2    1    2    0    0 -0.45938052800E+01 -0.15092017363E+02 -0.40432075768E+02  0.47787253625E+02  0.19999920577E+02 0.  0.
        -12    1    1    2    0    0  0.45938052800E+01  0.15092017363E+02  0.40432075768E+02  0.43400746375E+02  0.00000000000E+00 0.  1.
         11    1    3    3    0    0 -0.41229297762E+01 -0.75725369199E+01 -0.31268291010E+02  0.32435287701E+02  0.51100000000E-03 0. -1.
        -11    1    3    3    0    0  0.14427220931E+01  0.13685571655E+01 -0.49435597394E+01  0.53285250221E+01  0.51100000000E-03 0.  1.
         12    1    3    3    0    0 -0.19135975969E+01 -0.88880376084E+01 -0.42202250187E+01  0.10023440901E+02  0.00000000000E+00 0. -1.
</event>
<event>
 7    1  0.2834226E-010  0.4778727E+02  0.7816164E-02  0.1312668E+00
        -11   -1    0    0    0    0  0.00000000000E+00  0.00000000000E+00  0.45593999997E+02  0.45594000000E+02  0.51100000000E-03 0.  1.
         11   -1    0    0    0    0 -0.00000000000E+00 -0.00000000000E+00 -0.45593999997E+02  0.45594000000E+02  0.51100000000E-03 0. -1.
    9900012    2    1    2    0    0  0.20159860201E+02  0.82168092593E+01 -0.37545801710E+02  0.47787272543E+02  0.20000006832E+02 0.  0.
        -12    1    1    2    0    0 -0.20159860201E+02 -0.82168092593E+01  0.37545801710E+02  0.43400727457E+02  0.00000000000E+00 0.  1.
         11    1    3    3    0    0  0.82421148391E+01  0.59230452826E+01 -0.16002674295E+02  0.18949947422E+02  0.51100000000E-03 0. -1.
        -11    1    3    3    0    0  0.28001020129E+01 -0.61399746102E+01 -0.77545514025E+01  0.10279733810E+02  0.51100000000E-03 0.  1.
        -12    1    3    3    0    0  0.91176433490E+01  0.84337385870E+01 -0.13788576013E+02  0.18557591311E+02  0.00000000000E+00 0.  1.
</event>
<event>
 7    1  0.2834226E-010  0.4778726E+02  0.7816164E-02  0.1312668E+00
        -11   -1    0    0    0    0  0.00000000000E+00  0.00000000000E+00  0.45593999997E+02  0.45594000000E+02  0.51100000000E-03 0.  1.
         11   -1    0    0    0    0 -0.00000000000E+00 -0.00000000000E+00 -0.45593999997E+02  0.45594000000E+02  0.51100000000E-03 0. -1.
    9900012    2    1    2    0    0  0.85465449761E+00  0.31097568191E+02 -0.30262762964E+02  0.47787262634E+02  0.19999961654E+02 0.  0.
        -12    1    1    2    0    0 -0.85465449761E+00 -0.31097568191E+02  0.30262762964E+02  0.43400737366E+02  0.00000000000E+00 0.  1.
         11    1    3    3    0    0 -0.28584867584E+01  0.11681404111E+02 -0.32684269301E+01  0.12462293666E+02  0.51100000000E-03 0. -1.
        -11    1    3    3    0    0 -0.11084898827E+00  0.78641958295E+00  0.11256387184E+01  0.13776088139E+01  0.51100000000E-03 0.  1.
         12    1    3    3    0    0  0.38239902443E+01  0.18629744497E+02 -0.28119974752E+02  0.33947360155E+02  0.00000000000E+00 0. -1.
</event>
<event>
 7    1  0.2834226E-010  0.4778727E+02  0.7816164E-02  0.1312668E+00
        -11   -1    0    0    0    0  0.00000000000E+00  0.00000000000E+00  0.45593999997E+02  0.45594000000E+02  0.51100000000E-03 0.  1.
         11   -1    0    0    0    0 -0.00000000000E+00 -0.00000000000E+00 -0.45593999997E+02  0.45594000000E+02  0.51100000000E-03 0. -1.
    9900012    2    1    2    0    0 -0.12824901469E+02 -0.27953230019E+02 -0.30622901130E+02  0.47787271437E+02  0.20000001789E+02 0.  0.
        -12    1    1    2    0    0  0.12824901469E+02  0.27953230019E+02  0.30622901130E+02  0.43400728563E+02  0.00000000000E+00 0.  1.
         11    1    3    3    0    0 -0.14522196319E+02 -0.14920014412E+02 -0.18466001513E+02  0.27829736401E+02  0.51100000000E-03 0. -1.
        -11    1    3    3    0    0  0.18942021937E+01 -0.14355090562E+02 -0.11335214161E+02  0.18388684220E+02  0.51100000000E-03 0.  1.
         12    1    3    3    0    0 -0.19690734326E+00  0.13218749542E+01 -0.82168545489E+00  0.15688508161E+01  0.00000000000E+00 0. -1.
</event>
<event>
 7    1  0.2834226E-010  0.4778727E+02  0.7816164E-02  0.1312668E+00
        -11   -1    0    0    0    0  0.00000000000E+00  0.00000000000E+00  0.45593999997E+02  0.45594000000E+02  0.51100000000E-03 0. -1.
         11   -1    0    0    0    0 -0.00000000000E+00 -0.00000000000E+00 -0.45593999997E+02  0.45594000000E+02  0.51100000000E-03 0.  1.
    9900012    2    1    2    0    0 -0.22943914251E+02  0.36836455647E+02  0.52497847294E+00  0.47787271111E+02  0.20000000301E+02 0.  0.
        -12    1    1    2    0    0  0.22943914251E+02 -0.36836455647E+02 -0.52497847294E+00  0.43400728889E+02  0.00000000000E+00 0.  1.
         11    1    3    3    0    0 -0.18507214831E+02  0.20715050063E+02  0.78940714575E+01  0.28878134710E+02  0.51100000000E-03 0. -1.
        -11    1    3    3    0    0 -0.53205862696E+01  0.11206404194E+02 -0.48968279701E+01  0.13336830870E+02  0.51100000000E-03 0.  1.
         12    1    3    3    0    0  0.88388685011E+00  0.49150013894E+01 -0.24722650145E+01  0.55723055304E+01  0.00000000000E+00 0. -1.
</event>
<event>
 7    1  0.2834226E-010  0.4778727E+02  0.7816164E-02  0.1312668E+00
        -11   -1    0    0    0    0  0.00000000000E+00  0.00000000000E+00  0.45593999997E+02  0.45594000000E+02  0.51100000000E-03 0. -1.
         11   -1    0    0    0    0 -0.00000000000E+00 -0.00000000000E+00 -0.45593999997E+02  0.45594000000E+02  0.51100000000E-03 0.  1.
    9900012    2    1    2    0    0  0.62640742488E+01 -0.42581537508E+02  0.55854554480E+01  0.47787271028E+02  0.19999999926E+02 0.  0.
        -12    1    1    2    0    0 -0.62640742488E+01  0.42581537508E+02 -0.55854554480E+01  0.43400728972E+02  0.00000000000E+00 0.  1.
         11    1    3    3    0    0 -0.35729499540E+01 -0.15909035330E+02  0.52614096618E+01  0.17133178584E+02  0.51100000000E-03 0.  1.
        -11    1    3    3    0    0  0.11943875715E+02 -0.25515613562E+02  0.88225461775E+00  0.28186540689E+02  0.51100000000E-03 0. -1.
        -12    1    3    3    0    0 -0.21068515126E+01 -0.11568886164E+01 -0.55820883157E+00  0.24675517556E+01  0.00000000000E+00 0.  1.
</event>
<event>
 7    1  0.2834226E-010  0.4778727E+02  0.7816164E-02  0.1312668E+00
        -11   -1    0    0    0    0  0.00000000000E+00  0.00000000000E+00  0.45593999997E+02  0.45594000000E+02  0.51100000000E-03 0.  1.
         11   -1    0    0    0    0 -0.00000000000E+00 -0.00000000000E+00 -0.45593999997E+02  0.45594000000E+02  0.51100000000E-03 0. -1.
    9900012    2    1    2    0    0  0.25771525877E+02  0.38144074764E+01 -0.34711699032E+02  0.47787270742E+02  0.19999998622E+02 0.  0.
        -12    1    1    2    0    0 -0.25771525877E+02 -0.38144074764E+01  0.34711699032E+02  0.43400729258E+02  0.00000000000E+00 0.  1.
         11    1    3    3    0    0  0.46366359214E+01  0.89444505609E+01 -0.69789701912E+01  0.12255921577E+02  0.51100000000E-03 0. -1.
        -11    1    3    3    0    0  0.14262530531E+02 -0.54685374413E+01 -0.17922726727E+02  0.23548860110E+02  0.51100000000E-03 0.  1.
        -12    1    3    3    0    0  0.68723594244E+01  0.33849435677E+00 -0.98100021140E+01  0.11982489055E+02  0.00000000000E+00 0.  1.
</event>
<event>
 7    1  0.2834226E-010  0.4778726E+02  0.7816164E-02  0.1312668E+00
        -11   -1    0    0    0    0  0.00000000000E+00  0.00000000000E+00  0.45593999997E+02  0.45594000000E+02  0.51100000000E-03 0.  1.
         11   -1    0    0    0    0 -0.00000000000E+00 -0.00000000000E+00 -0.45593999997E+02  0.45594000000E+02  0.51100000000E-03 0. -1.
    9900012    2    1    2    0    0 -0.11913473132E+02 -0.19812124646E+02 -0.36731086917E+02  0.47787264163E+02  0.19999968626E+02 0.  0.
        -12    1    1    2    0    0  0.11913473132E+02  0.19812124646E+02  0.36731086917E+02  0.43400735837E+02  0.00000000000E+00 0.  1.
         11    1    3    3    0    0 -0.40711360286E+01 -0.14143216078E+02 -0.22069290584E+02  0.26526558328E+02  0.51100000000E-03 0. -1.
        -11    1    3    3    0    0 -0.86052229916E+01  0.87341315088E+00 -0.67865612641E+01  0.10994095112E+02  0.51100000000E-03 0.  1.
        -12    1    3    3    0    0  0.76288588828E+00 -0.65423217199E+01 -0.78752350687E+01  0.10266610724E+02  0.00000000000E+00 0.  1.
</event>
<event>
 7    1  0.2834226E-010  0.4778727E+02  0.7816164E-02  0.1312668E+00
        -11   -1    0    0    0    0  0.00000000000E+00  0.00000000000E+00  0.45593999997E+02  0.45594000000E+02  0.51100000000E-03 0.  1.
         11   -1    0    0    0    0 -0.00000000000E+00 -0.00000000000E+00 -0.45593999997E+02  0.45594000000E+02  0.51100000000E-03 0. -1.
    9900012    2    1    2    0    0  0.20989963576E+02  0.24795622903E+01 -0.37906422646E+02  0.47787266390E+02  0.19999978778E+02 0.  0.
        -12    1    1    2    0    0 -0.20989963576E+02 -0.24795622903E+01  0.37906422646E+02  0.43400733610E+02  0.00000000000E+00 0.  1.
         11    1    3    3    0    0  0.12630128467E+02  0.83156393758E+01 -0.11183760934E+02  0.18808150154E+02  0.51100000000E-03 0. -1.
        -11    1    3    3    0    0  0.79785854425E+01 -0.32800462120E+01 -0.20648552485E+02  0.22378097524E+02  0.51100000000E-03 0.  1.
         12    1    3    3    0    0  0.38124966710E+00 -0.25560308735E+01 -0.60741092269E+01  0.66010187120E+01  0.00000000000E+00 0. -1.
</event>
<event>
 7    1  0.2834226E-010  0.4778726E+02  0.7816164E-02  0.1312668E+00
        -11   -1    0    0    0    0  0.00000000000E+00  0.00000000000E+00  0.45593999997E+02  0.45594000000E+02  0.51100000000E-03 0. -1.
         11   -1    0    0    0    0 -0.00000000000E+00 -0.00000000000E+00 -0.45593999997E+02  0.45594000000E+02  0.51100000000E-03 0.  1.
    9900012    2    1    2    0    0  0.25866859463E+02  0.33036579579E+02  0.11095678717E+02  0.47787261586E+02  0.19999956874E+02 0.  0.
        -12    1    1    2    0    0 -0.25866859463E+02 -0.33036579579E+02 -0.11095678717E+02  0.43400738414E+02  0.00000000000E+00 0.  1.
         11    1    3    3    0    0  0.74139234950E+01  0.14457123584E+02  0.11318935880E+02  0.19801338178E+02  0.51100000000E-03 0.  1.
        -11    1    3    3    0    0  0.17381063333E+02  0.11840754053E+02 -0.13312408435E+01  0.21073135067E+02  0.51100000000E-03 0. -1.
         12    1    3    3    0    0  0.10718726349E+01  0.67387019414E+01  0.11079836800E+01  0.69127883402E+01  0.00000000000E+00 0. -1.
</event>
<event>
 7    1  0.2834226E-010  0.4778727E+02  0.7816164E-02  0.1312668E+00
        -11   -1    0    0    0    0  0.00000000000E+00  0.00000000000E+00  0.45593999997E+02  0.45594000000E+02  0.51100000000E-03 0.  1.
         11   -1    0    0    0    0 -0.00000000000E+00 -0.00000000000E+00 -0.45593999997E+02  0.45594000000E+02  0.51100000000E-03 0. -1.
    9900012    2    1    2    0    0  0.59368148734E+01 -0.57829469739E+01 -0.42602055186E+02  0.47787270138E+02  0.19999995866E+02 0.  0.
        -12    1    1    2    0    0 -0.59368148734E+01  0.57829469739E+01  0.42602055186E+02  0.43400729862E+02  0.00000000000E+00 0.  1.
         11    1    3    3    0    0 -0.26649091883E+01 -0.16686137201E+00  0.31149097024E+00  0.26882355896E+01  0.51100000000E-03 0.  1.
        -11    1    3    3    0    0 -0.16658799282E+01 -0.27392248908E+01 -0.98922965347E+01  0.10398848010E+02  0.51100000000E-03 0. -1.
         12    1    3    3    0    0  0.10267603990E+02 -0.28768607110E+01 -0.33021249621E+02  0.34700186538E+02  0.00000000000E+00 0. -1.
</event>
<event>
 7    1  0.2834226E-010  0.4778727E+02  0.7816164E-02  0.1312668E+00
        -11   -1    0    0    0    0  0.00000000000E+00  0.00000000000E+00  0.45593999997E+02  0.45594000000E+02  0.51100000000E-03 0.  1.
         11   -1    0    0    0    0 -0.00000000000E+00 -0.00000000000E+00 -0.45593999997E+02  0.45594000000E+02  0.51100000000E-03 0. -1.
    9900012    2    1    2    0    0  0.92294354977E+01  0.41642859473E+02 -0.80195364944E+01  0.47787272008E+02  0.20000004392E+02 0.  0.
        -12    1    1    2    0    0 -0.92294354977E+01 -0.41642859473E+02  0.80195364944E+01  0.43400727992E+02  0.00000000000E+00 0.  1.
         11    1    3    3    0    0  0.54688021003E+01  0.14884368051E+02 -0.40697087002E+00  0.15862466210E+02  0.51100000000E-03 0. -1.
        -11    1    3    3    0    0  0.55328251596E+00  0.10951891507E+01  0.35497701220E+01  0.37558526327E+01  0.51100000000E-03 0.  1.
        -12    1    3    3    0    0  0.32073508814E+01  0.25663302271E+02 -0.11162335746E+02  0.28168953165E+02  0.00000000000E+00 0.  1.
</event>
<event>
 7    1  0.2834226E-010  0.4778727E+02  0.7816164E-02  0.1312668E+00
        -11   -1    0    0    0    0  0.00000000000E+00  0.00000000000E+00  0.45593999997E+02  0.45594000000E+02  0.51100000000E-03 0.  1.
         11   -1    0    0    0    0 -0.00000000000E+00 -0.00000000000E+00 -0.45593999997E+02  0.45594000000E+02  0.51100000000E-03 0. -1.
    9900012    2    1    2    0    0 -0.45220054514E+01  0.43135349091E+02  0.15863555806E+01  0.47787269608E+02  0.19999993450E+02 0.  0.
        -12    1    1    2    0    0  0.45220054514E+01 -0.43135349091E+02 -0.15863555806E+01  0.43400730392E+02  0.00000000000E+00 0.  1.
         11    1    3    3    0    0 -0.75099654298E+01  0.22600955595E+02 -0.63399125973E+01  0.24645430947E+02  0.51100000000E-03 0. -1.
        -11    1    3    3    0    0  0.24429332752E+01  0.44004822092E+01  0.42451609952E+01  0.65843419410E+01  0.51100000000E-03 0.  1.
        -12    1    3    3    0    0  0.54502670318E+00  0.16133911287E+02  0.36811071826E+01  0.16557496720E+02  0.00000000000E+00 0.  1.
</event>
<event>
 7    1  0.2834226E-010  0.4778727E+02  0.7816164E-02  0.1312668E+00
        -11   -1    0    0    0    0  0.00000000000E+00  0.00000000000E+00  0.45593999997E+02  0.45594000000E+02  0.51100000000E-03 0.  1.
         11   -1    0    0    0    0 -0.00000000000E+00 -0.00000000000E+00 -0.45593999997E+02  0.45594000000E+02  0.51100000000E-03 0. -1.
    9900012    2    1    2    0    0  0.16426256363E+02  0.24095654272E+02 -0.32143445952E+02  0.47787267627E+02  0.19999984417E+02 0.  0.
        -12    1    1    2    0    0 -0.16426256363E+02 -0.24095654272E+02  0.32143445952E+02  0.43400732373E+02  0.00000000000E+00 0.  1.
         11    1    3    3    0    0  0.74648384473E+01  0.45447307251E+01 -0.16563437220E+02  0.18727675862E+02  0.51100000000E-03 0. -1.
        -11    1    3    3    0    0  0.25666327684E+01  0.11783688429E+02 -0.21039523167E+01  0.12242121236E+02  0.51100000000E-03 0.  1.
        -12    1    3    3    0    0  0.63947851468E+01  0.77672351184E+01 -0.13476056415E+02  0.16817470528E+02  0.00000000000E+00 0.  1.
</event>
<event>
 7    1  0.2834226E-010  0.4778727E+02  0.7816164E-02  0.1312668E+00
        -11   -1    0    0    0    0  0.00000000000E+00  0.00000000000E+00  0.45593999997E+02  0.45594000000E+02  0.51100000000E-03 0. -1.
         11   -1    0    0    0    0 -0.00000000000E+00 -0.00000000000E+00 -0.45593999997E+02  0.45594000000E+02  0.51100000000E-03 0.  1.
    9900012    2    1    2    0    0 -0.23655437015E+02 -0.36355475847E+02  0.15240585974E+01  0.47787273289E+02  0.20000010232E+02 0.  0.
        -12    1    1    2    0    0  0.23655437015E+02  0.36355475847E+02 -0.15240585974E+01  0.43400726711E+02  0.00000000000E+00 0.  1.
         11    1    3    3    0    0 -0.19232163202E+02 -0.22877163661E+02 -0.20337535253E+01  0.29956249302E+02  0.51100000000E-03 0. -1.
        -11    1    3    3    0    0  0.10560313904E+01 -0.14192832228E+01 -0.26633175021E+01  0.31973156776E+01  0.51100000000E-03 0.  1.
         12    1    3    3    0    0 -0.54793052040E+01 -0.12059028964E+02  0.62211296248E+01  0.14633708309E+02  0.00000000000E+00 0. -1.
</event>
<event>
 7    1  0.2834226E-010  0.4778727E+02  0.7816164E-02  0.1312668E+00
        -11   -1    0    0    0    0  0.00000000000E+00  0.00000000000E+00  0.45593999997E+02  0.45594000000E+02  0.51100000000E-03 0.  1.
         11   -1    0    0    0    0 -0.00000000000E+00 -0.00000000000E+00 -0.45593999997E+02  0.45594000000E+02  0.51100000000E-03 0. -1.
    9900012    2    1    2    0    0  0.30332979014E+02 -0.72423862787E+01 -0.30184127611E+02  0.47787270346E+02  0.19999996815E+02 0.  0.
        -12    1    1    2    0    0 -0.30332979014E+02  0.72423862787E+01  0.30184127611E+02  0.43400729654E+02  0.00000000000E+00 0.  1.
         11    1    3    3    0    0  0.22525736450E+02  0.11652583590E+01 -0.24924091332E+02  0.33615129907E+02  0.51100000000E-03 0. -1.
        -11    1    3    3    0    0  0.66456002568E+00 -0.53260125606E+01 -0.18338084222E+01  0.56719400044E+01  0.51100000000E-03 0.  1.
         12    1    3    3    0    0  0.71426825382E+01 -0.30816320771E+01 -0.34262278564E+01  0.85002004344E+01  0.00000000000E+00 0. -1.
</event>
<event>
 7    1  0.2834226E-010  0.4778727E+02  0.7816164E-02  0.1312668E+00
        -11   -1    0    0    0    0  0.00000000000E+00  0.00000000000E+00  0.45593999997E+02  0.45594000000E+02  0.51100000000E-03 0.  1.
         11   -1    0    0    0    0 -0.00000000000E+00 -0.00000000000E+00 -0.45593999997E+02  0.45594000000E+02  0.51100000000E-03 0. -1.
    9900012    2    1    2    0    0  0.80074201856E+01  0.24951657539E+02 -0.34596520689E+02  0.47787271484E+02  0.20000002002E+02 0.  0.
        -12    1    1    2    0    0 -0.80074201856E+01 -0.24951657539E+02  0.34596520689E+02  0.43400728516E+02  0.00000000000E+00 0.  1.
         11    1    3    3    0    0  0.44472524014E+01  0.28202451042E+01 -0.79340454206E+01  0.95226526435E+01  0.51100000000E-03 0. -1.
        -11    1    3    3    0    0  0.76510709208E+01  0.11162514130E+02 -0.21645884038E+02  0.25528119868E+02  0.51100000000E-03 0.  1.
        -12    1    3    3    0    0 -0.40909031366E+01  0.10968898305E+02 -0.50165912298E+01  0.12736498972E+02  0.00000000000E+00 0.  1.
</event>
<event>
 7    1  0.2834226E-010  0.4778727E+02  0.7816164E-02  0.1312668E+00
        -11   -1    0    0    0    0  0.00000000000E+00  0.00000000000E+00  0.45593999997E+02  0.45594000000E+02  0.51100000000E-03 0. -1.
         11   -1    0    0    0    0 -0.00000000000E+00 -0.00000000000E+00 -0.45593999997E+02  0.45594000000E+02  0.51100000000E-03 0.  1.
    9900012    2    1    2    0    0 -0.33502592829E+02  0.11559009711E+02  0.25051723805E+02  0.47787270773E+02  0.19999998764E+02 0.  0.
        -12    1    1    2    0    0  0.33502592829E+02 -0.11559009711E+02 -0.25051723805E+02  0.43400729227E+02  0.00000000000E+00 0.  1.
         11    1    3    3    0    0 -0.25385291310E+02  0.25125781226E+01  0.17084806230E+02  0.30702062926E+02  0.51100000000E-03 0. -1.
        -11    1    3    3    0    0 -0.35533865121E+01  0.87124627985E+01  0.82312225719E+01  0.12501463475E+02  0.51100000000E-03 0.  1.
        -12    1    3    3    0    0 -0.45639150072E+01  0.33396878979E+00 -0.26430499667E+00  0.45837443729E+01  0.00000000000E+00 0.  1.
</event>
<event>
 7    1  0.2834226E-010  0.4778727E+02  0.7816164E-02  0.1312668E+00
        -11   -1    0    0    0    0  0.00000000000E+00  0.00000000000E+00  0.45593999997E+02  0.45594000000E+02  0.51100000000E-03 0.  1.
         11   -1    0    0    0    0 -0.00000000000E+00 -0.00000000000E+00 -0.45593999997E+02  0.45594000000E+02  0.51100000000E-03 0. -1.
    9900012    2    1    2    0    0  0.19960379490E+02  0.37947382773E+02 -0.67233119299E+01  0.47787268070E+02  0.19999986441E+02 0.  0.
        -12    1    1    2    0    0 -0.19960379490E+02 -0.37947382773E+02  0.67233119299E+01  0.43400731930E+02  0.00000000000E+00 0.  1.
         11    1    3    3    0    0  0.49223105523E+01  0.21093760815E+02 -0.34302700118E+01  0.21930404445E+02  0.51100000000E-03 0. -1.
        -11    1    3    3    0    0  0.11542568941E+02  0.64458097319E+01 -0.60468287065E+01  0.14537657945E+02  0.51100000000E-03 0.  1.
        -12    1    3    3    0    0  0.34954999959E+01  0.10407812226E+02  0.27537867884E+01  0.11319205680E+02  0.00000000000E+00 0.  1.
</event>
<event>
 7    1  0.2834226E-010  0.4778726E+02  0.7816164E-02  0.1312668E+00
        -11   -1    0    0    0    0  0.00000000000E+00  0.00000000000E+00  0.45593999997E+02  0.45594000000E+02  0.51100000000E-03 0. -1.
         11   -1    0    0    0    0 -0.00000000000E+00 -0.00000000000E+00 -0.45593999997E+02  0.45594000000E+02  0.51100000000E-03 0.  1.
    9900012    2    1    2    0    0  0.17668468650E+02 -0.35951708584E+02  0.16701015716E+02  0.47787261982E+02  0.19999958683E+02 0.  0.
        -12    1    1    2    0    0 -0.17668468650E+02  0.35951708584E+02 -0.16701015716E+02  0.43400738018E+02  0.00000000000E+00 0.  1.
         11    1    3    3    0    0  0.52240556018E+01 -0.17562347341E+02 -0.22721054389E+01  0.18463186736E+02  0.51100000000E-03 0. -1.
        -11    1    3    3    0    0  0.96849915755E+01 -0.15426674256E+02  0.16518067568E+02  0.24589182517E+02  0.51100000000E-03 0.  1.
         12    1    3    3    0    0  0.27594214725E+01 -0.29626869867E+01  0.24550535862E+01  0.47348927290E+01  0.00000000000E+00 0. -1.
</event>
<event>
 7    1  0.2834226E-010  0.4778727E+02  0.7816164E-02  0.1312668E+00
        -11   -1    0    0    0    0  0.00000000000E+00  0.00000000000E+00  0.45593999997E+02  0.45594000000E+02  0.51100000000E-03 0.  1.
         11   -1    0    0    0    0 -0.00000000000E+00 -0.00000000000E+00 -0.45593999997E+02  0.45594000000E+02  0.51100000000E-03 0. -1.
    9900012    2    1    2    0    0 -0.18361377917E+02  0.16403962206E+02 -0.35740643395E+02  0.47787265382E+02  0.19999974185E+02 0.  0.
        -12    1    1    2    0    0  0.18361377917E+02 -0.16403962206E+02  0.35740643395E+02  0.43400734618E+02  0.00000000000E+00 0.  1.
         11    1    3    3    0    0 -0.15133924629E+02  0.14262058101E+02 -0.29778654902E+02  0.36320934239E+02  0.51100000000E-03 0. -1.
        -11    1    3    3    0    0 -0.45775522092E+00  0.53838891536E+01 -0.24087183897E+01  0.59158876598E+01  0.51100000000E-03 0.  1.
         12    1    3    3    0    0 -0.27696980670E+01 -0.32419850488E+01 -0.35532701029E+01  0.55504434834E+01  0.00000000000E+00 0. -1.
</event>
<event>
 7    1  0.2834226E-010  0.4778727E+02  0.7816164E-02  0.1312668E+00
        -11   -1    0    0    0    0  0.00000000000E+00  0.00000000000E+00  0.45593999997E+02  0.45594000000E+02  0.51100000000E-03 0.  1.
         11   -1    0    0    0    0 -0.00000000000E+00 -0.00000000000E+00 -0.45593999997E+02  0.45594000000E+02  0.51100000000E-03 0. -1.
    9900012    2    1    2    0    0  0.67252579889E+01 -0.18599808181E+01 -0.42836141734E+02  0.47787266570E+02  0.19999979598E+02 0.  0.
        -12    1    1    2    0    0 -0.67252579889E+01  0.18599808181E+01  0.42836141734E+02  0.43400733430E+02  0.00000000000E+00 0.  1.
         11    1    3    3    0    0 -0.31529984470E+01 -0.56511346858E+01 -0.16633724192E+02  0.17848179269E+02  0.51100000000E-03 0. -1.
        -11    1    3    3    0    0  0.79323539834E+01  0.60040117210E+01 -0.12772686156E+02  0.16189870548E+02  0.51100000000E-03 0.  1.
         12    1    3    3    0    0  0.19459024525E+01 -0.22128578533E+01 -0.13429731385E+02  0.13749216753E+02  0.00000000000E+00 0. -1.
</event>
<event>
 7    1  0.2834226E-010  0.4778727E+02  0.7816164E-02  0.1312668E+00
        -11   -1    0    0    0    0  0.00000000000E+00  0.00000000000E+00  0.45593999997E+02  0.45594000000E+02  0.51100000000E-03 0. -1.
         11   -1    0    0    0    0 -0.00000000000E+00 -0.00000000000E+00 -0.45593999997E+02  0.45594000000E+02  0.51100000000E-03 0.  1.
    9900012    2    1    2    0    0  0.48078011359E+01 -0.30013472768E+02  0.30979024928E+02  0.47787268613E+02  0.19999988916E+02 0.  0.
        -12    1    1    2    0    0 -0.48078011359E+01  0.30013472768E+02 -0.30979024928E+02  0.43400731387E+02  0.00000000000E+00 0.  1.
         11    1    3    3    0    0  0.50044613658E+01 -0.24177458357E+02  0.18074925225E+02  0.30598971360E+02  0.51100000000E-03 0. -1.
        -11    1    3    3    0    0 -0.75515265529E+00 -0.76349027519E+01  0.52270128958E+01  0.92835154784E+01  0.51100000000E-03 0.  1.
         12    1    3    3    0    0  0.55849242542E+00  0.17988883405E+01  0.76770868078E+01  0.79047817747E+01  0.00000000000E+00 0. -1.
</event>
<event>
 7    1  0.2834226E-010  0.4778727E+02  0.7816164E-02  0.1312668E+00
        -11   -1    0    0    0    0  0.00000000000E+00  0.00000000000E+00  0.45593999997E+02  0.45594000000E+02  0.51100000000E-03 0.  1.
         11   -1    0    0    0    0 -0.00000000000E+00 -0.00000000000E+00 -0.45593999997E+02  0.45594000000E+02  0.51100000000E-03 0. -1.
    9900012    2    1    2    0    0  0.47170173648E+01  0.41464880380E+02 -0.11917907397E+02  0.47787273342E+02  0.20000010474E+02 0.  0.
        -12    1    1    2    0    0 -0.47170173648E+01 -0.41464880380E+02  0.11917907397E+02  0.43400726658E+02  0.00000000000E+00 0.  1.
         11    1    3    3    0    0 -0.31347703955E+01  0.34632378372E+02 -0.10133604458E+02  0.36220413536E+02  0.51100000000E-03 0. -1.
        -11    1    3    3    0    0  0.41697975881E-01  0.88961426626E+00 -0.15050958805E+01  0.17488470873E+01  0.51100000000E-03 0.  1.
         12    1    3    3    0    0  0.78100897844E+01  0.59428877415E+01 -0.27920705772E+00  0.98180127179E+01  0.00000000000E+00 0. -1.
</event>
<event>
 7    1  0.2834226E-010  0.4778727E+02  0.7816164E-02  0.1312668E+00
        -11   -1    0    0    0    0  0.00000000000E+00  0.00000000000E+00  0.45593999997E+02  0.45594000000E+02  0.51100000000E-03 0. -1.
         11   -1    0    0    0    0 -0.00000000000E+00 -0.00000000000E+00 -0.45593999997E+02  0.45594000000E+02  0.51100000000E-03 0.  1.
    9900012    2    1    2    0    0 -0.14290113684E+02  0.23219523543E+01  0.40914847549E+02  0.47787267727E+02  0.19999984877E+02 0.  0.
        -12    1    1    2    0    0  0.14290113684E+02 -0.23219523543E+01 -0.40914847549E+02  0.43400732273E+02  0.00000000000E+00 0.  1.
         11    1    3    3    0    0 -0.42129125580E+01 -0.69541058754E+00  0.29979740914E+02  0.30282290099E+02  0.51100000000E-03 0. -1.
        -11    1    3    3    0    0 -0.10892974362E+02  0.21846814703E+01  0.63978752414E+01  0.12820395136E+02  0.51100000000E-03 0.  1.
        -12    1    3    3    0    0  0.81577323635E+00  0.83268147148E+00  0.45372313936E+01  0.46845824921E+01  0.00000000000E+00 0.  1.
</event>
<event>
 7    1  0.2834226E-010  0.4778727E+02  0.7816164E-02  0.1312668E+00
        -11   -1    0    0    0    0  0.00000000000E+00  0.00000000000E+00  0.45593999997E+02  0.45594000000E+02  0.51100000000E-03 0. -1.
         11   -1    0    0    0    0 -0.00000000000E+00 -0.00000000000E+00 -0.45593999997E+02  0.45594000000E+02  0.51100000000E-03 0.  1.
    9900012    2    1    2    0    0 -0.28816616550E+02  0.43604226990E+01  0.32159181878E+02  0.47787266659E+02  0.19999980004E+02 0.  0.
        -12    1    1    2    0    0  0.28816616550E+02 -0.43604226990E+01 -0.32159181878E+02  0.43400733341E+02  0.00000000000E+00 0.  1.
         11    1    3    3    0    0 -0.73456592045E+01 -0.28745622808E+00  0.11005201241E+02  0.13234643737E+02  0.51100000000E-03 0. -1.
        -11    1    3    3    0    0 -0.20532459242E+02  0.29081147944E+01  0.23594213514E+02  0.31412193903E+02  0.51100000000E-03 0.  1.
        -12    1    3    3    0    0 -0.93849810336E+00  0.17397641326E+01 -0.24402328771E+01  0.31404290187E+01  0.00000000000E+00 0.  1.
</event>
<event>
 7    1  0.2834226E-010  0.4778727E+02  0.7816164E-02  0.1312668E+00
        -11   -1    0    0    0    0  0.00000000000E+00  0.00000000000E+00  0.45593999997E+02  0.45594000000E+02  0.51100000000E-03 0.  1.
         11   -1    0    0    0    0 -0.00000000000E+00 -0.00000000000E+00 -0.45593999997E+02  0.45594000000E+02  0.51100000000E-03 0. -1.
    9900012    2    1    2    0    0 -0.41859040405E+02 -0.71839499943E+01  0.89350592738E+01  0.47787266304E+02  0.19999978386E+02 0.  0.
        -12    1    1    2    0    0  0.41859040405E+02  0.71839499943E+01 -0.89350592738E+01  0.43400733696E+02  0.00000000000E+00 0.  1.
         11    1    3    3    0    0 -0.14293948722E+02 -0.18390011100E+01  0.42585120341E+01  0.15027768302E+02  0.51100000000E-03 0. -1.
        -11    1    3    3    0    0 -0.28163679751E+02 -0.55497938507E+01  0.68015440347E+00  0.28713336260E+02  0.51100000000E-03 0.  1.
        -12    1    3    3    0    0  0.59858806830E+00  0.20484496648E+00  0.39963928362E+01  0.40461617413E+01  0.00000000000E+00 0.  1.
</event>
<event>
 7    1  0.2834226E-010  0.4778727E+02  0.7816164E-02  0.1312668E+00
        -11   -1    0    0    0    0  0.00000000000E+00  0.00000000000E+00  0.45593999997E+02  0.45594000000E+02  0.51100000000E-03 0. -1.
         11   -1    0    0    0    0 -0.00000000000E+00 -0.00000000000E+00 -0.45593999997E+02  0.45594000000E+02  0.51100000000E-03 0.  1.
    9900012    2    1    2    0    0 -0.24607944912E+02  0.24008881777E+02  0.26488600571E+02  0.47787270546E+02  0.19999997726E+02 0.  0.
        -12    1    1    2    0    0  0.24607944912E+02 -0.24008881777E+02 -0.26488600571E+02  0.43400729454E+02  0.00000000000E+00 0.  1.
         11    1    3    3    0    0 -0.20128234027E+02  0.15458003924E+02  0.24929466136E+02  0.35574906500E+02  0.51100000000E-03 0. -1.
        -11    1    3    3    0    0 -0.51566733703E+01  0.44409714326E+01 -0.15923330391E+01  0.69892082729E+01  0.51100000000E-03 0.  1.
         12    1    3    3    0    0  0.67696248592E+00  0.41099064202E+01  0.31514674744E+01  0.52231557733E+01  0.00000000000E+00 0. -1.
</event>
<event>
 7    1  0.2834226E-010  0.4778728E+02  0.7816164E-02  0.1312668E+00
        -11   -1    0    0    0    0  0.00000000000E+00  0.00000000000E+00  0.45593999997E+02  0.45594000000E+02  0.51100000000E-03 0.  1.
         11   -1    0    0    0    0 -0.00000000000E+00 -0.00000000000E+00 -0.45593999997E+02  0.45594000000E+02  0.51100000000E-03 0. -1.
    9900012    2    1    2    0    0  0.23106995216E+02 -0.24425656364E+02 -0.27442234539E+02  0.47787283955E+02  0.20000058866E+02 0.  0.
        -12    1    1    2    0    0 -0.23106995216E+02  0.24425656364E+02  0.27442234539E+02  0.43400716045E+02  0.00000000000E+00 0.  1.
         11    1    3    3    0    0  0.20748129711E+02 -0.21504627841E+02 -0.14346599939E+02  0.33147531359E+02  0.51100000000E-03 0. -1.
        -11    1    3    3    0    0 -0.17469994018E+01 -0.86923106778E+00 -0.41090513512E+01  0.45488320289E+01  0.51100000000E-03 0.  1.
         12    1    3    3    0    0  0.41058649064E+01 -0.20517974553E+01 -0.89865832483E+01  0.10090920568E+02  0.00000000000E+00 0. -1.
</event>
<event>
 7    1  0.2834226E-010  0.4778727E+02  0.7816164E-02  0.1312668E+00
        -11   -1    0    0    0    0  0.00000000000E+00  0.00000000000E+00  0.45593999997E+02  0.45594000000E+02  0.51100000000E-03 0.  1.
         11   -1    0    0    0    0 -0.00000000000E+00 -0.00000000000E+00 -0.45593999997E+02  0.45594000000E+02  0.51100000000E-03 0. -1.
    9900012    2    1    2    0    0  0.95431396928E+01  0.23964558967E+02 -0.34903465817E+02  0.47787268120E+02  0.19999986666E+02 0.  0.
        -12    1    1    2    0    0 -0.95431396928E+01 -0.23964558967E+02  0.34903465817E+02  0.43400731880E+02  0.00000000000E+00 0.  1.
         11    1    3    3    0    0  0.10316161648E+02  0.19782661951E+02 -0.30405790978E+02  0.37713247411E+02  0.51100000000E-03 0. -1.
        -11    1    3    3    0    0  0.29336949496E+00 -0.23627295228E+01 -0.12923097192E+01  0.27089889498E+01  0.51100000000E-03 0.  1.
        -12    1    3    3    0    0 -0.10663914505E+01  0.65446265392E+01 -0.32053651197E+01  0.73650317592E+01  0.00000000000E+00 0.  1.
</event>
<event>
 7    1  0.2834226E-010  0.4778727E+02  0.7816164E-02  0.1312668E+00
        -11   -1    0    0    0    0  0.00000000000E+00  0.00000000000E+00  0.45593999997E+02  0.45594000000E+02  0.51100000000E-03 0. -1.
         11   -1    0    0    0    0 -0.00000000000E+00 -0.00000000000E+00 -0.45593999997E+02  0.45594000000E+02  0.51100000000E-03 0.  1.
    9900012    2    1    2    0    0 -0.26375807219E+02  0.32663320354E+02  0.11002164456E+02  0.47787270447E+02  0.19999997278E+02 0.  0.
        -12    1    1    2    0    0  0.26375807219E+02 -0.32663320354E+02 -0.11002164456E+02  0.43400729553E+02  0.00000000000E+00 0.  1.
         11    1    3    3    0    0 -0.72834415558E+01  0.19861015903E+02  0.67733703258E+01  0.22212316840E+02  0.51100000000E-03 0. -1.
        -11    1    3    3    0    0 -0.15106648913E+02  0.12124997088E+02 -0.46978793670E+00  0.19376457280E+02  0.51100000000E-03 0.  1.
         12    1    3    3    0    0 -0.39857167497E+01  0.67730736340E+00  0.46985820672E+01  0.61984963269E+01  0.00000000000E+00 0. -1.
</event>
<event>
 7    1  0.2834226E-010  0.4778728E+02  0.7816164E-02  0.1312668E+00
        -11   -1    0    0    0    0  0.00000000000E+00  0.00000000000E+00  0.45593999997E+02  0.45594000000E+02  0.51100000000E-03 0. -1.
         11   -1    0    0    0    0 -0.00000000000E+00 -0.00000000000E+00 -0.45593999997E+02  0.45594000000E+02  0.51100000000E-03 0.  1.
    9900012    2    1    2    0    0 -0.22187989122E+02  0.23009020078E+02  0.29358151026E+02  0.47787275376E+02  0.20000019748E+02 0.  0.
        -12    1    1    2    0    0  0.22187989122E+02 -0.23009020078E+02 -0.29358151026E+02  0.43400724624E+02  0.00000000000E+00 0.  1.
         11    1    3    3    0    0 -0.76630174713E+01  0.71990755845E+01  0.57603569866E+00  0.10529973572E+02  0.51100000000E-03 0.  1.
        -11    1    3    3    0    0 -0.43942824222E+01  0.47226601247E+01  0.16955396432E+02  0.18141077837E+02  0.51100000000E-03 0. -1.
        -12    1    3    3    0    0 -0.10130689229E+02  0.11087284368E+02  0.11826718896E+02  0.19116223967E+02  0.00000000000E+00 0.  1.
</event>
<event>
 7    1  0.2834226E-010  0.4778727E+02  0.7816164E-02  0.1312668E+00
        -11   -1    0    0    0    0  0.00000000000E+00  0.00000000000E+00  0.45593999997E+02  0.45594000000E+02  0.51100000000E-03 0.  1.
         11   -1    0    0    0    0 -0.00000000000E+00 -0.00000000000E+00 -0.45593999997E+02  0.45594000000E+02  0.51100000000E-03 0. -1.
    9900012    2    1    2    0    0 -0.92888659074E+01  0.41275942976E+02 -0.96766125671E+01  0.47787270407E+02  0.19999997094E+02 0.  0.
        -12    1    1    2    0    0  0.92888659074E+01 -0.41275942976E+02  0.96766125671E+01  0.43400729593E+02  0.00000000000E+00 0.  1.
         11    1    3    3    0    0 -0.80920081209E+01  0.33637420710E+02 -0.88113122037E+01  0.35701483029E+02  0.51100000000E-03 0. -1.
        -11    1    3    3    0    0 -0.62473627692E+00 -0.93550317285E+00  0.25902095172E+01  0.28239417852E+01  0.51100000000E-03 0.  1.
        -12    1    3    3    0    0 -0.57212150949E+00  0.85740254391E+01 -0.34555098806E+01  0.92618455929E+01  0.00000000000E+00 0.  1.
</event>
<event>
 7    1  0.2834226E-010  0.4778727E+02  0.7816164E-02  0.1312668E+00
        -11   -1    0    0    0    0  0.00000000000E+00  0.00000000000E+00  0.45593999997E+02  0.45594000000E+02  0.51100000000E-03 0. -1.
         11   -1    0    0    0    0 -0.00000000000E+00 -0.00000000000E+00 -0.45593999997E+02  0.45594000000E+02  0.51100000000E-03 0.  1.
    9900012    2    1    2    0    0  0.20203314078E+01 -0.33883461206E+02  0.27045381019E+02  0.47787270550E+02  0.19999997747E+02 0.  0.
        -12    1    1    2    0    0 -0.20203314078E+01  0.33883461206E+02 -0.27045381019E+02  0.43400729450E+02  0.00000000000E+00 0.  1.
         11    1    3    3    0    0 -0.18590048060E+01 -0.23811602331E+02  0.99062558588E+01  0.25856956701E+02  0.51100000000E-03 0. -1.
        -11    1    3    3    0    0 -0.14214740340E+01 -0.52985732793E+00  0.65467914472E+01  0.67202541419E+01  0.51100000000E-03 0.  1.
         12    1    3    3    0    0  0.53008102478E+01 -0.95420015467E+01  0.10592333713E+02  0.15210059707E+02  0.00000000000E+00 0. -1.
</event>
<event>
 7    1  0.2834226E-010  0.4778727E+02  0.7816164E-02  0.1312668E+00
        -11   -1    0    0    0    0  0.00000000000E+00  0.00000000000E+00  0.45593999997E+02  0.45594000000E+02  0.51100000000E-03 0.  1.
         11   -1    0    0    0    0 -0.00000000000E+00 -0.00000000000E+00 -0.45593999997E+02  0.45594000000E+02  0.51100000000E-03 0. -1.
    9900012    2    1    2    0    0  0.42677049364E+02 -0.57475556126E+01 -0.54090742718E+01  0.47787273941E+02  0.20000013208E+02 0.  0.
        -12    1    1    2    0    0 -0.42677049364E+02  0.57475556126E+01  0.54090742718E+01  0.43400726059E+02  0.00000000000E+00 0.  1.
         11    1    3    3    0    0  0.18303807647E+02  0.77425747576E+00 -0.10150607200E+02  0.20944299363E+02  0.51100000000E-03 0. -1.
        -11    1    3    3    0    0  0.43557858181E+01  0.48140478474E+00  0.34841648488E+01  0.55985735339E+01  0.51100000000E-03 0.  1.
         12    1    3    3    0    0  0.20017455899E+02 -0.70032178731E+01  0.12573680794E+01  0.21244401044E+02  0.00000000000E+00 0. -1.
</event>
<event>
 7    1  0.2834226E-010  0.4778727E+02  0.7816164E-02  0.1312668E+00
        -11   -1    0    0    0    0  0.00000000000E+00  0.00000000000E+00  0.45593999997E+02  0.45594000000E+02  0.51100000000E-03 0.  1.
         11   -1    0    0    0    0 -0.00000000000E+00 -0.00000000000E+00 -0.45593999997E+02  0.45594000000E+02  0.51100000000E-03 0. -1.
    9900012    2    1    2    0    0 -0.75615114577E+01  0.36510680561E+02 -0.22212989612E+02  0.47787272379E+02  0.20000006085E+02 0.  0.
        -12    1    1    2    0    0  0.75615114577E+01 -0.36510680561E+02  0.22212989612E+02  0.43400727621E+02  0.00000000000E+00 0.  1.
         11    1    3    3    0    0 -0.45694501549E+01  0.29554468472E+02 -0.21088520789E+02  0.36593335332E+02  0.51100000000E-03 0. -1.
        -11    1    3    3    0    0  0.38732580234E+00 -0.17501478312E+01 -0.50891538636E-01  0.17932174765E+01  0.51100000000E-03 0.  1.
         12    1    3    3    0    0 -0.33793871051E+01  0.87063599196E+01 -0.10735772841E+01  0.94007195703E+01  0.00000000000E+00 0. -1.
</event>
<event>
 7    1  0.2834226E-010  0.4778727E+02  0.7816164E-02  0.1312668E+00
        -11   -1    0    0    0    0  0.00000000000E+00  0.00000000000E+00  0.45593999997E+02  0.45594000000E+02  0.51100000000E-03 0.  1.
         11   -1    0    0    0    0 -0.00000000000E+00 -0.00000000000E+00 -0.45593999997E+02  0.45594000000E+02  0.51100000000E-03 0. -1.
    9900012    2    1    2    0    0 -0.29901847725E+02 -0.19592052211E+02 -0.24610047398E+02  0.47787269129E+02  0.19999991266E+02 0.  0.
        -12    1    1    2    0    0  0.29901847725E+02  0.19592052211E+02  0.24610047398E+02  0.43400730871E+02  0.00000000000E+00 0.  1.
         11    1    3    3    0    0 -0.93183279009E+01 -0.19998023253E+01 -0.40140676132E+01  0.10341333728E+02  0.51100000000E-03 0. -1.
        -11    1    3    3    0    0 -0.20125631555E+02 -0.19843669969E+02 -0.20867965157E+02  0.35132381835E+02  0.51100000000E-03 0.  1.
        -12    1    3    3    0    0 -0.45788826933E+00  0.22514200839E+01  0.27198537174E+00  0.23135535662E+01  0.00000000000E+00 0.  1.
</event>
<event>
 7    1  0.2834226E-010  0.4778727E+02  0.7816164E-02  0.1312668E+00
        -11   -1    0    0    0    0  0.00000000000E+00  0.00000000000E+00  0.45593999997E+02  0.45594000000E+02  0.51100000000E-03 0. -1.
         11   -1    0    0    0    0 -0.00000000000E+00 -0.00000000000E+00 -0.45593999997E+02  0.45594000000E+02  0.51100000000E-03 0.  1.
    9900012    2    1    2    0    0  0.21345337408E+02  0.29987248815E+02  0.22994882062E+02  0.47787272799E+02  0.20000007998E+02 0.  0.
        -12    1    1    2    0    0 -0.21345337408E+02 -0.29987248815E+02 -0.22994882062E+02  0.43400727201E+02  0.00000000000E+00 0.  1.
         11    1    3    3    0    0  0.88397466205E+01  0.16428230780E+02  0.19547355491E+02  0.27020862196E+02  0.51100000000E-03 0. -1.
        -11    1    3    3    0    0  0.79393226727E+01  0.98027146846E+01  0.64136833603E+01  0.14151374286E+02  0.51100000000E-03 0.  1.
         12    1    3    3    0    0  0.45662681145E+01  0.37563033510E+01 -0.29661567897E+01  0.66150363158E+01  0.00000000000E+00 0. -1.
</event>
<event>
 7    1  0.2834226E-010  0.4778727E+02  0.7816164E-02  0.1312668E+00
        -11   -1    0    0    0    0  0.00000000000E+00  0.00000000000E+00  0.45593999997E+02  0.45594000000E+02  0.51100000000E-03 0.  1.
         11   -1    0    0    0    0 -0.00000000000E+00 -0.00000000000E+00 -0.45593999997E+02  0.45594000000E+02  0.51100000000E-03 0. -1.
    9900012    2    1    2    0    0 -0.69078902035E+01 -0.50844151252E+00 -0.42844436382E+02  0.47787272026E+02  0.20000004473E+02 0.  0.
        -12    1    1    2    0    0  0.69078902035E+01  0.50844151252E+00  0.42844436382E+02  0.43400727974E+02  0.00000000000E+00 0.  1.
         11    1    3    3    0    0 -0.35669323590E+01 -0.25111593750E+01 -0.18593389681E+02  0.19098247771E+02  0.51100000000E-03 0. -1.
        -11    1    3    3    0    0  0.14115153444E+01 -0.54797993804E+01 -0.52365570705E+01  0.77098707532E+01  0.51100000000E-03 0.  1.
        -12    1    3    3    0    0 -0.47524731889E+01  0.74825172430E+01 -0.19014489631E+02  0.20979153501E+02  0.00000000000E+00 0.  1.
</event>
<event>
 7    1  0.2834226E-010  0.4778727E+02  0.7816164E-02  0.1312668E+00
        -11   -1    0    0    0    0  0.00000000000E+00  0.00000000000E+00  0.45593999997E+02  0.45594000000E+02  0.51100000000E-03 0. -1.
         11   -1    0    0    0    0 -0.00000000000E+00 -0.00000000000E+00 -0.45593999997E+02  0.45594000000E+02  0.51100000000E-03 0.  1.
    9900012    2    1    2    0    0  0.35876395280E+02  0.47438042274E+01  0.23958377736E+02  0.47787270967E+02  0.19999999648E+02 0.  0.
        -12    1    1    2    0    0 -0.35876395280E+02 -0.47438042274E+01 -0.23958377736E+02  0.43400729033E+02  0.00000000000E+00 0.  1.
         11    1    3    3    0    0  0.34314677864E+01  0.11518429618E+01 -0.25611844531E+01  0.44341154069E+01  0.51100000000E-03 0.  1.
        -11    1    3    3    0    0  0.15231736804E+02  0.17100858777E+01  0.19164844405E+02  0.24540200918E+02  0.51100000000E-03 0. -1.
         12    1    3    3    0    0  0.17213190689E+02  0.18818753879E+01  0.73547177842E+01  0.18812954642E+02  0.00000000000E+00 0. -1.
</event>
<event>
 7    1  0.2834226E-010  0.4778727E+02  0.7816164E-02  0.1312668E+00
        -11   -1    0    0    0    0  0.00000000000E+00  0.00000000000E+00  0.45593999997E+02  0.45594000000E+02  0.51100000000E-03 0. -1.
         11   -1    0    0    0    0 -0.00000000000E+00 -0.00000000000E+00 -0.45593999997E+02  0.45594000000E+02  0.51100000000E-03 0.  1.
    9900012    2    1    2    0    0 -0.22231205993E+02  0.21908936934E+02  0.30156180993E+02  0.47787270864E+02  0.19999999178E+02 0.  0.
        -12    1    1    2    0    0  0.22231205993E+02 -0.21908936934E+02 -0.30156180993E+02  0.43400729136E+02  0.00000000000E+00 0.  1.
         11    1    3    3    0    0 -0.16807335829E+02  0.34153626934E+01  0.15666434644E+02  0.23229042484E+02  0.51100000000E-03 0. -1.
        -11    1    3    3    0    0 -0.15882963658E+01  0.19986871266E+01  0.52092672192E+00  0.26055326685E+01  0.51100000000E-03 0.  1.
         12    1    3    3    0    0 -0.38355737975E+01  0.16494887114E+02  0.13968819627E+02  0.21952695712E+02  0.00000000000E+00 0. -1.
</event>
<event>
 7    1  0.2834226E-010  0.4778727E+02  0.7816164E-02  0.1312668E+00
        -11   -1    0    0    0    0  0.00000000000E+00  0.00000000000E+00  0.45593999997E+02  0.45594000000E+02  0.51100000000E-03 0.  1.
         11   -1    0    0    0    0 -0.00000000000E+00 -0.00000000000E+00 -0.45593999997E+02  0.45594000000E+02  0.51100000000E-03 0. -1.
    9900012    2    1    2    0    0 -0.16246718251E+01 -0.56942257126E+00 -0.43366571331E+02  0.47787270632E+02  0.19999998121E+02 0.  0.
        -12    1    1    2    0    0  0.16246718251E+01  0.56942257126E+00  0.43366571331E+02  0.43400729368E+02  0.00000000000E+00 0.  1.
         11    1    3    3    0    0 -0.41374643839E+00 -0.19605217251E+00 -0.42684122044E+02  0.42686577486E+02  0.51100000000E-03 0. -1.
        -11    1    3    3    0    0  0.41706646522E+00  0.16624063660E+01  0.10132257955E+01  0.19910213800E+01  0.51100000000E-03 0.  1.
         12    1    3    3    0    0 -0.16279918519E+01 -0.20357767647E+01 -0.16956750831E+01  0.31096717661E+01  0.00000000000E+00 0. -1.
</event>
<event>
 7    1  0.2834226E-010  0.4778727E+02  0.7816164E-02  0.1312668E+00
        -11   -1    0    0    0    0  0.00000000000E+00  0.00000000000E+00  0.45593999997E+02  0.45594000000E+02  0.51100000000E-03 0.  1.
         11   -1    0    0    0    0 -0.00000000000E+00 -0.00000000000E+00 -0.45593999997E+02  0.45594000000E+02  0.51100000000E-03 0. -1.
    9900012    2    1    2    0    0 -0.17350961557E+02  0.43575437237E+01 -0.39542117791E+02  0.47787272660E+02  0.20000007365E+02 0.  0.
        -12    1    1    2    0    0  0.17350961557E+02 -0.43575437237E+01  0.39542117791E+02  0.43400727340E+02  0.00000000000E+00 0.  1.
         11    1    3    3    0    0  0.28679627079E+01  0.45860837419E+01 -0.52494863541E+01  0.75375381541E+01  0.51100000000E-03 0. -1.
        -11    1    3    3    0    0 -0.14157420808E+02 -0.28815005381E+01 -0.24040599696E+02  0.28047924046E+02  0.51100000000E-03 0.  1.
         12    1    3    3    0    0 -0.60615034568E+01  0.26529605199E+01 -0.10252031741E+02  0.12201810460E+02  0.00000000000E+00 0. -1.
</event>
<event>
 7    1  0.2834226E-010  0.4778728E+02  0.7816164E-02  0.1312668E+00
        -11   -1    0    0    0    0  0.00000000000E+00  0.00000000000E+00  0.45593999997E+02  0.45594000000E+02  0.51100000000E-03 0.  1.
         11   -1    0    0    0    0 -0.00000000000E+00 -0.00000000000E+00 -0.45593999997E+02  0.45594000000E+02  0.51100000000E-03 0. -1.
    9900012    2    1    2    0    0 -0.85384247630E+00 -0.23532723291E+02 -0.36456889801E+02  0.47787275047E+02  0.20000018249E+02 0.  0.
        -12    1    1    2    0    0  0.85384247630E+00  0.23532723291E+02  0.36456889801E+02  0.43400724953E+02  0.00000000000E+00 0.  1.
         11    1    3    3    0    0  0.33428571724E+01 -0.17827455328E+01 -0.16600160158E+00  0.37921540716E+01  0.51100000000E-03 0. -1.
        -11    1    3    3    0    0 -0.71955472277E+01 -0.95921467587E+01 -0.21477665009E+02  0.24598277863E+02  0.51100000000E-03 0.  1.
         12    1    3    3    0    0  0.29988475789E+01 -0.12157831000E+02 -0.14813223191E+02  0.19396843112E+02  0.00000000000E+00 0. -1.
</event>
<event>
 7    1  0.2834226E-010  0.4778727E+02  0.7816164E-02  0.1312668E+00
        -11   -1    0    0    0    0  0.00000000000E+00  0.00000000000E+00  0.45593999997E+02  0.45594000000E+02  0.51100000000E-03 0.  1.
         11   -1    0    0    0    0 -0.00000000000E+00 -0.00000000000E+00 -0.45593999997E+02  0.45594000000E+02  0.51100000000E-03 0. -1.
    9900012    2    1    2    0    0  0.13023410309E+02  0.20208510213E+02 -0.36133502437E+02  0.47787273054E+02  0.20000009162E+02 0.  0.
        -12    1    1    2    0    0 -0.13023410309E+02 -0.20208510213E+02  0.36133502437E+02  0.43400726946E+02  0.00000000000E+00 0.  1.
         11    1    3    3    0    0  0.29517903454E+01  0.61953798581E+01 -0.24733825254E+02  0.25668227632E+02  0.51100000000E-03 0. -1.
        -11    1    3    3    0    0  0.16045728388E+01  0.69294300960E+01 -0.14533700813E+01  0.72597479505E+01  0.51100000000E-03 0.  1.
         12    1    3    3    0    0  0.84670471250E+01  0.70837002584E+01 -0.99463071015E+01  0.14859297471E+02  0.00000000000E+00 0. -1.
</event>
<event>
 7    1  0.2834226E-010  0.4778727E+02  0.7816164E-02  0.1312668E+00
        -11   -1    0    0    0    0  0.00000000000E+00  0.00000000000E+00  0.45593999997E+02  0.45594000000E+02  0.51100000000E-03 0. -1.
         11   -1    0    0    0    0 -0.00000000000E+00 -0.00000000000E+00 -0.45593999997E+02  0.45594000000E+02  0.51100000000E-03 0.  1.
    9900012    2    1    2    0    0  0.27841181574E+02 -0.17269789076E+02  0.28464825447E+02  0.47787270814E+02  0.19999998949E+02 0.  0.
        -12    1    1    2    0    0 -0.27841181574E+02  0.17269789076E+02 -0.28464825447E+02  0.43400729186E+02  0.00000000000E+00 0.  1.
         11    1    3    3    0    0  0.20553562367E+01 -0.25857222982E+01  0.62913491432E+01  0.71057387629E+01  0.51100000000E-03 0.  1.
        -11    1    3    3    0    0  0.65084639168E+01 -0.88123606071E+01  0.16393716195E+02  0.19717295275E+02  0.51100000000E-03 0. -1.
        -12    1    3    3    0    0  0.19277361420E+02 -0.58717061703E+01  0.57797601094E+01  0.20964236776E+02  0.00000000000E+00 0.  1.
</event>
<event>
 7    1  0.2834226E-010  0.4778727E+02  0.7816164E-02  0.1312668E+00
        -11   -1    0    0    0    0  0.00000000000E+00  0.00000000000E+00  0.45593999997E+02  0.45594000000E+02  0.51100000000E-03 0.  1.
         11   -1    0    0    0    0 -0.00000000000E+00 -0.00000000000E+00 -0.45593999997E+02  0.45594000000E+02  0.51100000000E-03 0. -1.
    9900012    2    1    2    0    0 -0.74085215012E+01 -0.38078549731E+02 -0.19461794296E+02  0.47787267544E+02  0.19999984042E+02 0.  0.
        -12    1    1    2    0    0  0.74085215012E+01  0.38078549731E+02  0.19461794296E+02  0.43400732456E+02  0.00000000000E+00 0.  1.
         11    1    3    3    0    0 -0.77064444389E+01 -0.20230185282E+02 -0.36437947035E+01  0.21952834043E+02  0.51100000000E-03 0. -1.
        -11    1    3    3    0    0  0.72344053646E-01  0.10390385562E+01 -0.25412323142E+01  0.27463970433E+01  0.51100000000E-03 0.  1.
         12    1    3    3    0    0  0.22557888400E+00 -0.18887403006E+02 -0.13276767278E+02  0.23088036458E+02  0.00000000000E+00 0. -1.
</event>
<event>
 7    1  0.2834226E-010  0.4778727E+02  0.7816164E-02  0.1312668E+00
        -11   -1    0    0    0    0  0.00000000000E+00  0.00000000000E+00  0.45593999997E+02  0.45594000000E+02  0.51100000000E-03 0.  1.
         11   -1    0    0    0    0 -0.00000000000E+00 -0.00000000000E+00 -0.45593999997E+02  0.45594000000E+02  0.51100000000E-03 0. -1.
    9900012    2    1    2    0    0  0.28662018977E+02 -0.21999029492E+02 -0.24044845152E+02  0.47787271794E+02  0.20000003418E+02 0.  0.
        -12    1    1    2    0    0 -0.28662018977E+02  0.21999029492E+02  0.24044845152E+02  0.43400728206E+02  0.00000000000E+00 0.  1.
         11    1    3    3    0    0  0.22537674205E+02 -0.15566350304E+02 -0.16509998471E+02  0.31981839692E+02  0.51100000000E-03 0. -1.
        -11    1    3    3    0    0  0.55981536033E+00  0.21840108461E+01  0.99547505918E+00  0.24646029028E+01  0.51100000000E-03 0.  1.
         12    1    3    3    0    0  0.55645294122E+01 -0.86166900340E+01 -0.85303217401E+01  0.13340829199E+02  0.00000000000E+00 0. -1.
</event>
<event>
 7    1  0.2834226E-010  0.4778727E+02  0.7816164E-02  0.1312668E+00
        -11   -1    0    0    0    0  0.00000000000E+00  0.00000000000E+00  0.45593999997E+02  0.45594000000E+02  0.51100000000E-03 0.  1.
         11   -1    0    0    0    0 -0.00000000000E+00 -0.00000000000E+00 -0.45593999997E+02  0.45594000000E+02  0.51100000000E-03 0. -1.
    9900012    2    1    2    0    0 -0.51737410837E+01  0.40203952598E+02 -0.15507992628E+02  0.47787271473E+02  0.20000001954E+02 0.  0.
        -12    1    1    2    0    0  0.51737410837E+01 -0.40203952598E+02  0.15507992628E+02  0.43400728527E+02  0.00000000000E+00 0.  1.
         11    1    3    3    0    0 -0.10503658979E+02  0.20214214965E+02 -0.97355254833E+01  0.24773409037E+02  0.51100000000E-03 0. -1.
        -11    1    3    3    0    0  0.40543460025E+01  0.26682370746E+01 -0.59332644250E+00  0.48897082861E+01  0.51100000000E-03 0.  1.
        -12    1    3    3    0    0  0.12755718923E+01  0.17321500558E+02 -0.51791407026E+01  0.18124154150E+02  0.00000000000E+00 0.  1.
</event>
<event>
 7    1  0.2834226E-010  0.4778727E+02  0.7816164E-02  0.1312668E+00
        -11   -1    0    0    0    0  0.00000000000E+00  0.00000000000E+00  0.45593999997E+02  0.45594000000E+02  0.51100000000E-03 0.  1.
         11   -1    0    0    0    0 -0.00000000000E+00 -0.00000000000E+00 -0.45593999997E+02  0.45594000000E+02  0.51100000000E-03 0. -1.
    9900012    2    1    2    0    0 -0.99352615115E+01 -0.51439501800E+01 -0.41933920886E+02  0.47787269988E+02  0.19999995182E+02 0.  0.
        -12    1    1    2    0    0  0.99352615115E+01  0.51439501800E+01  0.41933920886E+02  0.43400730012E+02  0.00000000000E+00 0.  1.
         11    1    3    3    0    0 -0.83709091150E+01 -0.10107744134E+02 -0.19462611014E+02  0.23474067364E+02  0.51100000000E-03 0. -1.
        -11    1    3    3    0    0 -0.36434313704E+01  0.39874054347E+01 -0.79494697050E+01  0.96108305106E+01  0.51100000000E-03 0.  1.
         12    1    3    3    0    0  0.20790789740E+01  0.97638851885E+00 -0.14521840167E+02  0.14702372113E+02  0.00000000000E+00 0. -1.
</event>
<event>
 7    1  0.2834226E-010  0.4778727E+02  0.7816164E-02  0.1312668E+00
        -11   -1    0    0    0    0  0.00000000000E+00  0.00000000000E+00  0.45593999997E+02  0.45594000000E+02  0.51100000000E-03 0.  1.
         11   -1    0    0    0    0 -0.00000000000E+00 -0.00000000000E+00 -0.45593999997E+02  0.45594000000E+02  0.51100000000E-03 0. -1.
    9900012    2    1    2    0    0  0.15702816537E+02  0.40439770522E+02  0.12921922607E+01  0.47787271344E+02  0.20000001364E+02 0.  0.
        -12    1    1    2    0    0 -0.15702816537E+02 -0.40439770522E+02 -0.12921922607E+01  0.43400728656E+02  0.00000000000E+00 0.  1.
         11    1    3    3    0    0  0.15046184794E+02  0.16531764263E+02 -0.17531500482E+01  0.22422320171E+02  0.51100000000E-03 0. -1.
        -11    1    3    3    0    0  0.35195882276E+01  0.96679805274E+01  0.33991716787E+01  0.10835668744E+02  0.51100000000E-03 0.  1.
         12    1    3    3    0    0 -0.28629564843E+01  0.14240025732E+02 -0.35382936974E+00  0.14529282429E+02  0.00000000000E+00 0. -1.
</event>
<event>
 7    1  0.2834226E-010  0.4778727E+02  0.7816164E-02  0.1312668E+00
        -11   -1    0    0    0    0  0.00000000000E+00  0.00000000000E+00  0.45593999997E+02  0.45594000000E+02  0.51100000000E-03 0. -1.
         11   -1    0    0    0    0 -0.00000000000E+00 -0.00000000000E+00 -0.45593999997E+02  0.45594000000E+02  0.51100000000E-03 0.  1.
    9900012    2    1    2    0    0 -0.12916299946E+02  0.40626925567E+02  0.81391235480E+01  0.47787271694E+02  0.20000002962E+02 0.  0.
        -12    1    1    2    0    0  0.12916299946E+02 -0.40626925567E+02 -0.81391235480E+01  0.43400728306E+02  0.00000000000E+00 0.  1.
         11    1    3    3    0    0 -0.11522339790E+02  0.35059303406E+02 -0.18307431784E-01  0.36904192241E+02  0.51100000000E-03 0. -1.
        -11    1    3    3    0    0  0.13220310897E+01  0.42671699665E+00  0.16273745829E+01  0.21396733142E+01  0.51100000000E-03 0.  1.
         12    1    3    3    0    0 -0.27159912457E+01  0.51409051649E+01  0.65300563969E+01  0.87434061388E+01  0.00000000000E+00 0. -1.
</event>
<event>
 7    1  0.2834226E-010  0.4778727E+02  0.7816164E-02  0.1312668E+00
        -11   -1    0    0    0    0  0.00000000000E+00  0.00000000000E+00  0.45593999997E+02  0.45594000000E+02  0.51100000000E-03 0. -1.
         11   -1    0    0    0    0 -0.00000000000E+00 -0.00000000000E+00 -0.45593999997E+02  0.45594000000E+02  0.51100000000E-03 0.  1.
    9900012    2    1    2    0    0  0.39405086738E+01 -0.75178252858E+01  0.42562633737E+02  0.47787273091E+02  0.20000009329E+02 0.  0.
        -12    1    1    2    0    0 -0.39405086738E+01  0.75178252858E+01 -0.42562633737E+02  0.43400726909E+02  0.00000000000E+00 0.  1.
         11    1    3    3    0    0 -0.61646300389E+01 -0.85264686081E+01  0.28172227575E+02  0.30072873778E+02  0.51100000000E-03 0. -1.
        -11    1    3    3    0    0  0.94493027087E+01  0.44128235643E+00  0.13306914398E+02  0.16326604756E+02  0.51100000000E-03 0.  1.
         12    1    3    3    0    0  0.65583600404E+00  0.56736096590E+00  0.10834917643E+01  0.13877945573E+01  0.00000000000E+00 0. -1.
</event>
<event>
 7    1  0.2834226E-010  0.4778726E+02  0.7816164E-02  0.1312668E+00
        -11   -1    0    0    0    0  0.00000000000E+00  0.00000000000E+00  0.45593999997E+02  0.45594000000E+02  0.51100000000E-03 0.  1.
         11   -1    0    0    0    0 -0.00000000000E+00 -0.00000000000E+00 -0.45593999997E+02  0.45594000000E+02  0.51100000000E-03 0. -1.
    9900012    2    1    2    0    0 -0.13165596816E+02  0.33294844994E+02 -0.24530474480E+02  0.47787264742E+02  0.19999971267E+02 0.  0.
        -12    1    1    2    0    0  0.13165596816E+02 -0.33294844994E+02  0.24530474480E+02  0.43400735258E+02  0.00000000000E+00 0.  1.
         11    1    3    3    0    0  0.81157082127E+00  0.12034240202E+01  0.13647327129E+01  0.19923283387E+01  0.51100000000E-03 0. -1.
        -11    1    3    3    0    0 -0.11551861692E+02  0.22590593282E+02 -0.25513207742E+02  0.35981998040E+02  0.51100000000E-03 0.  1.
        -12    1    3    3    0    0 -0.24253059451E+01  0.95008276916E+01 -0.38199945087E+00  0.98129383638E+01  0.00000000000E+00 0.  1.
</event>
<event>
 7    1  0.2834226E-010  0.4778727E+02  0.7816164E-02  0.1312668E+00
        -11   -1    0    0    0    0  0.00000000000E+00  0.00000000000E+00  0.45593999997E+02  0.45594000000E+02  0.51100000000E-03 0.  1.
         11   -1    0    0    0    0 -0.00000000000E+00 -0.00000000000E+00 -0.45593999997E+02  0.45594000000E+02  0.51100000000E-03 0. -1.
    9900012    2    1    2    0    0 -0.10459473471E+02  0.41657721307E+02  0.62335402357E+01  0.47787270125E+02  0.19999995808E+02 0.  0.
        -12    1    1    2    0    0  0.10459473471E+02 -0.41657721307E+02 -0.62335402357E+01  0.43400729875E+02  0.00000000000E+00 0.  1.
         11    1    3    3    0    0 -0.13116312248E+01  0.25411746698E+02 -0.35968671351E+01  0.25698534981E+02  0.51100000000E-03 0. -1.
        -11    1    3    3    0    0 -0.79440907321E+01  0.93417846556E+01  0.37862142747E+01  0.12834053799E+02  0.51100000000E-03 0.  1.
         12    1    3    3    0    0 -0.12037515138E+01  0.69041899535E+01  0.60441930962E+01  0.92546813454E+01  0.00000000000E+00 0. -1.
</event>
<event>
 7    1  0.2834226E-010  0.4778727E+02  0.7816164E-02  0.1312668E+00
        -11   -1    0    0    0    0  0.00000000000E+00  0.00000000000E+00  0.45593999997E+02  0.45594000000E+02  0.51100000000E-03 0.  1.
         11   -1    0    0    0    0 -0.00000000000E+00 -0.00000000000E+00 -0.45593999997E+02  0.45594000000E+02  0.51100000000E-03 0. -1.
    9900012    2    1    2    0    0  0.28885558933E+02 -0.14839665154E+02 -0.28792913932E+02  0.47787273400E+02  0.20000010739E+02 0.  0.
        -12    1    1    2    0    0 -0.28885558933E+02  0.14839665154E+02  0.28792913932E+02  0.43400726600E+02  0.00000000000E+00 0.  1.
         11    1    3    3    0    0  0.20983066888E+02 -0.54308860600E+01 -0.13655747632E+02  0.25617631878E+02  0.51100000000E-03 0. -1.
        -11    1    3    3    0    0  0.17818700990E+01 -0.73883868268E+01 -0.25297834801E+01  0.80101888661E+01  0.51100000000E-03 0.  1.
         12    1    3    3    0    0  0.61206219461E+01 -0.20203922667E+01 -0.12607382821E+02  0.14159452656E+02  0.00000000000E+00 0. -1.
</event>
<event>
 7    1  0.2834226E-010  0.4778732E+02  0.7816164E-02  0.1312668E+00
        -11   -1    0    0    0    0  0.00000000000E+00  0.00000000000E+00  0.45593999997E+02  0.45594000000E+02  0.51100000000E-03 0.  1.
         11   -1    0    0    0    0 -0.00000000000E+00 -0.00000000000E+00 -0.45593999997E+02  0.45594000000E+02  0.51100000000E-03 0. -1.
    9900012    2    1    2    0    0 -0.10972802171E+02  0.41758578633E+02 -0.44088727160E+01  0.47787315264E+02  0.20000201614E+02 0.  0.
        -12    1    1    2    0    0  0.10972802171E+02 -0.41758578633E+02  0.44088727160E+01  0.43400684736E+02  0.00000000000E+00 0.  1.
         11    1    3    3    0    0 -0.93818789846E+01  0.11090341836E+02 -0.46585986855E+01  0.15255093487E+02  0.51100000000E-03 0. -1.
        -11    1    3    3    0    0  0.12455181520E+01  0.45502744008E+01  0.37526883548E+01  0.60281823744E+01  0.51100000000E-03 0.  1.
         12    1    3    3    0    0 -0.28364413382E+01  0.26117962396E+02 -0.35029623853E+01  0.26504039403E+02  0.00000000000E+00 0. -1.
</event>
<event>
 7    1  0.2834226E-010  0.4778727E+02  0.7816164E-02  0.1312668E+00
        -11   -1    0    0    0    0  0.00000000000E+00  0.00000000000E+00  0.45593999997E+02  0.45594000000E+02  0.51100000000E-03 0.  1.
         11   -1    0    0    0    0 -0.00000000000E+00 -0.00000000000E+00 -0.45593999997E+02  0.45594000000E+02  0.51100000000E-03 0. -1.
    9900012    2    1    2    0    0  0.39900935297E+02  0.17073459590E+02  0.18885702408E+00  0.47787270433E+02  0.19999997213E+02 0.  0.
        -12    1    1    2    0    0 -0.39900935297E+02 -0.17073459590E+02 -0.18885702408E+00  0.43400729567E+02  0.00000000000E+00 0.  1.
         11    1    3    3    0    0  0.16438248733E+02  0.12283558806E+02 -0.61187707802E+00  0.20529886316E+02  0.51100000000E-03 0. -1.
        -11    1    3    3    0    0  0.22211824528E+02  0.20916466630E+00  0.21616957052E+01  0.22317746913E+02  0.51100000000E-03 0.  1.
        -12    1    3    3    0    0  0.12508620366E+01  0.45807361182E+01 -0.13609616032E+01  0.49396372038E+01  0.00000000000E+00 0.  1.
</event>
<event>
 7    1  0.2834226E-010  0.4778727E+02  0.7816164E-02  0.1312668E+00
        -11   -1    0    0    0    0  0.00000000000E+00  0.00000000000E+00  0.45593999997E+02  0.45594000000E+02  0.51100000000E-03 0.  1.
         11   -1    0    0    0    0 -0.00000000000E+00 -0.00000000000E+00 -0.45593999997E+02  0.45594000000E+02  0.51100000000E-03 0. -1.
    9900012    2    1    2    0    0 -0.42086510413E+02 -0.75725405747E+01  0.74165854853E+01  0.47787268788E+02  0.19999989711E+02 0.  0.
        -12    1    1    2    0    0  0.42086510413E+02  0.75725405747E+01 -0.74165854853E+01  0.43400731212E+02  0.00000000000E+00 0.  1.
         11    1    3    3    0    0 -0.33888749696E+02 -0.56732363715E+01  0.22380603602E+00  0.34361068905E+02  0.51100000000E-03 0. -1.
        -11    1    3    3    0    0 -0.48056021861E+01 -0.48265948940E+01  0.37456121247E+01  0.77729943452E+01  0.51100000000E-03 0.  1.
         12    1    3    3    0    0 -0.33921585308E+01  0.29272906907E+01  0.34471673246E+01  0.56532055376E+01  0.00000000000E+00 0. -1.
</event>
<event>
 7    1  0.2834226E-010  0.4778726E+02  0.7816164E-02  0.1312668E+00
        -11   -1    0    0    0    0  0.00000000000E+00  0.00000000000E+00  0.45593999997E+02  0.45594000000E+02  0.51100000000E-03 0. -1.
         11   -1    0    0    0    0 -0.00000000000E+00 -0.00000000000E+00 -0.45593999997E+02  0.45594000000E+02  0.51100000000E-03 0.  1.
    9900012    2    1    2    0    0  0.57885301816E+01  0.42774665097E+02 -0.45216064713E+01  0.47787262899E+02  0.19999962861E+02 0.  0.
        -12    1    1    2    0    0 -0.57885301816E+01 -0.42774665097E+02  0.45216064713E+01  0.43400737101E+02  0.00000000000E+00 0.  1.
         11    1    3    3    0    0  0.24310971002E+01  0.14495013376E+02  0.50675892918E-01  0.14697558103E+02  0.51100000000E-03 0. -1.
        -11    1    3    3    0    0  0.81531114058E+01  0.10654418849E+02  0.22263085508E+01  0.13599496926E+02  0.51100000000E-03 0.  1.
        -12    1    3    3    0    0 -0.47956783244E+01  0.17625232872E+02 -0.67985909150E+01  0.19490207870E+02  0.00000000000E+00 0.  1.
</event>
<event>
 7    1  0.2834226E-010  0.4778728E+02  0.7816164E-02  0.1312668E+00
        -11   -1    0    0    0    0  0.00000000000E+00  0.00000000000E+00  0.45593999997E+02  0.45594000000E+02  0.51100000000E-03 0.  1.
         11   -1    0    0    0    0 -0.00000000000E+00 -0.00000000000E+00 -0.45593999997E+02  0.45594000000E+02  0.51100000000E-03 0. -1.
    9900012    2    1    2    0    0  0.24995264833E+01  0.39247888919E+02 -0.18356965477E+02  0.47787278822E+02  0.20000035460E+02 0.  0.
        -12    1    1    2    0    0 -0.24995264833E+01 -0.39247888919E+02  0.18356965477E+02  0.43400721178E+02  0.00000000000E+00 0.  1.
         11    1    3    3    0    0 -0.80406787508E+01  0.17457407912E+02 -0.10056798511E+02  0.21692229077E+02  0.51100000000E-03 0. -1.
        -11    1    3    3    0    0  0.10053364118E+02  0.16313911232E+02 -0.73026179342E+01  0.20507122147E+02  0.51100000000E-03 0.  1.
        -12    1    3    3    0    0  0.48684111637E+00  0.54765697746E+01 -0.99754903188E+00  0.55879275979E+01  0.00000000000E+00 0.  1.
</event>
<event>
 7    1  0.2834226E-010  0.4778727E+02  0.7816164E-02  0.1312668E+00
        -11   -1    0    0    0    0  0.00000000000E+00  0.00000000000E+00  0.45593999997E+02  0.45594000000E+02  0.51100000000E-03 0. -1.
         11   -1    0    0    0    0 -0.00000000000E+00 -0.00000000000E+00 -0.45593999997E+02  0.45594000000E+02  0.51100000000E-03 0.  1.
    9900012    2    1    2    0    0  0.39751044349E+02 -0.20229454564E+01  0.17302750590E+02  0.47787274049E+02  0.20000013697E+02 0.  0.
        -12    1    1    2    0    0 -0.39751044349E+02  0.20229454564E+01 -0.17302750590E+02  0.43400725951E+02  0.00000000000E+00 0.  1.
         11    1    3    3    0    0  0.14128056614E+02 -0.70372272750E+00  0.44350194812E+01  0.14824527224E+02  0.51100000000E-03 0. -1.
        -11    1    3    3    0    0  0.21187777663E+02 -0.75239539185E+01  0.11349602420E+02  0.25186212106E+02  0.51100000000E-03 0.  1.
        -12    1    3    3    0    0  0.44352100718E+01  0.62047311896E+01  0.15181286881E+01  0.77765347186E+01  0.00000000000E+00 0.  1.
</event>
<event>
 7    1  0.2834226E-010  0.4778727E+02  0.7816164E-02  0.1312668E+00
        -11   -1    0    0    0    0  0.00000000000E+00  0.00000000000E+00  0.45593999997E+02  0.45594000000E+02  0.51100000000E-03 0.  1.
         11   -1    0    0    0    0 -0.00000000000E+00 -0.00000000000E+00 -0.45593999997E+02  0.45594000000E+02  0.51100000000E-03 0. -1.
    9900012    2    1    2    0    0  0.27332414768E+02 -0.27920678861E+02 -0.18894392333E+02  0.47787271126E+02  0.20000000374E+02 0.  0.
        -12    1    1    2    0    0 -0.27332414768E+02  0.27920678861E+02  0.18894392333E+02  0.43400728874E+02  0.00000000000E+00 0.  1.
         11    1    3    3    0    0 -0.98418507294E+00 -0.87037852335E+01 -0.42465019072E+01  0.97343349211E+01  0.51100000000E-03 0. -1.
        -11    1    3    3    0    0  0.25297172622E+01 -0.29488974288E+01  0.65250109560E+00  0.39396983912E+01  0.51100000000E-03 0.  1.
         12    1    3    3    0    0  0.25786882579E+02 -0.16267996199E+02 -0.15300391521E+02  0.34113237814E+02  0.00000000000E+00 0. -1.
</event>
<event>
 7    1  0.2834226E-010  0.4778727E+02  0.7816164E-02  0.1312668E+00
        -11   -1    0    0    0    0  0.00000000000E+00  0.00000000000E+00  0.45593999997E+02  0.45594000000E+02  0.51100000000E-03 0.  1.
         11   -1    0    0    0    0 -0.00000000000E+00 -0.00000000000E+00 -0.45593999997E+02  0.45594000000E+02  0.51100000000E-03 0. -1.
    9900012    2    1    2    0    0  0.38277365089E+02  0.57685534748E+01 -0.19626273883E+02  0.47787268280E+02  0.19999987394E+02 0.  0.
        -12    1    1    2    0    0 -0.38277365089E+02 -0.57685534748E+01  0.19626273883E+02  0.43400731720E+02  0.00000000000E+00 0.  1.
         11    1    3    3    0    0  0.79642045391E+01  0.55097540037E+01 -0.11765649091E+02  0.15238649609E+02  0.51100000000E-03 0. -1.
        -11    1    3    3    0    0  0.12781127525E+02 -0.31147810729E+01 -0.29606471155E+00  0.13158523341E+02  0.51100000000E-03 0.  1.
        -12    1    3    3    0    0  0.17532033025E+02  0.33735805440E+01 -0.75645600811E+01  0.19390095329E+02  0.00000000000E+00 0.  1.
</event>
<event>
 7    1  0.2834226E-010  0.4778727E+02  0.7816164E-02  0.1312668E+00
        -11   -1    0    0    0    0  0.00000000000E+00  0.00000000000E+00  0.45593999997E+02  0.45594000000E+02  0.51100000000E-03 0. -1.
         11   -1    0    0    0    0 -0.00000000000E+00 -0.00000000000E+00 -0.45593999997E+02  0.45594000000E+02  0.51100000000E-03 0.  1.
    9900012    2    1    2    0    0 -0.42587419839E+02 -0.77154273235E+01  0.32260436287E+01  0.47787268384E+02  0.19999987868E+02 0.  0.
        -12    1    1    2    0    0  0.42587419839E+02  0.77154273235E+01 -0.32260436287E+01  0.43400731616E+02  0.00000000000E+00 0.  1.
         11    1    3    3    0    0 -0.22002100259E+02  0.46242746317E+01 -0.19842116001E+00  0.22483676365E+02  0.51100000000E-03 0. -1.
        -11    1    3    3    0    0 -0.13529621617E+02 -0.10976383203E+02  0.19041747871E+00  0.17423200291E+02  0.51100000000E-03 0.  1.
        -12    1    3    3    0    0 -0.70556979640E+01 -0.13633187523E+01  0.32340473100E+01  0.78803917277E+01  0.00000000000E+00 0.  1.
</event>
<event>
 7    1  0.2834226E-010  0.4778731E+02  0.7816164E-02  0.1312668E+00
        -11   -1    0    0    0    0  0.00000000000E+00  0.00000000000E+00  0.45593999997E+02  0.45594000000E+02  0.51100000000E-03 0. -1.
         11   -1    0    0    0    0 -0.00000000000E+00 -0.00000000000E+00 -0.45593999997E+02  0.45594000000E+02  0.51100000000E-03 0.  1.
    9900012    2    1    2    0    0 -0.39405214748E+02 -0.18043579159E+02  0.22974426739E+01  0.47787309441E+02  0.20000175063E+02 0.  0.
        -12    1    1    2    0    0  0.39405214748E+02  0.18043579159E+02 -0.22974426739E+01  0.43400690559E+02  0.00000000000E+00 0.  1.
         11    1    3    3    0    0 -0.31056460834E+01 -0.24284293074E+01  0.57166612930E+01  0.69442438822E+01  0.51100000000E-03 0. -1.
        -11    1    3    3    0    0 -0.23825046763E+02 -0.12255978920E+02 -0.64831893236E+01  0.27565805205E+02  0.51100000000E-03 0.  1.
        -12    1    3    3    0    0 -0.12474521901E+02 -0.33591709321E+01  0.30639707045E+01  0.13277260353E+02  0.00000000000E+00 0.  1.
</event>
<event>
 7    1  0.2834226E-010  0.4778727E+02  0.7816164E-02  0.1312668E+00
        -11   -1    0    0    0    0  0.00000000000E+00  0.00000000000E+00  0.45593999997E+02  0.45594000000E+02  0.51100000000E-03 0.  1.
         11   -1    0    0    0    0 -0.00000000000E+00 -0.00000000000E+00 -0.45593999997E+02  0.45594000000E+02  0.51100000000E-03 0. -1.
    9900012    2    1    2    0    0 -0.21528647821E+02  0.37679593979E+02  0.62360510117E+00  0.47787270020E+02  0.19999995331E+02 0.  0.
        -12    1    1    2    0    0  0.21528647821E+02 -0.37679593979E+02 -0.62360510117E+00  0.43400729980E+02  0.00000000000E+00 0.  1.
         11    1    3    3    0    0 -0.49592592017E+01  0.10237984243E+01  0.13114761184E+01  0.52309067009E+01  0.51100000000E-03 0. -1.
        -11    1    3    3    0    0 -0.64433968515E+01  0.21164796990E+02 -0.66685799664E+01  0.23107054197E+02  0.51100000000E-03 0.  1.
        -12    1    3    3    0    0 -0.10125991768E+02  0.15490998565E+02  0.59807089491E+01  0.19449309123E+02  0.00000000000E+00 0.  1.
</event>
<event>
 7    1  0.2834226E-010  0.4778727E+02  0.7816164E-02  0.1312668E+00
        -11   -1    0    0    0    0  0.00000000000E+00  0.00000000000E+00  0.45593999997E+02  0.45594000000E+02  0.51100000000E-03 0. -1.
         11   -1    0    0    0    0 -0.00000000000E+00 -0.00000000000E+00 -0.45593999997E+02  0.45594000000E+02  0.51100000000E-03 0.  1.
    9900012    2    1    2    0    0 -0.40685863285E+02 -0.92743949292E+01  0.11927680970E+02  0.47787269063E+02  0.19999990966E+02 0.  0.
        -12    1    1    2    0    0  0.40685863285E+02  0.92743949292E+01 -0.11927680970E+02  0.43400730937E+02  0.00000000000E+00 0.  1.
         11    1    3    3    0    0 -0.14373728669E+02 -0.70138411221E+01 -0.28246686337E+01  0.16241206737E+02  0.51100000000E-03 0. -1.
        -11    1    3    3    0    0 -0.93789705388E+01 -0.23715038909E+01  0.98885155777E+00  0.97245538066E+01  0.51100000000E-03 0.  1.
         12    1    3    3    0    0 -0.16933164077E+02  0.11095008387E+00  0.13763498046E+02  0.21821508519E+02  0.00000000000E+00 0. -1.
</event>
<event>
 7    1  0.2834226E-010  0.4778727E+02  0.7816164E-02  0.1312668E+00
        -11   -1    0    0    0    0  0.00000000000E+00  0.00000000000E+00  0.45593999997E+02  0.45594000000E+02  0.51100000000E-03 0.  1.
         11   -1    0    0    0    0 -0.00000000000E+00 -0.00000000000E+00 -0.45593999997E+02  0.45594000000E+02  0.51100000000E-03 0. -1.
    9900012    2    1    2    0    0 -0.21847565848E+02 -0.24654812201E+02 -0.28256808840E+02  0.47787272541E+02  0.20000006823E+02 0.  0.
        -12    1    1    2    0    0  0.21847565848E+02  0.24654812201E+02  0.28256808840E+02  0.43400727459E+02  0.00000000000E+00 0.  1.
         11    1    3    3    0    0 -0.13056007589E+02 -0.21024008788E+02 -0.18694033884E+02  0.31015079925E+02  0.51100000000E-03 0. -1.
        -11    1    3    3    0    0  0.18543072230E+01  0.61751732940E+00 -0.29516153872E+01  0.35400305909E+01  0.51100000000E-03 0.  1.
        -12    1    3    3    0    0 -0.10645865482E+02 -0.42483207432E+01 -0.66111595691E+01  0.13232162025E+02  0.00000000000E+00 0.  1.
</event>
<event>
 7    1  0.2834226E-010  0.4778727E+02  0.7816164E-02  0.1312668E+00
        -11   -1    0    0    0    0  0.00000000000E+00  0.00000000000E+00  0.45593999997E+02  0.45594000000E+02  0.51100000000E-03 0.  1.
         11   -1    0    0    0    0 -0.00000000000E+00 -0.00000000000E+00 -0.45593999997E+02  0.45594000000E+02  0.51100000000E-03 0. -1.
    9900012    2    1    2    0    0  0.32619272822E+02  0.19656849361E+02 -0.20813805176E+02  0.47787272217E+02  0.20000005344E+02 0.  0.
        -12    1    1    2    0    0 -0.32619272822E+02 -0.19656849361E+02  0.20813805176E+02  0.43400727783E+02  0.00000000000E+00 0.  1.
         11    1    3    3    0    0  0.48860904394E-01  0.18460362301E+01 -0.63748372747E+01  0.66369260724E+01  0.51100000000E-03 0. -1.
        -11    1    3    3    0    0  0.26179722537E+02  0.14210696957E+02 -0.67884818534E+01  0.30551681889E+02  0.51100000000E-03 0.  1.
        -12    1    3    3    0    0  0.63906893807E+01  0.36001161739E+01 -0.76504860480E+01  0.10598664255E+02  0.00000000000E+00 0.  1.
</event>
<event>
 7    1  0.2834226E-010  0.4778727E+02  0.7816164E-02  0.1312668E+00
        -11   -1    0    0    0    0  0.00000000000E+00  0.00000000000E+00  0.45593999997E+02  0.45594000000E+02  0.51100000000E-03 0.  1.
         11   -1    0    0    0    0 -0.00000000000E+00 -0.00000000000E+00 -0.45593999997E+02  0.45594000000E+02  0.51100000000E-03 0. -1.
    9900012    2    1    2    0    0 -0.36497194403E+02 -0.12805618660E+02 -0.19687412459E+02  0.47787270998E+02  0.19999999789E+02 0.  0.
        -12    1    1    2    0    0  0.36497194403E+02  0.12805618660E+02  0.19687412459E+02  0.43400729002E+02  0.00000000000E+00 0.  1.
         11    1    3    3    0    0 -0.10772535910E+02  0.80988547415E+00 -0.51961042392E+01  0.11987616274E+02  0.51100000000E-03 0. -1.
        -11    1    3    3    0    0 -0.26214508686E+02 -0.88394621889E+01 -0.10623383837E+02  0.29634318650E+02  0.51100000000E-03 0.  1.
        -12    1    3    3    0    0  0.48985019309E+00 -0.47760419451E+01 -0.38679243828E+01  0.61653360739E+01  0.00000000000E+00 0.  1.
</event>
<event>
 7    1  0.2834226E-010  0.4778728E+02  0.7816164E-02  0.1312668E+00
        -11   -1    0    0    0    0  0.00000000000E+00  0.00000000000E+00  0.45593999997E+02  0.45594000000E+02  0.51100000000E-03 0.  1.
         11   -1    0    0    0    0 -0.00000000000E+00 -0.00000000000E+00 -0.45593999997E+02  0.45594000000E+02  0.51100000000E-03 0. -1.
    9900012    2    1    2    0    0  0.25686968802E+02  0.32712861067E+02 -0.12396409009E+02  0.47787278788E+02  0.20000035306E+02 0.  0.
        -12    1    1    2    0    0 -0.25686968802E+02 -0.32712861067E+02  0.12396409009E+02  0.43400721212E+02  0.00000000000E+00 0.  1.
         11    1    3    3    0    0  0.16403999022E+02  0.24824288842E+02 -0.34700177771E+00  0.29756628017E+02  0.51100000000E-03 0. -1.
        -11    1    3    3    0    0  0.85586547952E+01  0.87388697409E+01 -0.11487168563E+02  0.16780150718E+02  0.51100000000E-03 0.  1.
         12    1    3    3    0    0  0.72431498474E+00 -0.85029751652E+00 -0.56223866789E+00  0.12505000533E+01  0.00000000000E+00 0. -1.
</event>
<event>
 7    1  0.2834226E-010  0.4778727E+02  0.7816164E-02  0.1312668E+00
        -11   -1    0    0    0    0  0.00000000000E+00  0.00000000000E+00  0.45593999997E+02  0.45594000000E+02  0.51100000000E-03 0. -1.
         11   -1    0    0    0    0 -0.00000000000E+00 -0.00000000000E+00 -0.45593999997E+02  0.45594000000E+02  0.51100000000E-03 0.  1.
    9900012    2    1    2    0    0 -0.66483562802E+00 -0.93706002212E+01  0.42371843758E+02  0.47787270763E+02  0.19999998715E+02 0.  0.
        -12    1    1    2    0    0  0.66483562802E+00  0.93706002212E+01 -0.42371843758E+02  0.43400729237E+02  0.00000000000E+00 0.  1.
         11    1    3    3    0    0 -0.91496729399E+00  0.48278649435E+00  0.34890447303E+02  0.34905781200E+02  0.51100000000E-03 0. -1.
        -11    1    3    3    0    0 -0.12714043805E+01 -0.67955190587E+01  0.39219603884E+01  0.79484163155E+01  0.51100000000E-03 0.  1.
        -12    1    3    3    0    0  0.15215360465E+01 -0.30578676569E+01  0.35594360666E+01  0.49330732469E+01  0.00000000000E+00 0.  1.
</event>
<event>
 7    1  0.2834226E-010  0.4778728E+02  0.7816164E-02  0.1312668E+00
        -11   -1    0    0    0    0  0.00000000000E+00  0.00000000000E+00  0.45593999997E+02  0.45594000000E+02  0.51100000000E-03 0.  1.
         11   -1    0    0    0    0 -0.00000000000E+00 -0.00000000000E+00 -0.45593999997E+02  0.45594000000E+02  0.51100000000E-03 0. -1.
    9900012    2    1    2    0    0  0.12209288161E+02 -0.34067325333E+02 -0.23957742908E+02  0.47787276296E+02  0.20000023944E+02 0.  0.
        -12    1    1    2    0    0 -0.12209288161E+02  0.34067325333E+02  0.23957742908E+02  0.43400723704E+02  0.00000000000E+00 0.  1.
         11    1    3    3    0    0  0.70674229924E+00 -0.22569057744E+02 -0.10239800285E+02  0.24793454021E+02  0.51100000000E-03 0. -1.
        -11    1    3    3    0    0  0.15546150121E+01  0.16142888737E+00  0.90856872366E+00  0.18078673924E+01  0.51100000000E-03 0.  1.
         12    1    3    3    0    0  0.99479308499E+01 -0.11659696476E+02 -0.14626511347E+02  0.21185954883E+02  0.00000000000E+00 0. -1.
</event>
<event>
 7    1  0.2834226E-010  0.4778727E+02  0.7816164E-02  0.1312668E+00
        -11   -1    0    0    0    0  0.00000000000E+00  0.00000000000E+00  0.45593999997E+02  0.45594000000E+02  0.51100000000E-03 0.  1.
         11   -1    0    0    0    0 -0.00000000000E+00 -0.00000000000E+00 -0.45593999997E+02  0.45594000000E+02  0.51100000000E-03 0. -1.
    9900012    2    1    2    0    0 -0.21541860672E+02 -0.35142258069E+02 -0.13586517327E+02  0.47787268249E+02  0.19999987256E+02 0.  0.
        -12    1    1    2    0    0  0.21541860672E+02  0.35142258069E+02  0.13586517327E+02  0.43400731751E+02  0.00000000000E+00 0.  1.
         11    1    3    3    0    0 -0.10159577326E+02 -0.38869618246E+01 -0.69111000741E+01  0.12887543915E+02  0.51100000000E-03 0. -1.
        -11    1    3    3    0    0 -0.84614475234E+00 -0.10989873974E+02  0.27214894034E+00  0.11025758759E+02  0.51100000000E-03 0.  1.
         12    1    3    3    0    0 -0.10536138593E+02 -0.20265422271E+02 -0.69475661930E+01  0.23873965575E+02  0.00000000000E+00 0. -1.
</event>
<event>
 7    1  0.2834226E-010  0.4778725E+02  0.7816164E-02  0.1312668E+00
        -11   -1    0    0    0    0  0.00000000000E+00  0.00000000000E+00  0.45593999997E+02  0.45594000000E+02  0.51100000000E-03 0. -1.
         11   -1    0    0    0    0 -0.00000000000E+00 -0.00000000000E+00 -0.45593999997E+02  0.45594000000E+02  0.51100000000E-03 0.  1.
    9900012    2    1    2    0    0 -0.17889643890E+02 -0.11925024038E+02  0.37701191073E+02  0.47787246952E+02  0.19999890152E+02 0.  0.
        -12    1    1    2    0    0  0.17889643890E+02  0.11925024038E+02 -0.37701191073E+02  0.43400753048E+02  0.00000000000E+00 0.  1.
         11    1    3    3    0    0 -0.12500633345E+02 -0.11371967893E+02  0.34015771336E+02  0.37982366799E+02  0.51100000000E-03 0. -1.
        -11    1    3    3    0    0 -0.63086358445E+01 -0.21662338041E+01  0.13231585206E+01  0.68001620455E+01  0.51100000000E-03 0.  1.
         12    1    3    3    0    0  0.91962529946E+00  0.16131776592E+01  0.23622612164E+01  0.30047181076E+01  0.00000000000E+00 0. -1.
</event>
<event>
 7    1  0.2834226E-010  0.4778728E+02  0.7816164E-02  0.1312668E+00
        -11   -1    0    0    0    0  0.00000000000E+00  0.00000000000E+00  0.45593999997E+02  0.45594000000E+02  0.51100000000E-03 0.  1.
         11   -1    0    0    0    0 -0.00000000000E+00 -0.00000000000E+00 -0.45593999997E+02  0.45594000000E+02  0.51100000000E-03 0. -1.
    9900012    2    1    2    0    0 -0.29732611751E+02  0.19843408632E+02 -0.24613688738E+02  0.47787277184E+02  0.20000027994E+02 0.  0.
        -12    1    1    2    0    0  0.29732611751E+02 -0.19843408632E+02  0.24613688738E+02  0.43400722816E+02  0.00000000000E+00 0.  1.
         11    1    3    3    0    0 -0.20078636534E+02  0.21079095127E+02 -0.14877026120E+02  0.32692595536E+02  0.51100000000E-03 0. -1.
        -11    1    3    3    0    0 -0.83710685763E+01 -0.98849062115E+00 -0.42221963785E+01  0.94275577610E+01  0.51100000000E-03 0.  1.
        -12    1    3    3    0    0 -0.12829066410E+01 -0.24719587459E+00 -0.55144662394E+01  0.56671238874E+01  0.00000000000E+00 0.  1.
</event>
<event>
 7    1  0.2834226E-010  0.4778728E+02  0.7816164E-02  0.1312668E+00
        -11   -1    0    0    0    0  0.00000000000E+00  0.00000000000E+00  0.45593999997E+02  0.45594000000E+02  0.51100000000E-03 0.  1.
         11   -1    0    0    0    0 -0.00000000000E+00 -0.00000000000E+00 -0.45593999997E+02  0.45594000000E+02  0.51100000000E-03 0. -1.
    9900012    2    1    2    0    0 -0.15057995933E+02  0.33963381272E+02 -0.22435873291E+02  0.47787275130E+02  0.20000018626E+02 0.  0.
        -12    1    1    2    0    0  0.15057995933E+02 -0.33963381272E+02  0.22435873291E+02  0.43400724870E+02  0.00000000000E+00 0.  1.
         11    1    3    3    0    0 -0.22423740007E+01  0.12280986083E+02  0.87734270732E+00  0.12514814853E+02  0.51100000000E-03 0. -1.
        -11    1    3    3    0    0 -0.11158529346E+02  0.21599396644E+02 -0.23207318486E+02  0.33609914373E+02  0.51100000000E-03 0.  1.
         12    1    3    3    0    0 -0.16570925867E+01  0.82998544923E-01 -0.10589751225E+00  0.16625459038E+01  0.00000000000E+00 0. -1.
</event>
<event>
 7    1  0.2834226E-010  0.4778728E+02  0.7816164E-02  0.1312668E+00
        -11   -1    0    0    0    0  0.00000000000E+00  0.00000000000E+00  0.45593999997E+02  0.45594000000E+02  0.51100000000E-03 0. -1.
         11   -1    0    0    0    0 -0.00000000000E+00 -0.00000000000E+00 -0.45593999997E+02  0.45594000000E+02  0.51100000000E-03 0.  1.
    9900012    2    1    2    0    0  0.21008738068E+02 -0.16298836422E+02  0.34301655012E+02  0.47787277880E+02  0.20000031167E+02 0.  0.
        -12    1    1    2    0    0 -0.21008738068E+02  0.16298836422E+02 -0.34301655012E+02  0.43400722120E+02  0.00000000000E+00 0.  1.
         11    1    3    3    0    0  0.40885955575E+01  0.31881271153E+01  0.25610165180E+01  0.57826960843E+01  0.51100000000E-03 0.  1.
        -11    1    3    3    0    0  0.12985868184E+02 -0.14300253043E+02  0.16398963154E+02  0.25338824013E+02  0.51100000000E-03 0. -1.
         12    1    3    3    0    0  0.39342743271E+01 -0.51867104945E+01  0.15341675341E+02  0.16665757783E+02  0.00000000000E+00 0. -1.
</event>
<event>
 7    1  0.2834226E-010  0.4778727E+02  0.7816164E-02  0.1312668E+00
        -11   -1    0    0    0    0  0.00000000000E+00  0.00000000000E+00  0.45593999997E+02  0.45594000000E+02  0.51100000000E-03 0.  1.
         11   -1    0    0    0    0 -0.00000000000E+00 -0.00000000000E+00 -0.45593999997E+02  0.45594000000E+02  0.51100000000E-03 0. -1.
    9900012    2    1    2    0    0 -0.41976006386E+02  0.58149323508E+01  0.93714896153E+01  0.47787269961E+02  0.19999995058E+02 0.  0.
        -12    1    1    2    0    0  0.41976006386E+02 -0.58149323508E+01 -0.93714896153E+01  0.43400730039E+02  0.00000000000E+00 0.  1.
         11    1    3    3    0    0 -0.12503176195E+02  0.29719602145E+01 -0.44929483311E+01  0.13614277339E+02  0.51100000000E-03 0. -1.
        -11    1    3    3    0    0 -0.11901229327E+02 -0.36322887262E+01  0.66132601243E+01  0.14091415494E+02  0.51100000000E-03 0.  1.
         12    1    3    3    0    0 -0.17571600863E+02  0.64752608624E+01  0.72511778220E+01  0.20081577128E+02  0.00000000000E+00 0. -1.
</event>
<event>
 7    1  0.2834226E-010  0.4778727E+02  0.7816164E-02  0.1312668E+00
        -11   -1    0    0    0    0  0.00000000000E+00  0.00000000000E+00  0.45593999997E+02  0.45594000000E+02  0.51100000000E-03 0.  1.
         11   -1    0    0    0    0 -0.00000000000E+00 -0.00000000000E+00 -0.45593999997E+02  0.45594000000E+02  0.51100000000E-03 0. -1.
    9900012    2    1    2    0    0  0.24015130535E+02  0.29420099806E+02 -0.21008432748E+02  0.47787274041E+02  0.20000013664E+02 0.  0.
        -12    1    1    2    0    0 -0.24015130535E+02 -0.29420099806E+02  0.21008432748E+02  0.43400725959E+02  0.00000000000E+00 0.  1.
         11    1    3    3    0    0  0.53064923470E+01  0.98534545168E+01 -0.12945852426E+02  0.17112700612E+02  0.51100000000E-03 0. -1.
        -11    1    3    3    0    0  0.14044173872E+02  0.15683185993E+02 -0.11195650672E+02  0.23844155193E+02  0.51100000000E-03 0.  1.
         12    1    3    3    0    0  0.46644643157E+01  0.38834592969E+01  0.31330703505E+01  0.68304182364E+01  0.00000000000E+00 0. -1.
</event>
<event>
 7    1  0.2834226E-010  0.4778727E+02  0.7816164E-02  0.1312668E+00
        -11   -1    0    0    0    0  0.00000000000E+00  0.00000000000E+00  0.45593999997E+02  0.45594000000E+02  0.51100000000E-03 0.  1.
         11   -1    0    0    0    0 -0.00000000000E+00 -0.00000000000E+00 -0.45593999997E+02  0.45594000000E+02  0.51100000000E-03 0. -1.
    9900012    2    1    2    0    0 -0.17410050223E+02  0.17940450138E+02 -0.35477509444E+02  0.47787271017E+02  0.19999999875E+02 0.  0.
        -12    1    1    2    0    0  0.17410050223E+02 -0.17940450138E+02  0.35477509444E+02  0.43400728983E+02  0.00000000000E+00 0.  1.
         11    1    3    3    0    0 -0.12705688309E+02  0.15071511735E+02 -0.34795241869E+02  0.39991172005E+02  0.51100000000E-03 0. -1.
        -11    1    3    3    0    0 -0.12190003741E+01 -0.14757719916E+01  0.73216268639E+00  0.20493724268E+01  0.51100000000E-03 0.  1.
         12    1    3    3    0    0 -0.34853615399E+01  0.43447103945E+01 -0.14144302611E+01  0.57467265848E+01  0.00000000000E+00 0. -1.
</event>
<event>
 7    1  0.2834226E-010  0.4778727E+02  0.7816164E-02  0.1312668E+00
        -11   -1    0    0    0    0  0.00000000000E+00  0.00000000000E+00  0.45593999997E+02  0.45594000000E+02  0.51100000000E-03 0.  1.
         11   -1    0    0    0    0 -0.00000000000E+00 -0.00000000000E+00 -0.45593999997E+02  0.45594000000E+02  0.51100000000E-03 0. -1.
    9900012    2    1    2    0    0 -0.14797246003E+02 -0.22222049098E+02 -0.34217618364E+02  0.47787270031E+02  0.19999995377E+02 0.  0.
        -12    1    1    2    0    0  0.14797246003E+02  0.22222049098E+02  0.34217618364E+02  0.43400729969E+02  0.00000000000E+00 0.  1.
         11    1    3    3    0    0 -0.14833236837E+02 -0.11773847266E+02 -0.18807203290E+02  0.26690059767E+02  0.51100000000E-03 0. -1.
        -11    1    3    3    0    0  0.11604151062E+01 -0.92652765090E+01 -0.16621561644E+02  0.19064842611E+02  0.51100000000E-03 0.  1.
         12    1    3    3    0    0 -0.11244242726E+01 -0.11829253224E+01  0.12111465702E+01  0.20323676532E+01  0.00000000000E+00 0. -1.
</event>
<event>
 7    1  0.2834226E-010  0.4778727E+02  0.7816164E-02  0.1312668E+00
        -11   -1    0    0    0    0  0.00000000000E+00  0.00000000000E+00  0.45593999997E+02  0.45594000000E+02  0.51100000000E-03 0. -1.
         11   -1    0    0    0    0 -0.00000000000E+00 -0.00000000000E+00 -0.45593999997E+02  0.45594000000E+02  0.51100000000E-03 0.  1.
    9900012    2    1    2    0    0 -0.24034559818E+02  0.33273471870E+02  0.14101036516E+02  0.47787271587E+02  0.20000002475E+02 0.  0.
        -12    1    1    2    0    0  0.24034559818E+02 -0.33273471870E+02 -0.14101036516E+02  0.43400728413E+02  0.00000000000E+00 0.  1.
         11    1    3    3    0    0 -0.22285722462E+02  0.25991494202E+02  0.16450897187E+02  0.37984776095E+02  0.51100000000E-03 0. -1.
        -11    1    3    3    0    0 -0.25274742983E+01  0.38223623608E+01 -0.38179078716E+01  0.59644782775E+01  0.51100000000E-03 0.  1.
        -12    1    3    3    0    0  0.77863694141E+00  0.34596153066E+01  0.14680472001E+01  0.38380172144E+01  0.00000000000E+00 0.  1.
</event>
<event>
 7    1  0.2834226E-010  0.4778727E+02  0.7816164E-02  0.1312668E+00
        -11   -1    0    0    0    0  0.00000000000E+00  0.00000000000E+00  0.45593999997E+02  0.45594000000E+02  0.51100000000E-03 0. -1.
         11   -1    0    0    0    0 -0.00000000000E+00 -0.00000000000E+00 -0.45593999997E+02  0.45594000000E+02  0.51100000000E-03 0.  1.
    9900012    2    1    2    0    0  0.24150451735E+02  0.22392451163E+02  0.28265832601E+02  0.47787268662E+02  0.19999989136E+02 0.  0.
        -12    1    1    2    0    0 -0.24150451735E+02 -0.22392451163E+02 -0.28265832601E+02  0.43400731338E+02  0.00000000000E+00 0.  1.
         11    1    3    3    0    0  0.22275769927E+02  0.21259923684E+02  0.18257980422E+02  0.35798716880E+02  0.51100000000E-03 0. -1.
        -11    1    3    3    0    0  0.23516853769E+01 -0.20463593517E+01  0.66262532937E+01  0.73229258963E+01  0.51100000000E-03 0.  1.
         12    1    3    3    0    0 -0.47700356885E+00  0.31788868310E+01  0.33815988848E+01  0.46656258858E+01  0.00000000000E+00 0. -1.
</event>
<event>
 7    1  0.2834226E-010  0.4778727E+02  0.7816164E-02  0.1312668E+00
        -11   -1    0    0    0    0  0.00000000000E+00  0.00000000000E+00  0.45593999997E+02  0.45594000000E+02  0.51100000000E-03 0.  1.
         11   -1    0    0    0    0 -0.00000000000E+00 -0.00000000000E+00 -0.45593999997E+02  0.45594000000E+02  0.51100000000E-03 0. -1.
    9900012    2    1    2    0    0  0.33875959696E+02 -0.58966551619E+01 -0.26481541593E+02  0.47787271520E+02  0.20000002169E+02 0.  0.
        -12    1    1    2    0    0 -0.33875959696E+02  0.58966551619E+01  0.26481541593E+02  0.43400728480E+02  0.00000000000E+00 0.  1.
         11    1    3    3    0    0  0.76222960618E+01 -0.72517692718E+01 -0.89734370770E+01  0.13827875038E+02  0.51100000000E-03 0. -1.
        -11    1    3    3    0    0  0.26098078949E+02 -0.12365078780E+01 -0.17339651141E+02  0.31357649442E+02  0.51100000000E-03 0.  1.
        -12    1    3    3    0    0  0.15558468501E+00  0.25916219878E+01 -0.16845337509E+00  0.26017470403E+01  0.00000000000E+00 0.  1.
</event>
<event>
 7    1  0.2834226E-010  0.4778727E+02  0.7816164E-02  0.1312668E+00
        -11   -1    0    0    0    0  0.00000000000E+00  0.00000000000E+00  0.45593999997E+02  0.45594000000E+02  0.51100000000E-03 0.  1.
         11   -1    0    0    0    0 -0.00000000000E+00 -0.00000000000E+00 -0.45593999997E+02  0.45594000000E+02  0.51100000000E-03 0. -1.
    9900012    2    1    2    0    0  0.35544220997E+02  0.13362818214E+02 -0.21015861834E+02  0.47787274136E+02  0.20000014095E+02 0.  0.
        -12    1    1    2    0    0 -0.35544220997E+02 -0.13362818214E+02  0.21015861834E+02  0.43400725864E+02  0.00000000000E+00 0.  1.
         11    1    3    3    0    0  0.29227501414E+02  0.77963443658E+01 -0.10643297111E+02  0.32067266768E+02  0.51100000000E-03 0. -1.
        -11    1    3    3    0    0 -0.62235004128E+00  0.46041144365E+01 -0.54306697729E+01  0.71468429227E+01  0.51100000000E-03 0.  1.
         12    1    3    3    0    0  0.69390696244E+01  0.96235941209E+00 -0.49418949510E+01  0.85731644447E+01  0.00000000000E+00 0. -1.
</event>
<event>
 7    1  0.2834226E-010  0.4778727E+02  0.7816164E-02  0.1312668E+00
        -11   -1    0    0    0    0  0.00000000000E+00  0.00000000000E+00  0.45593999997E+02  0.45594000000E+02  0.51100000000E-03 0.  1.
         11   -1    0    0    0    0 -0.00000000000E+00 -0.00000000000E+00 -0.45593999997E+02  0.45594000000E+02  0.51100000000E-03 0. -1.
    9900012    2    1    2    0    0 -0.12130888698E+02  0.31169108242E+02  0.27657754662E+02  0.47787272331E+02  0.20000005868E+02 0.  0.
        -12    1    1    2    0    0  0.12130888698E+02 -0.31169108242E+02 -0.27657754662E+02  0.43400727669E+02  0.00000000000E+00 0.  1.
         11    1    3    3    0    0 -0.13061572963E+02  0.31052690545E+02  0.21017639118E+02  0.39706616989E+02  0.51100000000E-03 0. -1.
        -11    1    3    3    0    0 -0.73460681350E-01  0.39188832419E+00  0.69753801640E+01  0.69867661778E+01  0.51100000000E-03 0.  1.
         12    1    3    3    0    0  0.10041449462E+01 -0.27547062683E+00 -0.33526462010E+00  0.10938891647E+01  0.00000000000E+00 0. -1.
</event>
<event>
 7    1  0.2834226E-010  0.4778727E+02  0.7816164E-02  0.1312668E+00
        -11   -1    0    0    0    0  0.00000000000E+00  0.00000000000E+00  0.45593999997E+02  0.45594000000E+02  0.51100000000E-03 0.  1.
         11   -1    0    0    0    0 -0.00000000000E+00 -0.00000000000E+00 -0.45593999997E+02  0.45594000000E+02  0.51100000000E-03 0. -1.
    9900012    2    1    2    0    0  0.42595145208E+02  0.53383343683E+01 -0.63858440430E+01  0.47787271743E+02  0.20000003184E+02 0.  0.
        -12    1    1    2    0    0 -0.42595145208E+02 -0.53383343683E+01  0.63858440430E+01  0.43400728257E+02  0.00000000000E+00 0.  1.
         11    1    3    3    0    0  0.13762509827E+02  0.32679159795E+01 -0.23601541996E+01  0.14340721031E+02  0.51100000000E-03 0. -1.
        -11    1    3    3    0    0  0.22430014445E+02  0.68920549584E+01 -0.76077068161E+01  0.24667451689E+02  0.51100000000E-03 0.  1.
        -12    1    3    3    0    0  0.64026209355E+01 -0.48216365696E+01  0.35820169726E+01  0.87790990224E+01  0.00000000000E+00 0.  1.
</event>
<event>
 7    1  0.2834226E-010  0.4778727E+02  0.7816164E-02  0.1312668E+00
        -11   -1    0    0    0    0  0.00000000000E+00  0.00000000000E+00  0.45593999997E+02  0.45594000000E+02  0.51100000000E-03 0. -1.
         11   -1    0    0    0    0 -0.00000000000E+00 -0.00000000000E+00 -0.45593999997E+02  0.45594000000E+02  0.51100000000E-03 0.  1.
    9900012    2    1    2    0    0 -0.41000143667E+02  0.13877154235E+02 -0.31680167914E+01  0.47787268200E+02  0.19999987031E+02 0.  0.
        -12    1    1    2    0    0  0.41000143667E+02 -0.13877154235E+02  0.31680167914E+01  0.43400731800E+02  0.00000000000E+00 0.  1.
         11    1    3    3    0    0  0.16014108142E+01 -0.13250996779E+00  0.44495899018E+00  0.16673524677E+01  0.51100000000E-03 0. -1.
        -11    1    3    3    0    0 -0.14285043282E+01  0.10512468844E+01  0.19069703661E+01  0.26042812571E+01  0.51100000000E-03 0.  1.
         12    1    3    3    0    0 -0.41173050153E+02  0.12958417318E+02 -0.55199461477E+01  0.43515634475E+02  0.00000000000E+00 0. -1.
</event>
<event>
 7    1  0.2834226E-010  0.4778727E+02  0.7816164E-02  0.1312668E+00
        -11   -1    0    0    0    0  0.00000000000E+00  0.00000000000E+00  0.45593999997E+02  0.45594000000E+02  0.51100000000E-03 0.  1.
         11   -1    0    0    0    0 -0.00000000000E+00 -0.00000000000E+00 -0.45593999997E+02  0.45594000000E+02  0.51100000000E-03 0. -1.
    9900012    2    1    2    0    0  0.15861820189E+02  0.32909699146E+02 -0.23430273402E+02  0.47787270176E+02  0.19999996041E+02 0.  0.
        -12    1    1    2    0    0 -0.15861820189E+02 -0.32909699146E+02  0.23430273402E+02  0.43400729824E+02  0.00000000000E+00 0.  1.
         11    1    3    3    0    0  0.78988398865E+01  0.29345427268E+02 -0.16042309307E+02  0.34364246846E+02  0.51100000000E-03 0. -1.
        -11    1    3    3    0    0  0.60925817531E+01 -0.10684735713E+01 -0.36369251726E+01  0.71755427086E+01  0.51100000000E-03 0.  1.
        -12    1    3    3    0    0  0.18703985493E+01  0.46327454486E+01 -0.37510389222E+01  0.62474806219E+01  0.00000000000E+00 0.  1.
</event>
<event>
 7    1  0.2834226E-010  0.4778726E+02  0.7816164E-02  0.1312668E+00
        -11   -1    0    0    0    0  0.00000000000E+00  0.00000000000E+00  0.45593999997E+02  0.45594000000E+02  0.51100000000E-03 0.  1.
         11   -1    0    0    0    0 -0.00000000000E+00 -0.00000000000E+00 -0.45593999997E+02  0.45594000000E+02  0.51100000000E-03 0. -1.
    9900012    2    1    2    0    0 -0.42560708289E+02  0.64630321317E+01  0.55172042788E+01  0.47787260174E+02  0.19999950437E+02 0.  0.
        -12    1    1    2    0    0  0.42560708289E+02 -0.64630321317E+01 -0.55172042788E+01  0.43400739826E+02  0.00000000000E+00 0.  1.
         11    1    3    3    0    0 -0.18693976368E+02  0.65886986131E+01 -0.25580313347E+01  0.19985475387E+02  0.51100000000E-03 0. -1.
        -11    1    3    3    0    0 -0.23151680165E+02 -0.27495379702E+01  0.89070165499E+01  0.24957868450E+02  0.51100000000E-03 0.  1.
        -12    1    3    3    0    0 -0.71505175589E+00  0.26238714888E+01 -0.83178093640E+00  0.28439163366E+01  0.00000000000E+00 0.  1.
</event>
<event>
 7    1  0.2834226E-010  0.4778727E+02  0.7816164E-02  0.1312668E+00
        -11   -1    0    0    0    0  0.00000000000E+00  0.00000000000E+00  0.45593999997E+02  0.45594000000E+02  0.51100000000E-03 0.  1.
         11   -1    0    0    0    0 -0.00000000000E+00 -0.00000000000E+00 -0.45593999997E+02  0.45594000000E+02  0.51100000000E-03 0. -1.
    9900012    2    1    2    0    0  0.46654197221E+01 -0.36058120119E+02 -0.23699558121E+02  0.47787271633E+02  0.20000002682E+02 0.  0.
        -12    1    1    2    0    0 -0.46654197221E+01  0.36058120119E+02  0.23699558121E+02  0.43400728367E+02  0.00000000000E+00 0.  1.
         11    1    3    3    0    0  0.42458335399E+01 -0.27860908878E+02 -0.25110687895E+02  0.37746575908E+02  0.51100000000E-03 0. -1.
        -11    1    3    3    0    0  0.28019145660E+01 -0.55048094502E+01  0.17761127371E+01  0.64271478149E+01  0.51100000000E-03 0.  1.
        -12    1    3    3    0    0 -0.23823283839E+01 -0.26924017902E+01 -0.36498296287E+00  0.36135479092E+01  0.00000000000E+00 0.  1.
</event>
<event>
 7    1  0.2834226E-010  0.4778727E+02  0.7816164E-02  0.1312668E+00
        -11   -1    0    0    0    0  0.00000000000E+00  0.00000000000E+00  0.45593999997E+02  0.45594000000E+02  0.51100000000E-03 0.  1.
         11   -1    0    0    0    0 -0.00000000000E+00 -0.00000000000E+00 -0.45593999997E+02  0.45594000000E+02  0.51100000000E-03 0. -1.
    9900012    2    1    2    0    0 -0.23847875588E+02 -0.14048869643E+02 -0.33429498379E+02  0.47787271087E+02  0.20000000193E+02 0.  0.
        -12    1    1    2    0    0  0.23847875588E+02  0.14048869643E+02  0.33429498379E+02  0.43400728913E+02  0.00000000000E+00 0.  1.
         11    1    3    3    0    0 -0.26826354530E+01 -0.78074340279E+01 -0.19270752276E+01  0.84773921855E+01  0.51100000000E-03 0. -1.
        -11    1    3    3    0    0 -0.11016459952E+02 -0.29302437593E+01 -0.94411697762E+01  0.14801500105E+02  0.51100000000E-03 0.  1.
         12    1    3    3    0    0 -0.10148780183E+02 -0.33111918557E+01 -0.22061253376E+02  0.24508378796E+02  0.00000000000E+00 0. -1.
</event>
<event>
 7    1  0.2834226E-010  0.4778727E+02  0.7816164E-02  0.1312668E+00
        -11   -1    0    0    0    0  0.00000000000E+00  0.00000000000E+00  0.45593999997E+02  0.45594000000E+02  0.51100000000E-03 0.  1.
         11   -1    0    0    0    0 -0.00000000000E+00 -0.00000000000E+00 -0.45593999997E+02  0.45594000000E+02  0.51100000000E-03 0. -1.
    9900012    2    1    2    0    0 -0.29230855607E+02 -0.14563708381E+02 -0.28584589942E+02  0.47787270703E+02  0.19999998444E+02 0.  0.
        -12    1    1    2    0    0  0.29230855607E+02  0.14563708381E+02  0.28584589942E+02  0.43400729297E+02  0.00000000000E+00 0.  1.
         11    1    3    3    0    0 -0.55592037377E+01  0.10963919735E+01 -0.11218945613E+01  0.57762850713E+01  0.51100000000E-03 0. -1.
        -11    1    3    3    0    0 -0.18728452916E+02 -0.15835071150E+02 -0.27776763515E+02  0.37054730043E+02  0.51100000000E-03 0.  1.
        -12    1    3    3    0    0 -0.49431989531E+01  0.17497079522E+00  0.31406813387E+00  0.49562555888E+01  0.00000000000E+00 0.  1.
</event>
<event>
 7    1  0.2834226E-010  0.4778729E+02  0.7816164E-02  0.1312668E+00
        -11   -1    0    0    0    0  0.00000000000E+00  0.00000000000E+00  0.45593999997E+02  0.45594000000E+02  0.51100000000E-03 0. -1.
         11   -1    0    0    0    0 -0.00000000000E+00 -0.00000000000E+00 -0.45593999997E+02  0.45594000000E+02  0.51100000000E-03 0.  1.
    9900012    2    1    2    0    0 -0.42391333430E+01 -0.23537718360E+02  0.36216397577E+02  0.47787286981E+02  0.20000072662E+02 0.  0.
        -12    1    1    2    0    0  0.42391333430E+01  0.23537718360E+02 -0.36216397577E+02  0.43400713019E+02  0.00000000000E+00 0.  1.
         11    1    3    3    0    0 -0.30889623274E+01 -0.18542207495E+02  0.19628129057E+02  0.27177538475E+02  0.51100000000E-03 0. -1.
        -11    1    3    3    0    0 -0.28955174762E-01 -0.37320000848E+01  0.18015666609E+02  0.18398176721E+02  0.51100000000E-03 0.  1.
         12    1    3    3    0    0 -0.11212158409E+01 -0.12635107810E+01 -0.14273980891E+01  0.22115717850E+01  0.00000000000E+00 0. -1.
</event>
<event>
 7    1  0.2834226E-010  0.4778727E+02  0.7816164E-02  0.1312668E+00
        -11   -1    0    0    0    0  0.00000000000E+00  0.00000000000E+00  0.45593999997E+02  0.45594000000E+02  0.51100000000E-03 0. -1.
         11   -1    0    0    0    0 -0.00000000000E+00 -0.00000000000E+00 -0.45593999997E+02  0.45594000000E+02  0.51100000000E-03 0.  1.
    9900012    2    1    2    0    0 -0.21184319960E+02  0.37370837709E+02  0.61861743074E+01  0.47787266414E+02  0.19999978887E+02 0.  0.
        -12    1    1    2    0    0  0.21184319960E+02 -0.37370837709E+02 -0.61861743074E+01  0.43400733586E+02  0.00000000000E+00 0.  1.
         11    1    3    3    0    0 -0.47244459225E+01  0.49991863885E+01  0.23218852334E+01  0.72597110907E+01  0.51100000000E-03 0. -1.
        -11    1    3    3    0    0 -0.82001720382E+01  0.78005109674E+01  0.85512056848E+01  0.14184988958E+02  0.51100000000E-03 0.  1.
        -12    1    3    3    0    0 -0.82597019991E+01  0.24571140354E+02 -0.46869166108E+01  0.26342566365E+02  0.00000000000E+00 0.  1.
</event>
<event>
 7    1  0.2834226E-010  0.4778727E+02  0.7816164E-02  0.1312668E+00
        -11   -1    0    0    0    0  0.00000000000E+00  0.00000000000E+00  0.45593999997E+02  0.45594000000E+02  0.51100000000E-03 0.  1.
         11   -1    0    0    0    0 -0.00000000000E+00 -0.00000000000E+00 -0.45593999997E+02  0.45594000000E+02  0.51100000000E-03 0. -1.
    9900012    2    1    2    0    0  0.68847118070E+01  0.12085302167E+02 -0.41111669679E+02  0.47787272253E+02  0.20000005511E+02 0.  0.
        -12    1    1    2    0    0 -0.68847118070E+01 -0.12085302167E+02  0.41111669679E+02  0.43400727747E+02  0.00000000000E+00 0.  1.
         11    1    3    3    0    0  0.11877047582E+02  0.98312390626E+01 -0.22850034055E+02  0.27565224057E+02  0.51100000000E-03 0. -1.
        -11    1    3    3    0    0 -0.86336256792E+00  0.29604452529E+01 -0.26749463026E+01  0.40822749788E+01  0.51100000000E-03 0.  1.
         12    1    3    3    0    0 -0.41289732070E+01 -0.70638214856E+00 -0.15586689322E+02  0.16139773217E+02  0.00000000000E+00 0. -1.
</event>
<event>
 7    1  0.2834226E-010  0.4778727E+02  0.7816164E-02  0.1312668E+00
        -11   -1    0    0    0    0  0.00000000000E+00  0.00000000000E+00  0.45593999997E+02  0.45594000000E+02  0.51100000000E-03 0.  1.
         11   -1    0    0    0    0 -0.00000000000E+00 -0.00000000000E+00 -0.45593999997E+02  0.45594000000E+02  0.51100000000E-03 0. -1.
    9900012    2    1    2    0    0 -0.26593764382E+02 -0.34213732057E+02 -0.24115183444E+01  0.47787272057E+02  0.20000004616E+02 0.  0.
        -12    1    1    2    0    0  0.26593764382E+02  0.34213732057E+02  0.24115183444E+01  0.43400727943E+02  0.00000000000E+00 0.  1.
         11    1    3    3    0    0 -0.24845448456E+02 -0.21324842186E+02 -0.68808153249E+01  0.33457298502E+02  0.51100000000E-03 0. -1.
        -11    1    3    3    0    0  0.54198888118E+00 -0.70334706684E+01  0.93142945938E+00  0.71155479543E+01  0.51100000000E-03 0.  1.
         12    1    3    3    0    0 -0.22903048065E+01 -0.58554192034E+01  0.35378675212E+01  0.72144256009E+01  0.00000000000E+00 0. -1.
</event>
<event>
 7    1  0.2834226E-010  0.4778727E+02  0.7816164E-02  0.1312668E+00
        -11   -1    0    0    0    0  0.00000000000E+00  0.00000000000E+00  0.45593999997E+02  0.45594000000E+02  0.51100000000E-03 0.  1.
         11   -1    0    0    0    0 -0.00000000000E+00 -0.00000000000E+00 -0.45593999997E+02  0.45594000000E+02  0.51100000000E-03 0. -1.
    9900012    2    1    2    0    0 -0.30730532293E+02  0.10383328167E+02 -0.28834778789E+02  0.47787267441E+02  0.19999983569E+02 0.  0.
        -12    1    1    2    0    0  0.30730532293E+02 -0.10383328167E+02  0.28834778789E+02  0.43400732559E+02  0.00000000000E+00 0.  1.
         11    1    3    3    0    0 -0.11428634961E+02  0.13071527249E+02 -0.11355035215E+02  0.20746453834E+02  0.51100000000E-03 0. -1.
        -11    1    3    3    0    0  0.47223216502E+00  0.39613176334E+00 -0.58838802364E+00  0.85212928543E+00  0.51100000000E-03 0.  1.
         12    1    3    3    0    0 -0.19774129497E+02 -0.30843308452E+01 -0.16891355551E+02  0.26188684321E+02  0.00000000000E+00 0. -1.
</event>
<event>
 7    1  0.2834226E-010  0.4778728E+02  0.7816164E-02  0.1312668E+00
        -11   -1    0    0    0    0  0.00000000000E+00  0.00000000000E+00  0.45593999997E+02  0.45594000000E+02  0.51100000000E-03 0.  1.
         11   -1    0    0    0    0 -0.00000000000E+00 -0.00000000000E+00 -0.45593999997E+02  0.45594000000E+02  0.51100000000E-03 0. -1.
    9900012    2    1    2    0    0 -0.33949382089E+02  0.11605789952E+02 -0.24420634012E+02  0.47787282608E+02  0.20000052722E+02 0.  0.
        -12    1    1    2    0    0  0.33949382089E+02 -0.11605789952E+02  0.24420634012E+02  0.43400717392E+02  0.00000000000E+00 0.  1.
         11    1    3    3    0    0 -0.78939632055E+01  0.85406802539E+01 -0.13342790766E+02  0.17699941807E+02  0.51100000000E-03 0.  1.
        -11    1    3    3    0    0 -0.13817569019E+02 -0.29262112294E+01 -0.37372736965E+01  0.14610104062E+02  0.51100000000E-03 0. -1.
         12    1    3    3    0    0 -0.12237849864E+02  0.59913209276E+01 -0.73405695493E+01  0.15477236739E+02  0.00000000000E+00 0. -1.
</event>
<event>
 7    1  0.2834226E-010  0.4778727E+02  0.7816164E-02  0.1312668E+00
        -11   -1    0    0    0    0  0.00000000000E+00  0.00000000000E+00  0.45593999997E+02  0.45594000000E+02  0.51100000000E-03 0.  1.
         11   -1    0    0    0    0 -0.00000000000E+00 -0.00000000000E+00 -0.45593999997E+02  0.45594000000E+02  0.51100000000E-03 0. -1.
    9900012    2    1    2    0    0 -0.25820441559E+01  0.19512888724E+02 -0.38680791974E+02  0.47787269060E+02  0.19999990951E+02 0.  0.
        -12    1    1    2    0    0  0.25820441559E+01 -0.19512888724E+02  0.38680791974E+02  0.43400730940E+02  0.00000000000E+00 0.  1.
         11    1    3    3    0    0 -0.44864672517E+01  0.71890591637E+01 -0.22077062691E+02  0.23647571913E+02  0.51100000000E-03 0. -1.
        -11    1    3    3    0    0  0.60665956556E+01  0.94406287036E+01 -0.68424364402E+01  0.13143362959E+02  0.51100000000E-03 0.  1.
        -12    1    3    3    0    0 -0.41621725598E+01  0.28832008570E+01 -0.97612928429E+01  0.10996334188E+02  0.00000000000E+00 0.  1.
</event>
<event>
 7    1  0.2834226E-010  0.4778727E+02  0.7816164E-02  0.1312668E+00
        -11   -1    0    0    0    0  0.00000000000E+00  0.00000000000E+00  0.45593999997E+02  0.45594000000E+02  0.51100000000E-03 0. -1.
         11   -1    0    0    0    0 -0.00000000000E+00 -0.00000000000E+00 -0.45593999997E+02  0.45594000000E+02  0.51100000000E-03 0.  1.
    9900012    2    1    2    0    0 -0.12580186182E+02 -0.41037456394E+02  0.64256866314E+01  0.47787270048E+02  0.19999995459E+02 0.  0.
        -12    1    1    2    0    0  0.12580186182E+02  0.41037456394E+02 -0.64256866314E+01  0.43400729952E+02  0.00000000000E+00 0.  1.
         11    1    3    3    0    0 -0.13305698255E+02 -0.14572807135E+02  0.66575098428E+01  0.20826203481E+02  0.51100000000E-03 0. -1.
        -11    1    3    3    0    0  0.94568664487E+00 -0.37803027832E+01 -0.16492024137E+01  0.42314159835E+01  0.51100000000E-03 0.  1.
         12    1    3    3    0    0 -0.22017457147E+00 -0.22684346476E+02  0.14173792024E+01  0.22729650584E+02  0.00000000000E+00 0. -1.
</event>
<event>
 7    1  0.2834226E-010  0.4778727E+02  0.7816164E-02  0.1312668E+00
        -11   -1    0    0    0    0  0.00000000000E+00  0.00000000000E+00  0.45593999997E+02  0.45594000000E+02  0.51100000000E-03 0.  1.
         11   -1    0    0    0    0 -0.00000000000E+00 -0.00000000000E+00 -0.45593999997E+02  0.45594000000E+02  0.51100000000E-03 0. -1.
    9900012    2    1    2    0    0 -0.21985038070E+02  0.37119905664E+02 -0.47322204364E+01  0.47787271830E+02  0.20000003583E+02 0.  0.
        -12    1    1    2    0    0  0.21985038070E+02 -0.37119905664E+02  0.47322204364E+01  0.43400728170E+02  0.00000000000E+00 0.  1.
         11    1    3    3    0    0 -0.11321127054E+02  0.24575694444E+02 -0.48530887128E+01  0.27489727999E+02  0.51100000000E-03 0. -1.
        -11    1    3    3    0    0  0.23045637883E+00  0.73068891490E+01 -0.28558500114E+01  0.78485424588E+01  0.51100000000E-03 0.  1.
        -12    1    3    3    0    0 -0.10894367394E+02  0.52373220710E+01  0.29767182878E+01  0.12449001372E+02  0.00000000000E+00 0.  1.
</event>
<event>
 7    1  0.2834226E-010  0.4778727E+02  0.7816164E-02  0.1312668E+00
        -11   -1    0    0    0    0  0.00000000000E+00  0.00000000000E+00  0.45593999997E+02  0.45594000000E+02  0.51100000000E-03 0.  1.
         11   -1    0    0    0    0 -0.00000000000E+00 -0.00000000000E+00 -0.45593999997E+02  0.45594000000E+02  0.51100000000E-03 0. -1.
    9900012    2    1    2    0    0  0.42201340391E+02  0.10105469433E+02 -0.74133002004E+00  0.47787271741E+02  0.20000003175E+02 0.  0.
        -12    1    1    2    0    0 -0.42201340391E+02 -0.10105469433E+02  0.74133002004E+00  0.43400728259E+02  0.00000000000E+00 0.  1.
         11    1    3    3    0    0  0.31698320828E+02  0.10231553578E+02  0.66839842522E+01  0.33972693118E+02  0.51100000000E-03 0. -1.
        -11    1    3    3    0    0  0.33109585323E+01 -0.23916166979E+01 -0.21859144445E+01  0.46325477927E+01  0.51100000000E-03 0.  1.
         12    1    3    3    0    0  0.71920610301E+01  0.22655325532E+01 -0.52393998278E+01  0.91820308302E+01  0.00000000000E+00 0. -1.
</event>
<event>
 7    1  0.2834226E-010  0.4778727E+02  0.7816164E-02  0.1312668E+00
        -11   -1    0    0    0    0  0.00000000000E+00  0.00000000000E+00  0.45593999997E+02  0.45594000000E+02  0.51100000000E-03 0. -1.
         11   -1    0    0    0    0 -0.00000000000E+00 -0.00000000000E+00 -0.45593999997E+02  0.45594000000E+02  0.51100000000E-03 0.  1.
    9900012    2    1    2    0    0  0.41838836286E+02 -0.60044472841E+01  0.98530018504E+01  0.47787271269E+02  0.20000001022E+02 0.  0.
        -12    1    1    2    0    0 -0.41838836286E+02  0.60044472841E+01 -0.98530018504E+01  0.43400728731E+02  0.00000000000E+00 0.  1.
         11    1    3    3    0    0  0.32899015897E+02 -0.24038595573E+01  0.49870074208E+01  0.33361565177E+02  0.51100000000E-03 0. -1.
        -11    1    3    3    0    0  0.19377838170E+01  0.32440848811E+01  0.16014469004E+01  0.41041107774E+01  0.51100000000E-03 0.  1.
         12    1    3    3    0    0  0.70020365715E+01 -0.68446726080E+01  0.32645475292E+01  0.10321595314E+02  0.00000000000E+00 0. -1.
</event>
<event>
 7    1  0.2834226E-010  0.4778728E+02  0.7816164E-02  0.1312668E+00
        -11   -1    0    0    0    0  0.00000000000E+00  0.00000000000E+00  0.45593999997E+02  0.45594000000E+02  0.51100000000E-03 0.  1.
         11   -1    0    0    0    0 -0.00000000000E+00 -0.00000000000E+00 -0.45593999997E+02  0.45594000000E+02  0.51100000000E-03 0. -1.
    9900012    2    1    2    0    0  0.27300336552E+02  0.30242640837E+02 -0.14956510633E+02  0.47787275226E+02  0.20000019063E+02 0.  0.
        -12    1    1    2    0    0 -0.27300336552E+02 -0.30242640837E+02  0.14956510633E+02  0.43400724774E+02  0.00000000000E+00 0.  1.
         11    1    3    3    0    0  0.21588677357E+02  0.15520664993E+02 -0.11876599125E+02  0.29120708077E+02  0.51100000000E-03 0. -1.
        -11    1    3    3    0    0  0.12912537332E+01  0.80672464443E+01 -0.60257007078E+01  0.10151692996E+02  0.51100000000E-03 0.  1.
         12    1    3    3    0    0  0.44204054619E+01  0.66547293995E+01  0.29457892007E+01  0.85148741531E+01  0.00000000000E+00 0. -1.
</event>
<event>
 7    1  0.2834226E-010  0.4778727E+02  0.7816164E-02  0.1312668E+00
        -11   -1    0    0    0    0  0.00000000000E+00  0.00000000000E+00  0.45593999997E+02  0.45594000000E+02  0.51100000000E-03 0.  1.
         11   -1    0    0    0    0 -0.00000000000E+00 -0.00000000000E+00 -0.45593999997E+02  0.45594000000E+02  0.51100000000E-03 0. -1.
    9900012    2    1    2    0    0  0.41156152253E+02 -0.54898606292E+00 -0.13765635437E+02  0.47787274511E+02  0.20000015808E+02 0.  0.
        -12    1    1    2    0    0 -0.41156152253E+02  0.54898606292E+00  0.13765635437E+02  0.43400725489E+02  0.00000000000E+00 0.  1.
         11    1    3    3    0    0  0.12609255454E+02  0.10122364534E+01 -0.81198403828E+01  0.15031625123E+02  0.51100000000E-03 0. -1.
        -11    1    3    3    0    0  0.28339262615E+02  0.13538034695E+01 -0.25305598314E+01  0.28484211815E+02  0.51100000000E-03 0.  1.
        -12    1    3    3    0    0  0.20763418395E+00 -0.29150259859E+01 -0.31152352224E+01  0.42714375734E+01  0.00000000000E+00 0.  1.
</event>
<event>
 7    1  0.2834226E-010  0.4778727E+02  0.7816164E-02  0.1312668E+00
        -11   -1    0    0    0    0  0.00000000000E+00  0.00000000000E+00  0.45593999997E+02  0.45594000000E+02  0.51100000000E-03 0.  1.
         11   -1    0    0    0    0 -0.00000000000E+00 -0.00000000000E+00 -0.45593999997E+02  0.45594000000E+02  0.51100000000E-03 0. -1.
    9900012    2    1    2    0    0 -0.13899643879E+02 -0.29354668786E+02 -0.28787612369E+02  0.47787270681E+02  0.19999998342E+02 0.  0.
        -12    1    1    2    0    0  0.13899643879E+02  0.29354668786E+02  0.28787612369E+02  0.43400729319E+02  0.00000000000E+00 0.  1.
         11    1    3    3    0    0  0.19280721200E-01 -0.12351080746E+02 -0.15537484742E+02  0.19848501196E+02  0.51100000000E-03 0. -1.
        -11    1    3    3    0    0 -0.31858762756E+01 -0.45656472616E+01  0.16005496774E+01  0.57928146950E+01  0.51100000000E-03 0.  1.
        -12    1    3    3    0    0 -0.10733048325E+02 -0.12437940779E+02 -0.14850677305E+02  0.22145954790E+02  0.00000000000E+00 0.  1.
</event>
<event>
 7    1  0.2834226E-010  0.4778731E+02  0.7816164E-02  0.1312668E+00
        -11   -1    0    0    0    0  0.00000000000E+00  0.00000000000E+00  0.45593999997E+02  0.45594000000E+02  0.51100000000E-03 0. -1.
         11   -1    0    0    0    0 -0.00000000000E+00 -0.00000000000E+00 -0.45593999997E+02  0.45594000000E+02  0.51100000000E-03 0.  1.
    9900012    2    1    2    0    0  0.38346317118E+01  0.29907262669E+02  0.31216520177E+02  0.47787309998E+02  0.20000177605E+02 0.  0.
        -12    1    1    2    0    0 -0.38346317118E+01 -0.29907262669E+02 -0.31216520177E+02  0.43400690002E+02  0.00000000000E+00 0.  1.
         11    1    3    3    0    0  0.15865144732E+01  0.17367712263E+02  0.24366226512E+02  0.29964436455E+02  0.51100000000E-03 0. -1.
        -11    1    3    3    0    0 -0.32192200806E+01  0.12999564398E+01 -0.19119963964E+00  0.34770421677E+01  0.51100000000E-03 0.  1.
        -12    1    3    3    0    0  0.54673373191E+01  0.11239593966E+02  0.70414933047E+01  0.14345831375E+02  0.00000000000E+00 0.  1.
</event>
<event>
 7    1  0.2834226E-010  0.4778727E+02  0.7816164E-02  0.1312668E+00
        -11   -1    0    0    0    0  0.00000000000E+00  0.00000000000E+00  0.45593999997E+02  0.45594000000E+02  0.51100000000E-03 0.  1.
         11   -1    0    0    0    0 -0.00000000000E+00 -0.00000000000E+00 -0.45593999997E+02  0.45594000000E+02  0.51100000000E-03 0. -1.
    9900012    2    1    2    0    0  0.38078103974E+02 -0.19390071015E+02  0.75964751257E+01  0.47787270852E+02  0.19999999123E+02 0.  0.
        -12    1    1    2    0    0 -0.38078103974E+02  0.19390071015E+02 -0.75964751257E+01  0.43400729148E+02  0.00000000000E+00 0.  1.
         11    1    3    3    0    0  0.43666595482E+01 -0.35902364945E+01 -0.12858292870E+01  0.57974883280E+01  0.51100000000E-03 0.  1.
        -11    1    3    3    0    0  0.14332186471E+02 -0.91165371177E+01 -0.44212998646E+01  0.17551943220E+02  0.51100000000E-03 0. -1.
        -12    1    3    3    0    0  0.19379257955E+02 -0.66832974027E+01  0.13303604277E+02  0.24437839304E+02  0.00000000000E+00 0.  1.
</event>
<event>
 7    1  0.2834226E-010  0.4778727E+02  0.7816164E-02  0.1312668E+00
        -11   -1    0    0    0    0  0.00000000000E+00  0.00000000000E+00  0.45593999997E+02  0.45594000000E+02  0.51100000000E-03 0.  1.
         11   -1    0    0    0    0 -0.00000000000E+00 -0.00000000000E+00 -0.45593999997E+02  0.45594000000E+02  0.51100000000E-03 0. -1.
    9900012    2    1    2    0    0 -0.67899107106E+01 -0.10299652296E+01 -0.42853932789E+02  0.47787271074E+02  0.20000000134E+02 0.  0.
        -12    1    1    2    0    0  0.67899107106E+01  0.10299652296E+01  0.42853932789E+02  0.43400728926E+02  0.00000000000E+00 0.  1.
         11    1    3    3    0    0 -0.25773233970E+01 -0.12835965709E+01 -0.52887533781E+01  0.60217213988E+01  0.51100000000E-03 0. -1.
        -11    1    3    3    0    0 -0.96145143412E+01 -0.45835125251E+01 -0.26223243434E+02  0.28303815459E+02  0.51100000000E-03 0.  1.
        -12    1    3    3    0    0  0.54019270275E+01  0.48371438664E+01 -0.11341935977E+02  0.13461734216E+02  0.00000000000E+00 0.  1.
</event>
<event>
 7    1  0.2834226E-010  0.4778727E+02  0.7816164E-02  0.1312668E+00
        -11   -1    0    0    0    0  0.00000000000E+00  0.00000000000E+00  0.45593999997E+02  0.45594000000E+02  0.51100000000E-03 0. -1.
         11   -1    0    0    0    0 -0.00000000000E+00 -0.00000000000E+00 -0.45593999997E+02  0.45594000000E+02  0.51100000000E-03 0.  1.
    9900012    2    1    2    0    0  0.12468493951E+02 -0.38709103506E+02  0.15158014592E+02  0.47787269107E+02  0.19999991166E+02 0.  0.
        -12    1    1    2    0    0 -0.12468493951E+02  0.38709103506E+02 -0.15158014592E+02  0.43400730893E+02  0.00000000000E+00 0.  1.
         11    1    3    3    0    0 -0.24443460436E+01 -0.15678083192E+02  0.31020924117E+01  0.16167872394E+02  0.51100000000E-03 0. -1.
        -11    1    3    3    0    0  0.88517160461E+01 -0.49188866161E+01  0.44511487188E+01  0.11061692804E+02  0.51100000000E-03 0.  1.
         12    1    3    3    0    0  0.60611239489E+01 -0.18112133698E+02  0.76047734612E+01  0.20557703909E+02  0.00000000000E+00 0. -1.
</event>
<event>
 7    1  0.2834226E-010  0.4778727E+02  0.7816164E-02  0.1312668E+00
        -11   -1    0    0    0    0  0.00000000000E+00  0.00000000000E+00  0.45593999997E+02  0.45594000000E+02  0.51100000000E-03 0. -1.
         11   -1    0    0    0    0 -0.00000000000E+00 -0.00000000000E+00 -0.45593999997E+02  0.45594000000E+02  0.51100000000E-03 0.  1.
    9900012    2    1    2    0    0  0.34445450136E+02 -0.21031070352E+02  0.15963345913E+02  0.47787269960E+02  0.19999995058E+02 0.  0.
        -12    1    1    2    0    0 -0.34445450136E+02  0.21031070352E+02 -0.15963345913E+02  0.43400730040E+02  0.00000000000E+00 0.  1.
         11    1    3    3    0    0  0.55654741380E+01 -0.12938627712E+01  0.11459127797E+01  0.58276667381E+01  0.51100000000E-03 0. -1.
        -11    1    3    3    0    0  0.27501029402E+02 -0.10046233972E+02  0.12854638697E+02  0.31976165678E+02  0.51100000000E-03 0.  1.
        -12    1    3    3    0    0  0.13789465959E+01 -0.96909736085E+01  0.19627944366E+01  0.99834375440E+01  0.00000000000E+00 0.  1.
</event>
<event>
 7    1  0.2834226E-010  0.4778727E+02  0.7816164E-02  0.1312668E+00
        -11   -1    0    0    0    0  0.00000000000E+00  0.00000000000E+00  0.45593999997E+02  0.45594000000E+02  0.51100000000E-03 0. -1.
         11   -1    0    0    0    0 -0.00000000000E+00 -0.00000000000E+00 -0.45593999997E+02  0.45594000000E+02  0.51100000000E-03 0.  1.
    9900012    2    1    2    0    0  0.26975157954E+02  0.31452970866E+02 -0.12910273493E+02  0.47787266313E+02  0.19999978427E+02 0.  0.
        -12    1    1    2    0    0 -0.26975157954E+02 -0.31452970866E+02  0.12910273493E+02  0.43400733687E+02  0.00000000000E+00 0.  1.
         11    1    3    3    0    0  0.11061746146E+01  0.79318605262E+01  0.24857879191E+01  0.83855337054E+01  0.51100000000E-03 0. -1.
        -11    1    3    3    0    0  0.14918935348E+02  0.17600893671E+02 -0.13712930682E+02  0.26840464938E+02  0.51100000000E-03 0.  1.
         12    1    3    3    0    0  0.10950047991E+02  0.59202166692E+01 -0.16831307303E+01  0.12561267670E+02  0.00000000000E+00 0. -1.
</event>
<event>
 7    1  0.2834226E-010  0.4778725E+02  0.7816164E-02  0.1312668E+00
        -11   -1    0    0    0    0  0.00000000000E+00  0.00000000000E+00  0.45593999997E+02  0.45594000000E+02  0.51100000000E-03 0.  1.
         11   -1    0    0    0    0 -0.00000000000E+00 -0.00000000000E+00 -0.45593999997E+02  0.45594000000E+02  0.51100000000E-03 0. -1.
    9900012    2    1    2    0    0 -0.13798520169E+02 -0.12480872568E+02 -0.39210383420E+02  0.47787245320E+02  0.19999882710E+02 0.  0.
        -12    1    1    2    0    0  0.13798520169E+02  0.12480872568E+02  0.39210383420E+02  0.43400754680E+02  0.00000000000E+00 0.  1.
         11    1    3    3    0    0 -0.59300856711E+00  0.72835422936E+00 -0.17580149870E+02  0.17605221633E+02  0.51100000000E-03 0. -1.
        -11    1    3    3    0    0 -0.86998440279E+01 -0.75970402380E+01 -0.60924411424E+01  0.13058336258E+02  0.51100000000E-03 0.  1.
         12    1    3    3    0    0 -0.45056675744E+01 -0.56121865589E+01 -0.15537792407E+02  0.17123687429E+02  0.00000000000E+00 0. -1.
</event>
<event>
 7    1  0.2834226E-010  0.4778730E+02  0.7816164E-02  0.1312668E+00
        -11   -1    0    0    0    0  0.00000000000E+00  0.00000000000E+00  0.45593999997E+02  0.45594000000E+02  0.51100000000E-03 0.  1.
         11   -1    0    0    0    0 -0.00000000000E+00 -0.00000000000E+00 -0.45593999997E+02  0.45594000000E+02  0.51100000000E-03 0. -1.
    9900012    2    1    2    0    0 -0.42842287006E+02 -0.50648163069E+01 -0.47441075814E+01  0.47787303267E+02  0.20000146915E+02 0.  0.
        -12    1    1    2    0    0  0.42842287006E+02  0.50648163069E+01  0.47441075814E+01  0.43400696733E+02  0.00000000000E+00 0.  1.
         11    1    3    3    0    0 -0.17830392931E+02  0.69750644571E+01 -0.89226598962E-01  0.19146341633E+02  0.51100000000E-03 0. -1.
        -11    1    3    3    0    0 -0.16044624841E+02 -0.99112393020E+01 -0.46528293309E+01  0.19424506990E+02  0.51100000000E-03 0.  1.
         12    1    3    3    0    0 -0.89672692345E+01 -0.21286414619E+01 -0.20516515344E-02  0.92164546441E+01  0.00000000000E+00 0. -1.
</event>
<event>
 7    1  0.2834226E-010  0.4778727E+02  0.7816164E-02  0.1312668E+00
        -11   -1    0    0    0    0  0.00000000000E+00  0.00000000000E+00  0.45593999997E+02  0.45594000000E+02  0.51100000000E-03 0.  1.
         11   -1    0    0    0    0 -0.00000000000E+00 -0.00000000000E+00 -0.45593999997E+02  0.45594000000E+02  0.51100000000E-03 0. -1.
    9900012    2    1    2    0    0  0.21344219701E+02 -0.89526448106E+01 -0.36713723910E+02  0.47787273196E+02  0.20000009812E+02 0.  0.
        -12    1    1    2    0    0 -0.21344219701E+02  0.89526448106E+01  0.36713723910E+02  0.43400726804E+02  0.00000000000E+00 0.  1.
         11    1    3    3    0    0 -0.25293565981E+01 -0.22994647811E+01 -0.93231399776E+01  0.99300615498E+01  0.51100000000E-03 0. -1.
        -11    1    3    3    0    0  0.13685533244E+02 -0.31701580393E+01 -0.21216340907E+02  0.25445566292E+02  0.51100000000E-03 0.  1.
         12    1    3    3    0    0  0.10188043055E+02 -0.34830219902E+01 -0.61742430249E+01  0.12411645354E+02  0.00000000000E+00 0. -1.
</event>
<event>
 7    1  0.2834226E-010  0.4778727E+02  0.7816164E-02  0.1312668E+00
        -11   -1    0    0    0    0  0.00000000000E+00  0.00000000000E+00  0.45593999997E+02  0.45594000000E+02  0.51100000000E-03 0.  1.
         11   -1    0    0    0    0 -0.00000000000E+00 -0.00000000000E+00 -0.45593999997E+02  0.45594000000E+02  0.51100000000E-03 0. -1.
    9900012    2    1    2    0    0 -0.26486582975E+02 -0.19705560995E+02 -0.28174013935E+02  0.47787271054E+02  0.20000000042E+02 0.  0.
        -12    1    1    2    0    0  0.26486582975E+02  0.19705560995E+02  0.28174013935E+02  0.43400728946E+02  0.00000000000E+00 0.  1.
         11    1    3    3    0    0 -0.63183737462E+01 -0.37507752236E+00 -0.14856117762E+02  0.16148274371E+02  0.51100000000E-03 0. -1.
        -11    1    3    3    0    0 -0.28906529283E+01 -0.43322173040E+00 -0.36975417025E+00  0.29462304437E+01  0.51100000000E-03 0.  1.
         12    1    3    3    0    0 -0.17277556301E+02 -0.18897261742E+02 -0.12948142003E+02  0.28692766239E+02  0.00000000000E+00 0. -1.
</event>
<event>
 7    1  0.2834226E-010  0.4778727E+02  0.7816164E-02  0.1312668E+00
        -11   -1    0    0    0    0  0.00000000000E+00  0.00000000000E+00  0.45593999997E+02  0.45594000000E+02  0.51100000000E-03 0. -1.
         11   -1    0    0    0    0 -0.00000000000E+00 -0.00000000000E+00 -0.45593999997E+02  0.45594000000E+02  0.51100000000E-03 0.  1.
    9900012    2    1    2    0    0  0.42590975227E+02  0.24603423735E+01  0.79736284106E+01  0.47787271833E+02  0.20000003595E+02 0.  0.
        -12    1    1    2    0    0 -0.42590975227E+02 -0.24603423735E+01 -0.79736284106E+01  0.43400728167E+02  0.00000000000E+00 0.  1.
         11    1    3    3    0    0  0.34168064952E+02 -0.60443583803E+01  0.81714795735E+01  0.35647777062E+02  0.51100000000E-03 0. -1.
        -11    1    3    3    0    0  0.68803928217E+01  0.77598012867E+01  0.23195861125E+00  0.10373433686E+02  0.51100000000E-03 0.  1.
         12    1    3    3    0    0  0.15425174534E+01  0.74489946717E+00 -0.42980977423E+00  0.17660610839E+01  0.00000000000E+00 0. -1.
</event>
<event>
 7    1  0.2834226E-010  0.4778728E+02  0.7816164E-02  0.1312668E+00
        -11   -1    0    0    0    0  0.00000000000E+00  0.00000000000E+00  0.45593999997E+02  0.45594000000E+02  0.51100000000E-03 0. -1.
         11   -1    0    0    0    0 -0.00000000000E+00 -0.00000000000E+00 -0.45593999997E+02  0.45594000000E+02  0.51100000000E-03 0.  1.
    9900012    2    1    2    0    0  0.22421917583E+01  0.98755633509E+01  0.42202707725E+02  0.47787277486E+02  0.20000029369E+02 0.  0.
        -12    1    1    2    0    0 -0.22421917583E+01 -0.98755633509E+01 -0.42202707725E+02  0.43400722514E+02  0.00000000000E+00 0.  1.
         11    1    3    3    0    0  0.70848702151E+00  0.44392055515E+01  0.12730639662E+02  0.13501025378E+02  0.51100000000E-03 0. -1.
        -11    1    3    3    0    0 -0.10712977141E+01  0.38944960371E+01  0.30740069838E+02  0.31004300864E+02  0.51100000000E-03 0.  1.
        -12    1    3    3    0    0  0.26050024509E+01  0.15418617623E+01 -0.12680017749E+01  0.32819512434E+01  0.00000000000E+00 0.  1.
</event>
<event>
 7    1  0.2834226E-010  0.4778727E+02  0.7816164E-02  0.1312668E+00
        -11   -1    0    0    0    0  0.00000000000E+00  0.00000000000E+00  0.45593999997E+02  0.45594000000E+02  0.51100000000E-03 0.  1.
         11   -1    0    0    0    0 -0.00000000000E+00 -0.00000000000E+00 -0.45593999997E+02  0.45594000000E+02  0.51100000000E-03 0. -1.
    9900012    2    1    2    0    0  0.10178580402E+02  0.26989562407E+02 -0.32428125552E+02  0.47787270689E+02  0.19999998378E+02 0.  0.
        -12    1    1    2    0    0 -0.10178580402E+02 -0.26989562407E+02  0.32428125552E+02  0.43400729311E+02  0.00000000000E+00 0.  1.
         11    1    3    3    0    0  0.77803426489E-01  0.23119184155E+02 -0.26697493967E+02  0.35316552971E+02  0.51100000000E-03 0. -1.
        -11    1    3    3    0    0  0.59560679679E+01  0.30276907152E+01 -0.45361133567E+01  0.80757650629E+01  0.51100000000E-03 0.  1.
         12    1    3    3    0    0  0.41447090072E+01  0.84268753687E+00 -0.11945182287E+01  0.43949526548E+01  0.00000000000E+00 0. -1.
</event>
<event>
 7    1  0.2834226E-010  0.4778726E+02  0.7816164E-02  0.1312668E+00
        -11   -1    0    0    0    0  0.00000000000E+00  0.00000000000E+00  0.45593999997E+02  0.45594000000E+02  0.51100000000E-03 0. -1.
         11   -1    0    0    0    0 -0.00000000000E+00 -0.00000000000E+00 -0.45593999997E+02  0.45594000000E+02  0.51100000000E-03 0.  1.
    9900012    2    1    2    0    0  0.42092344237E+02  0.78344416408E+01  0.71049681815E+01  0.47787257010E+02  0.19999936013E+02 0.  0.
        -12    1    1    2    0    0 -0.42092344237E+02 -0.78344416408E+01 -0.71049681815E+01  0.43400742990E+02  0.00000000000E+00 0.  1.
         11    1    3    3    0    0  0.12905568414E+02  0.10402927797E+02  0.75864070297E+01  0.18229870398E+02  0.51100000000E-03 0. -1.
        -11    1    3    3    0    0  0.14993783342E+02 -0.10355563729E+01 -0.21583852669E+01  0.15183693329E+02  0.51100000000E-03 0.  1.
        -12    1    3    3    0    0  0.14192992482E+02 -0.15329297836E+01  0.16769464187E+01  0.14373693283E+02  0.00000000000E+00 0.  1.
</event>
<event>
 7    1  0.2834226E-010  0.4778727E+02  0.7816164E-02  0.1312668E+00
        -11   -1    0    0    0    0  0.00000000000E+00  0.00000000000E+00  0.45593999997E+02  0.45594000000E+02  0.51100000000E-03 0. -1.
         11   -1    0    0    0    0 -0.00000000000E+00 -0.00000000000E+00 -0.45593999997E+02  0.45594000000E+02  0.51100000000E-03 0.  1.
    9900012    2    1    2    0    0 -0.29950527634E+02  0.17262419192E+02  0.26241153979E+02  0.47787269775E+02  0.19999994210E+02 0.  0.
        -12    1    1    2    0    0  0.29950527634E+02 -0.17262419192E+02 -0.26241153979E+02  0.43400730225E+02  0.00000000000E+00 0.  1.
         11    1    3    3    0    0 -0.97828902730E+01  0.67064318003E+01  0.11982489447E+02  0.16860048138E+02  0.51100000000E-03 0. -1.
        -11    1    3    3    0    0 -0.81655985500E+01 -0.90062091815E+00 -0.11359048014E+01  0.82932742446E+01  0.51100000000E-03 0.  1.
        -12    1    3    3    0    0 -0.12002038811E+02  0.11456608310E+02  0.15394569333E+02  0.22633947392E+02  0.00000000000E+00 0.  1.
</event>
<event>
 7    1  0.2834226E-010  0.4778727E+02  0.7816164E-02  0.1312668E+00
        -11   -1    0    0    0    0  0.00000000000E+00  0.00000000000E+00  0.45593999997E+02  0.45594000000E+02  0.51100000000E-03 0.  1.
         11   -1    0    0    0    0 -0.00000000000E+00 -0.00000000000E+00 -0.45593999997E+02  0.45594000000E+02  0.51100000000E-03 0. -1.
    9900012    2    1    2    0    0  0.35680553608E+02  0.24347456220E+02 -0.42098997963E+01  0.47787265139E+02  0.19999973077E+02 0.  0.
        -12    1    1    2    0    0 -0.35680553608E+02 -0.24347456220E+02  0.42098997963E+01  0.43400734861E+02  0.00000000000E+00 0.  1.
         11    1    3    3    0    0  0.17483451282E+02  0.12463226656E+02 -0.15287142726E+01  0.21525335188E+02  0.51100000000E-03 0. -1.
        -11    1    3    3    0    0  0.67836420199E+01  0.11723247835E+02  0.24206431915E+01  0.13759064378E+02  0.51100000000E-03 0.  1.
        -12    1    3    3    0    0  0.11413460306E+02  0.16098172937E+00 -0.51018287152E+01  0.12502865573E+02  0.00000000000E+00 0.  1.
</event>
<event>
 7    1  0.2834226E-010  0.4778727E+02  0.7816164E-02  0.1312668E+00
        -11   -1    0    0    0    0  0.00000000000E+00  0.00000000000E+00  0.45593999997E+02  0.45594000000E+02  0.51100000000E-03 0.  1.
         11   -1    0    0    0    0 -0.00000000000E+00 -0.00000000000E+00 -0.45593999997E+02  0.45594000000E+02  0.51100000000E-03 0. -1.
    9900012    2    1    2    0    0  0.38688979756E+01 -0.36019846278E+02 -0.23900325753E+02  0.47787271106E+02  0.20000000279E+02 0.  0.
        -12    1    1    2    0    0 -0.38688979756E+01  0.36019846278E+02  0.23900325753E+02  0.43400728894E+02  0.00000000000E+00 0.  1.
         11    1    3    3    0    0  0.23520292704E+00  0.27048150398E+00 -0.40041892611E+01  0.40202005623E+01  0.51100000000E-03 0. -1.
        -11    1    3    3    0    0  0.69053462314E+01 -0.25952461574E+02 -0.18979499948E+02  0.32885186435E+02  0.51100000000E-03 0.  1.
        -12    1    3    3    0    0 -0.32716511829E+01 -0.10337866208E+02 -0.91663654449E+00  0.10881884108E+02  0.00000000000E+00 0.  1.
</event>
<event>
 7    1  0.2834226E-010  0.4778727E+02  0.7816164E-02  0.1312668E+00
        -11   -1    0    0    0    0  0.00000000000E+00  0.00000000000E+00  0.45593999997E+02  0.45594000000E+02  0.51100000000E-03 0.  1.
         11   -1    0    0    0    0 -0.00000000000E+00 -0.00000000000E+00 -0.45593999997E+02  0.45594000000E+02  0.51100000000E-03 0. -1.
    9900012    2    1    2    0    0  0.20010342423E+02  0.32338814809E+02  0.20914371707E+02  0.47787266238E+02  0.19999978087E+02 0.  0.
        -12    1    1    2    0    0 -0.20010342423E+02 -0.32338814809E+02 -0.20914371707E+02  0.43400733762E+02  0.00000000000E+00 0.  1.
         11    1    3    3    0    0  0.98118072986E+01  0.12024989420E+02  0.28090592387E+01  0.15772214400E+02  0.51100000000E-03 0. -1.
        -11    1    3    3    0    0 -0.13962538545E+01 -0.11249345741E+01  0.24906906697E+01  0.30689644663E+01  0.51100000000E-03 0.  1.
        -12    1    3    3    0    0  0.11594788979E+02  0.21438759963E+02  0.15614621799E+02  0.28946087372E+02  0.00000000000E+00 0.  1.
</event>
<event>
 7    1  0.2834226E-010  0.4778726E+02  0.7816164E-02  0.1312668E+00
        -11   -1    0    0    0    0  0.00000000000E+00  0.00000000000E+00  0.45593999997E+02  0.45594000000E+02  0.51100000000E-03 0.  1.
         11   -1    0    0    0    0 -0.00000000000E+00 -0.00000000000E+00 -0.45593999997E+02  0.45594000000E+02  0.51100000000E-03 0. -1.
    9900012    2    1    2    0    0  0.35874817529E+02  0.92748761101E+01 -0.22596427789E+02  0.47787257974E+02  0.19999940408E+02 0.  0.
        -12    1    1    2    0    0 -0.35874817529E+02 -0.92748761101E+01  0.22596427789E+02  0.43400742026E+02  0.00000000000E+00 0.  1.
         11    1    3    3    0    0  0.79832962004E+01  0.91326961976E+00 -0.42439412898E+01  0.90872502746E+01  0.51100000000E-03 0. -1.
        -11    1    3    3    0    0  0.18534615734E+02 -0.28696348245E+01 -0.14135403428E+02  0.23485664027E+02  0.51100000000E-03 0.  1.
        -12    1    3    3    0    0  0.93569055939E+01  0.11231241315E+02 -0.42170830711E+01  0.15214343673E+02  0.00000000000E+00 0.  1.
</event>
<event>
 7    1  0.2834226E-010  0.4778727E+02  0.7816164E-02  0.1312668E+00
        -11   -1    0    0    0    0  0.00000000000E+00  0.00000000000E+00  0.45593999997E+02  0.45594000000E+02  0.51100000000E-03 0.  1.
         11   -1    0    0    0    0 -0.00000000000E+00 -0.00000000000E+00 -0.45593999997E+02  0.45594000000E+02  0.51100000000E-03 0. -1.
    9900012    2    1    2    0    0  0.23030412551E+02  0.17799885745E+02 -0.32192973316E+02  0.47787269986E+02  0.19999995173E+02 0.  0.
        -12    1    1    2    0    0 -0.23030412551E+02 -0.17799885745E+02  0.32192973316E+02  0.43400730014E+02  0.00000000000E+00 0.  1.
         11    1    3    3    0    0  0.86910028357E+01  0.16014348639E+02 -0.14316372840E+02  0.23172212328E+02  0.51100000000E-03 0. -1.
        -11    1    3    3    0    0  0.51047144754E+01  0.13711563730E+01 -0.13275991419E+02  0.14289511122E+02  0.51100000000E-03 0.  1.
         12    1    3    3    0    0  0.92346952400E+01  0.41438073288E+00 -0.46006090569E+01  0.10325546536E+02  0.00000000000E+00 0. -1.
</event>
<event>
 7    1  0.2834226E-010  0.4778727E+02  0.7816164E-02  0.1312668E+00
        -11   -1    0    0    0    0  0.00000000000E+00  0.00000000000E+00  0.45593999997E+02  0.45594000000E+02  0.51100000000E-03 0.  1.
         11   -1    0    0    0    0 -0.00000000000E+00 -0.00000000000E+00 -0.45593999997E+02  0.45594000000E+02  0.51100000000E-03 0. -1.
    9900012    2    1    2    0    0  0.41327457715E+02  0.13141698235E+02  0.17205546508E+01  0.47787270720E+02  0.19999998522E+02 0.  0.
        -12    1    1    2    0    0 -0.41327457715E+02 -0.13141698235E+02 -0.17205546508E+01  0.43400729280E+02  0.00000000000E+00 0.  1.
         11    1    3    3    0    0  0.25153452907E+02  0.11698323488E+02 -0.54447406717E+01  0.28269987033E+02  0.51100000000E-03 0.  1.
        -11    1    3    3    0    0  0.15433432217E+02  0.10405673981E+01  0.36378341848E+01  0.15890482948E+02  0.51100000000E-03 0. -1.
         12    1    3    3    0    0  0.74057259082E+00  0.40280734895E+00  0.35274611378E+01  0.36268007391E+01  0.00000000000E+00 0. -1.
</event>
<event>
 7    1  0.2834226E-010  0.4778727E+02  0.7816164E-02  0.1312668E+00
        -11   -1    0    0    0    0  0.00000000000E+00  0.00000000000E+00  0.45593999997E+02  0.45594000000E+02  0.51100000000E-03 0. -1.
         11   -1    0    0    0    0 -0.00000000000E+00 -0.00000000000E+00 -0.45593999997E+02  0.45594000000E+02  0.51100000000E-03 0.  1.
    9900012    2    1    2    0    0 -0.26221110685E+02 -0.13996040174E+02  0.31625742996E+02  0.47787269521E+02  0.19999993052E+02 0.  0.
        -12    1    1    2    0    0  0.26221110685E+02  0.13996040174E+02 -0.31625742996E+02  0.43400730479E+02  0.00000000000E+00 0.  1.
         11    1    3    3    0    0 -0.19084137366E+02 -0.15815385856E+02  0.18090089060E+02  0.30685208998E+02  0.51100000000E-03 0. -1.
        -11    1    3    3    0    0 -0.77506280375E+01  0.16619350790E+01  0.71193257192E+01  0.10654532469E+02  0.51100000000E-03 0.  1.
         12    1    3    3    0    0  0.61365471885E+00  0.15741060303E+00  0.64163282169E+01  0.64475280534E+01  0.00000000000E+00 0. -1.
</event>
<event>
 7    1  0.2834226E-010  0.4778727E+02  0.7816164E-02  0.1312668E+00
        -11   -1    0    0    0    0  0.00000000000E+00  0.00000000000E+00  0.45593999997E+02  0.45594000000E+02  0.51100000000E-03 0. -1.
         11   -1    0    0    0    0 -0.00000000000E+00 -0.00000000000E+00 -0.45593999997E+02  0.45594000000E+02  0.51100000000E-03 0.  1.
    9900012    2    1    2    0    0  0.27619185443E+02 -0.33462406151E+02  0.10349141762E+01  0.47787273309E+02  0.20000010327E+02 0.  0.
        -12    1    1    2    0    0 -0.27619185443E+02  0.33462406151E+02 -0.10349141762E+01  0.43400726691E+02  0.00000000000E+00 0.  1.
         11    1    3    3    0    0  0.15715971792E+02 -0.21996028294E+02 -0.14869523752E+01  0.27074490904E+02  0.51100000000E-03 0. -1.
        -11    1    3    3    0    0 -0.10905818995E+01  0.11458447850E+01 -0.14815372283E+01  0.21673213815E+01  0.51100000000E-03 0.  1.
        -12    1    3    3    0    0  0.12993795551E+02 -0.12612222642E+02  0.40034037798E+01  0.18545461024E+02  0.00000000000E+00 0.  1.
</event>
<event>
 7    1  0.2834226E-010  0.4778727E+02  0.7816164E-02  0.1312668E+00
        -11   -1    0    0    0    0  0.00000000000E+00  0.00000000000E+00  0.45593999997E+02  0.45594000000E+02  0.51100000000E-03 0. -1.
         11   -1    0    0    0    0 -0.00000000000E+00 -0.00000000000E+00 -0.45593999997E+02  0.45594000000E+02  0.51100000000E-03 0.  1.
    9900012    2    1    2    0    0 -0.53715586074E+01 -0.42185560954E+02  0.86688052098E+01  0.47787269837E+02  0.19999994497E+02 0.  0.
        -12    1    1    2    0    0  0.53715586074E+01  0.42185560954E+02 -0.86688052098E+01  0.43400730163E+02  0.00000000000E+00 0.  1.
         11    1    3    3    0    0  0.11996107629E+01 -0.13959896807E+02  0.25903020329E+01  0.14248770113E+02  0.51100000000E-03 0. -1.
        -11    1    3    3    0    0 -0.10846466726E+02 -0.11878400962E+02  0.28699101462E+01  0.16339480847E+02  0.51100000000E-03 0.  1.
        -12    1    3    3    0    0  0.42752973553E+01 -0.16347263185E+02  0.32085930307E+01  0.17199018878E+02  0.00000000000E+00 0.  1.
</event>
<event>
 7    1  0.2834226E-010  0.4778728E+02  0.7816164E-02  0.1312668E+00
        -11   -1    0    0    0    0  0.00000000000E+00  0.00000000000E+00  0.45593999997E+02  0.45594000000E+02  0.51100000000E-03 0.  1.
         11   -1    0    0    0    0 -0.00000000000E+00 -0.00000000000E+00 -0.45593999997E+02  0.45594000000E+02  0.51100000000E-03 0. -1.
    9900012    2    1    2    0    0  0.30830577906E+02  0.21660557397E+02 -0.21538769855E+02  0.47787275494E+02  0.20000020288E+02 0.  0.
        -12    1    1    2    0    0 -0.30830577906E+02 -0.21660557397E+02  0.21538769855E+02  0.43400724506E+02  0.00000000000E+00 0.  1.
         11    1    3    3    0    0  0.26515635977E+02  0.13228050396E+02 -0.14267974425E+02  0.32888225294E+02  0.51100000000E-03 0. -1.
        -11    1    3    3    0    0  0.42945753490E+01  0.10254018991E+02 -0.56971169934E+01  0.12491814327E+02  0.51100000000E-03 0.  1.
         12    1    3    3    0    0  0.20366579721E-01 -0.18215119892E+01 -0.15736784366E+01  0.24072358725E+01  0.00000000000E+00 0. -1.
</event>
<event>
 7    1  0.2834226E-010  0.4778727E+02  0.7816164E-02  0.1312668E+00
        -11   -1    0    0    0    0  0.00000000000E+00  0.00000000000E+00  0.45593999997E+02  0.45594000000E+02  0.51100000000E-03 0.  1.
         11   -1    0    0    0    0 -0.00000000000E+00 -0.00000000000E+00 -0.45593999997E+02  0.45594000000E+02  0.51100000000E-03 0. -1.
    9900012    2    1    2    0    0  0.23872966264E+02  0.32443473484E+02 -0.16159388312E+02  0.47787270507E+02  0.19999997547E+02 0.  0.
        -12    1    1    2    0    0 -0.23872966264E+02 -0.32443473484E+02  0.16159388312E+02  0.43400729493E+02  0.00000000000E+00 0.  1.
         11    1    3    3    0    0  0.21436061457E+02  0.13959793584E+02 -0.72650365055E+01  0.26592505023E+02  0.51100000000E-03 0. -1.
        -11    1    3    3    0    0 -0.47339085741E+00  0.98506518809E+01 -0.63727242936E+01  0.11741850645E+02  0.51100000000E-03 0.  1.
         12    1    3    3    0    0  0.29102956643E+01  0.86330280195E+01 -0.25216275124E+01  0.94529148388E+01  0.00000000000E+00 0. -1.
</event>
<event>
 7    1  0.2834226E-010  0.4778727E+02  0.7816164E-02  0.1312668E+00
        -11   -1    0    0    0    0  0.00000000000E+00  0.00000000000E+00  0.45593999997E+02  0.45594000000E+02  0.51100000000E-03 0.  1.
         11   -1    0    0    0    0 -0.00000000000E+00 -0.00000000000E+00 -0.45593999997E+02  0.45594000000E+02  0.51100000000E-03 0. -1.
    9900012    2    1    2    0    0 -0.36071895003E+02  0.90582967211E+01 -0.22369382855E+02  0.47787266851E+02  0.19999980879E+02 0.  0.
        -12    1    1    2    0    0  0.36071895003E+02 -0.90582967211E+01  0.22369382855E+02  0.43400733149E+02  0.00000000000E+00 0.  1.
         11    1    3    3    0    0 -0.12981880663E+02  0.32125258369E+01 -0.22923328051E+01  0.13568505362E+02  0.51100000000E-03 0. -1.
        -11    1    3    3    0    0  0.60921835594E+00  0.28918615654E+01 -0.54867501725E+01  0.62320492645E+01  0.51100000000E-03 0.  1.
        -12    1    3    3    0    0 -0.23699232695E+02  0.29539093188E+01 -0.14590299878E+02  0.27986712225E+02  0.00000000000E+00 0.  1.
</event>
<event>
 7    1  0.2834226E-010  0.4778727E+02  0.7816164E-02  0.1312668E+00
        -11   -1    0    0    0    0  0.00000000000E+00  0.00000000000E+00  0.45593999997E+02  0.45594000000E+02  0.51100000000E-03 0.  1.
         11   -1    0    0    0    0 -0.00000000000E+00 -0.00000000000E+00 -0.45593999997E+02  0.45594000000E+02  0.51100000000E-03 0. -1.
    9900012    2    1    2    0    0 -0.23360455207E+02 -0.29015100289E+02 -0.22271875596E+02  0.47787270111E+02  0.19999995746E+02 0.  0.
        -12    1    1    2    0    0  0.23360455207E+02  0.29015100289E+02  0.22271875596E+02  0.43400729889E+02  0.00000000000E+00 0.  1.
         11    1    3    3    0    0 -0.19153913832E+02 -0.24586560253E+02 -0.18705355889E+02  0.36349163668E+02  0.51100000000E-03 0. -1.
        -11    1    3    3    0    0  0.15548020222E+01  0.11632209060E+01 -0.27520809615E+01  0.33681511374E+01  0.51100000000E-03 0.  1.
        -12    1    3    3    0    0 -0.57613433971E+01 -0.55917609425E+01 -0.81443874621E+00  0.80699553065E+01  0.00000000000E+00 0.  1.
</event>
<event>
 7    1  0.2834226E-010  0.4778728E+02  0.7816164E-02  0.1312668E+00
        -11   -1    0    0    0    0  0.00000000000E+00  0.00000000000E+00  0.45593999997E+02  0.45594000000E+02  0.51100000000E-03 0.  1.
         11   -1    0    0    0    0 -0.00000000000E+00 -0.00000000000E+00 -0.45593999997E+02  0.45594000000E+02  0.51100000000E-03 0. -1.
    9900012    2    1    2    0    0  0.24697714333E+02 -0.98752915588E+01 -0.34294668140E+02  0.47787277201E+02  0.20000028069E+02 0.  0.
        -12    1    1    2    0    0 -0.24697714333E+02  0.98752915588E+01  0.34294668140E+02  0.43400722799E+02  0.00000000000E+00 0.  1.
         11    1    3    3    0    0  0.18884693845E+02 -0.12793990629E+02 -0.17846332075E+02  0.28962206867E+02  0.51100000000E-03 0. -1.
        -11    1    3    3    0    0  0.33327352732E+01  0.46420444314E+01 -0.78350356860E+01  0.96976020421E+01  0.51100000000E-03 0.  1.
        -12    1    3    3    0    0  0.24802852149E+01 -0.17233453611E+01 -0.86133003794E+01  0.91274682912E+01  0.00000000000E+00 0.  1.
</event>
<event>
 7    1  0.2834226E-010  0.4778727E+02  0.7816164E-02  0.1312668E+00
        -11   -1    0    0    0    0  0.00000000000E+00  0.00000000000E+00  0.45593999997E+02  0.45594000000E+02  0.51100000000E-03 0. -1.
         11   -1    0    0    0    0 -0.00000000000E+00 -0.00000000000E+00 -0.45593999997E+02  0.45594000000E+02  0.51100000000E-03 0.  1.
    9900012    2    1    2    0    0  0.34987248373E+02  0.11856966727E+02  0.22779994844E+02  0.47787269894E+02  0.19999994754E+02 0.  0.
        -12    1    1    2    0    0 -0.34987248373E+02 -0.11856966727E+02 -0.22779994844E+02  0.43400730106E+02  0.00000000000E+00 0.  1.
         11    1    3    3    0    0  0.14941448334E+02  0.69878425112E+01  0.16695702626E+02  0.23469625214E+02  0.51100000000E-03 0.  1.
        -11    1    3    3    0    0  0.93386503895E+01  0.41155534193E+01 -0.25766047308E+01  0.10525543370E+02  0.51100000000E-03 0. -1.
        -12    1    3    3    0    0  0.10707149649E+02  0.75357079630E+00  0.86608969490E+01  0.13792101309E+02  0.00000000000E+00 0.  1.
</event>
<event>
 7    1  0.2834226E-010  0.4778727E+02  0.7816164E-02  0.1312668E+00
        -11   -1    0    0    0    0  0.00000000000E+00  0.00000000000E+00  0.45593999997E+02  0.45594000000E+02  0.51100000000E-03 0.  1.
         11   -1    0    0    0    0 -0.00000000000E+00 -0.00000000000E+00 -0.45593999997E+02  0.45594000000E+02  0.51100000000E-03 0. -1.
    9900012    2    1    2    0    0 -0.12136716418E+02  0.31524108293E+02 -0.27249842759E+02  0.47787271672E+02  0.20000002859E+02 0.  0.
        -12    1    1    2    0    0  0.12136716418E+02 -0.31524108293E+02  0.27249842759E+02  0.43400728328E+02  0.00000000000E+00 0.  1.
         11    1    3    3    0    0 -0.53854514081E+01  0.53790593013E+01 -0.12183060784E+02  0.14365386739E+02  0.51100000000E-03 0. -1.
        -11    1    3    3    0    0 -0.41856017068E-01  0.65349856321E+01  0.17117896232E+01  0.67555912482E+01  0.51100000000E-03 0.  1.
         12    1    3    3    0    0 -0.67094089929E+01  0.19610063360E+02 -0.16778571598E+02  0.26666293685E+02  0.00000000000E+00 0. -1.
</event>
<event>
 7    1  0.2834226E-010  0.4778727E+02  0.7816164E-02  0.1312668E+00
        -11   -1    0    0    0    0  0.00000000000E+00  0.00000000000E+00  0.45593999997E+02  0.45594000000E+02  0.51100000000E-03 0. -1.
         11   -1    0    0    0    0 -0.00000000000E+00 -0.00000000000E+00 -0.45593999997E+02  0.45594000000E+02  0.51100000000E-03 0.  1.
    9900012    2    1    2    0    0 -0.41466027228E+02 -0.86672401433E+01  0.94377344120E+01  0.47787270782E+02  0.19999998805E+02 0.  0.
        -12    1    1    2    0    0  0.41466027228E+02  0.86672401433E+01 -0.94377344120E+01  0.43400729218E+02  0.00000000000E+00 0.  1.
         11    1    3    3    0    0 -0.71924774741E+01 -0.21220402794E+01  0.45983090458E+01  0.87965466806E+01  0.51100000000E-03 0. -1.
        -11    1    3    3    0    0 -0.12327116967E+01  0.25811528273E+01  0.37223419638E+01  0.46944390508E+01  0.51100000000E-03 0.  1.
        -12    1    3    3    0    0 -0.33040838057E+02 -0.91263526912E+01  0.11170834023E+01  0.34296285051E+02  0.00000000000E+00 0.  1.
</event>
<event>
 7    1  0.2834226E-010  0.4778727E+02  0.7816164E-02  0.1312668E+00
        -11   -1    0    0    0    0  0.00000000000E+00  0.00000000000E+00  0.45593999997E+02  0.45594000000E+02  0.51100000000E-03 0. -1.
         11   -1    0    0    0    0 -0.00000000000E+00 -0.00000000000E+00 -0.45593999997E+02  0.45594000000E+02  0.51100000000E-03 0.  1.
    9900012    2    1    2    0    0  0.23931001229E+02 -0.21470981026E+02  0.29153514691E+02  0.47787271148E+02  0.20000000472E+02 0.  0.
        -12    1    1    2    0    0 -0.23931001229E+02  0.21470981026E+02 -0.29153514691E+02  0.43400728852E+02  0.00000000000E+00 0.  1.
         11    1    3    3    0    0 -0.68189584123E+00 -0.20598532504E+00 -0.19641046413E+01  0.20892867672E+01  0.51100000000E-03 0. -1.
        -11    1    3    3    0    0  0.19994347398E+01 -0.51888905122E+01  0.69660138030E+01  0.89133423916E+01  0.51100000000E-03 0.  1.
         12    1    3    3    0    0  0.22613462331E+02 -0.16076105189E+02  0.24151605529E+02  0.36784641989E+02  0.00000000000E+00 0. -1.
</event>
<event>
 7    1  0.2834226E-010  0.4778727E+02  0.7816164E-02  0.1312668E+00
        -11   -1    0    0    0    0  0.00000000000E+00  0.00000000000E+00  0.45593999997E+02  0.45594000000E+02  0.51100000000E-03 0. -1.
         11   -1    0    0    0    0 -0.00000000000E+00 -0.00000000000E+00 -0.45593999997E+02  0.45594000000E+02  0.51100000000E-03 0.  1.
    9900012    2    1    2    0    0  0.10200116077E+02  0.29916241354E+02  0.29742211196E+02  0.47787274297E+02  0.20000014831E+02 0.  0.
        -12    1    1    2    0    0 -0.10200116077E+02 -0.29916241354E+02 -0.29742211196E+02  0.43400725703E+02  0.00000000000E+00 0.  1.
         11    1    3    3    0    0 -0.29396570183E+01  0.72979153169E+01  0.97530839321E+01  0.12530913686E+02  0.51100000000E-03 0. -1.
        -11    1    3    3    0    0  0.15646008927E+02  0.18819334499E+02  0.16405763040E+02  0.29463774495E+02  0.51100000000E-03 0.  1.
        -12    1    3    3    0    0 -0.25062358319E+01  0.37989915382E+01  0.35833642237E+01  0.57925861161E+01  0.00000000000E+00 0.  1.
</event>
<event>
 7    1  0.2834226E-010  0.4778727E+02  0.7816164E-02  0.1312668E+00
        -11   -1    0    0    0    0  0.00000000000E+00  0.00000000000E+00  0.45593999997E+02  0.45594000000E+02  0.51100000000E-03 0. -1.
         11   -1    0    0    0    0 -0.00000000000E+00 -0.00000000000E+00 -0.45593999997E+02  0.45594000000E+02  0.51100000000E-03 0.  1.
    9900012    2    1    2    0    0  0.43383321804E+02 -0.42729231926E-01 -0.12283143035E+01  0.47787271981E+02  0.20000004272E+02 0.  0.
        -12    1    1    2    0    0 -0.43383321804E+02  0.42729231926E-01  0.12283143035E+01  0.43400728019E+02  0.00000000000E+00 0.  1.
         11    1    3    3    0    0  0.20840004563E+02 -0.31853522923E+01  0.65643997117E+01  0.22080389563E+02  0.51100000000E-03 0. -1.
        -11    1    3    3    0    0  0.17994162978E+02  0.59690733154E+01 -0.47387638387E+01  0.19541638122E+02  0.51100000000E-03 0.  1.
        -12    1    3    3    0    0  0.45491542631E+01 -0.28264502550E+01 -0.30539501765E+01  0.61652442964E+01  0.00000000000E+00 0.  1.
</event>
<event>
 7    1  0.2834226E-010  0.4778727E+02  0.7816164E-02  0.1312668E+00
        -11   -1    0    0    0    0  0.00000000000E+00  0.00000000000E+00  0.45593999997E+02  0.45594000000E+02  0.51100000000E-03 0.  1.
         11   -1    0    0    0    0 -0.00000000000E+00 -0.00000000000E+00 -0.45593999997E+02  0.45594000000E+02  0.51100000000E-03 0. -1.
    9900012    2    1    2    0    0 -0.26630944418E+02  0.19900482360E+02 -0.27899583095E+02  0.47787272637E+02  0.20000007260E+02 0.  0.
        -12    1    1    2    0    0  0.26630944418E+02 -0.19900482360E+02  0.27899583095E+02  0.43400727363E+02  0.00000000000E+00 0.  1.
         11    1    3    3    0    0 -0.10042768195E+02  0.35442913371E+01 -0.25048574337E+01  0.10940452693E+02  0.51100000000E-03 0. -1.
        -11    1    3    3    0    0 -0.11050143451E+02  0.73176210668E+01 -0.22058686043E+02  0.25734002381E+02  0.51100000000E-03 0.  1.
        -12    1    3    3    0    0 -0.55380327717E+01  0.90385699566E+01 -0.33360396186E+01  0.11112817563E+02  0.00000000000E+00 0.  1.
</event>
<event>
 7    1  0.2834226E-010  0.4778728E+02  0.7816164E-02  0.1312668E+00
        -11   -1    0    0    0    0  0.00000000000E+00  0.00000000000E+00  0.45593999997E+02  0.45594000000E+02  0.51100000000E-03 0.  1.
         11   -1    0    0    0    0 -0.00000000000E+00 -0.00000000000E+00 -0.45593999997E+02  0.45594000000E+02  0.51100000000E-03 0. -1.
    9900012    2    1    2    0    0  0.10509616467E+02  0.17108164204E+02 -0.38477026330E+02  0.47787275630E+02  0.20000020905E+02 0.  0.
        -12    1    1    2    0    0 -0.10509616467E+02 -0.17108164204E+02  0.38477026330E+02  0.43400724370E+02  0.00000000000E+00 0.  1.
         11    1    3    3    0    0 -0.29594786183E+01 -0.14779072448E+01 -0.52610011878E+01  0.62145681488E+01  0.51100000000E-03 0. -1.
        -11    1    3    3    0    0  0.34820780840E+01 -0.32480432480E+00 -0.33791644854E+01  0.48630359358E+01  0.51100000000E-03 0.  1.
         12    1    3    3    0    0  0.99870170017E+01  0.18910875773E+02 -0.29836860656E+02  0.36709671545E+02  0.00000000000E+00 0. -1.
</event>
<event>
 7    1  0.2834226E-010  0.4778727E+02  0.7816164E-02  0.1312668E+00
        -11   -1    0    0    0    0  0.00000000000E+00  0.00000000000E+00  0.45593999997E+02  0.45594000000E+02  0.51100000000E-03 0.  1.
         11   -1    0    0    0    0 -0.00000000000E+00 -0.00000000000E+00 -0.45593999997E+02  0.45594000000E+02  0.51100000000E-03 0. -1.
    9900012    2    1    2    0    0 -0.32031639496E+01 -0.41611922999E+02 -0.11908437176E+02  0.47787271078E+02  0.20000000154E+02 0.  0.
        -12    1    1    2    0    0  0.32031639496E+01  0.41611922999E+02  0.11908437176E+02  0.43400728922E+02  0.00000000000E+00 0.  1.
         11    1    3    3    0    0 -0.79100728215E+01 -0.10886195778E+02 -0.60506336825E+01  0.14754276627E+02  0.51100000000E-03 0. -1.
        -11    1    3    3    0    0  0.32587015038E+01 -0.17975822044E+02  0.13441484793E+01  0.18318189022E+02  0.51100000000E-03 0.  1.
         12    1    3    3    0    0  0.14482073681E+01 -0.12749905177E+02 -0.72019519727E+01  0.14714805429E+02  0.00000000000E+00 0. -1.
</event>
<event>
 7    1  0.2834226E-010  0.4778728E+02  0.7816164E-02  0.1312668E+00
        -11   -1    0    0    0    0  0.00000000000E+00  0.00000000000E+00  0.45593999997E+02  0.45594000000E+02  0.51100000000E-03 0.  1.
         11   -1    0    0    0    0 -0.00000000000E+00 -0.00000000000E+00 -0.45593999997E+02  0.45594000000E+02  0.51100000000E-03 0. -1.
    9900012    2    1    2    0    0  0.15328758127E+02  0.35060974562E+01 -0.40451936121E+02  0.47787277874E+02  0.20000031140E+02 0.  0.
        -12    1    1    2    0    0 -0.15328758127E+02 -0.35060974562E+01  0.40451936121E+02  0.43400722126E+02  0.00000000000E+00 0.  1.
         11    1    3    3    0    0  0.13387371580E+02  0.54498167921E+01 -0.35259733453E+02  0.38107361812E+02  0.51100000000E-03 0. -1.
        -11    1    3    3    0    0  0.25422936746E+00 -0.15921617270E+01  0.18360216126E+01  0.24434784957E+01  0.51100000000E-03 0.  1.
        -12    1    3    3    0    0  0.16871571792E+01 -0.35155760886E+00 -0.70282242812E+01  0.72364375660E+01  0.00000000000E+00 0.  1.
</event>
<event>
 7    1  0.2834226E-010  0.4778727E+02  0.7816164E-02  0.1312668E+00
        -11   -1    0    0    0    0  0.00000000000E+00  0.00000000000E+00  0.45593999997E+02  0.45594000000E+02  0.51100000000E-03 0. -1.
         11   -1    0    0    0    0 -0.00000000000E+00 -0.00000000000E+00 -0.45593999997E+02  0.45594000000E+02  0.51100000000E-03 0.  1.
    9900012    2    1    2    0    0 -0.30901541228E+02 -0.28438472676E+02  0.10953138467E+02  0.47787271657E+02  0.20000002792E+02 0.  0.
        -12    1    1    2    0    0  0.30901541228E+02  0.28438472676E+02 -0.10953138467E+02  0.43400728343E+02  0.00000000000E+00 0.  1.
         11    1    3    3    0    0 -0.12464146377E+02 -0.19623582511E+02  0.11083692410E+02  0.25754381631E+02  0.51100000000E-03 0. -1.
        -11    1    3    3    0    0 -0.13168534450E+02 -0.31412999980E+01 -0.28344698064E+01  0.13831568406E+02  0.51100000000E-03 0.  1.
        -12    1    3    3    0    0 -0.52688604010E+01 -0.56735901676E+01  0.27039158636E+01  0.82013216199E+01  0.00000000000E+00 0.  1.
</event>
<event>
 7    1  0.2834226E-010  0.4778727E+02  0.7816164E-02  0.1312668E+00
        -11   -1    0    0    0    0  0.00000000000E+00  0.00000000000E+00  0.45593999997E+02  0.45594000000E+02  0.51100000000E-03 0.  1.
         11   -1    0    0    0    0 -0.00000000000E+00 -0.00000000000E+00 -0.45593999997E+02  0.45594000000E+02  0.51100000000E-03 0. -1.
    9900012    2    1    2    0    0 -0.30657432530E+01 -0.21290585092E+02 -0.37695298776E+02  0.47787270224E+02  0.19999996259E+02 0.  0.
        -12    1    1    2    0    0  0.30657432530E+01  0.21290585092E+02  0.37695298776E+02  0.43400729776E+02  0.00000000000E+00 0.  1.
         11    1    3    3    0    0  0.50327320490E+01 -0.70945636031E+01 -0.14663042152E+02  0.17048930466E+02  0.51100000000E-03 0. -1.
        -11    1    3    3    0    0 -0.92283203912E+01 -0.41187717059E+01 -0.99031066643E+01  0.14149123629E+02  0.51100000000E-03 0.  1.
         12    1    3    3    0    0  0.11298450893E+01 -0.10077249783E+02 -0.13129149959E+02  0.16589216129E+02  0.00000000000E+00 0. -1.
</event>
<event>
 7    1  0.2834226E-010  0.4778727E+02  0.7816164E-02  0.1312668E+00
        -11   -1    0    0    0    0  0.00000000000E+00  0.00000000000E+00  0.45593999997E+02  0.45594000000E+02  0.51100000000E-03 0.  1.
         11   -1    0    0    0    0 -0.00000000000E+00 -0.00000000000E+00 -0.45593999997E+02  0.45594000000E+02  0.51100000000E-03 0. -1.
    9900012    2    1    2    0    0 -0.16246039567E+02  0.37759501446E+02 -0.13925146600E+02  0.47787268913E+02  0.19999990281E+02 0.  0.
        -12    1    1    2    0    0  0.16246039567E+02 -0.37759501446E+02  0.13925146600E+02  0.43400731087E+02  0.00000000000E+00 0.  1.
         11    1    3    3    0    0 -0.12292467753E+01  0.44586552645E+01 -0.22761639314E+01  0.51547625460E+01  0.51100000000E-03 0. -1.
        -11    1    3    3    0    0 -0.79348714906E+01  0.15009244983E+02 -0.15094521152E+02  0.22717486427E+02  0.51100000000E-03 0.  1.
        -12    1    3    3    0    0 -0.70819213013E+01  0.18291601199E+02  0.34455384834E+01  0.19915019939E+02  0.00000000000E+00 0.  1.
</event>
<event>
 7    1  0.2834226E-010  0.4778729E+02  0.7816164E-02  0.1312668E+00
        -11   -1    0    0    0    0  0.00000000000E+00  0.00000000000E+00  0.45593999997E+02  0.45594000000E+02  0.51100000000E-03 0.  1.
         11   -1    0    0    0    0 -0.00000000000E+00 -0.00000000000E+00 -0.45593999997E+02  0.45594000000E+02  0.51100000000E-03 0. -1.
    9900012    2    1    2    0    0  0.42530904532E+02 -0.47463820005E+00 -0.86324268757E+01  0.47787286693E+02  0.20000071349E+02 0.  0.
        -12    1    1    2    0    0 -0.42530904532E+02  0.47463820005E+00  0.86324268757E+01  0.43400713307E+02  0.00000000000E+00 0.  1.
         11    1    3    3    0    0  0.27348105366E+02  0.58071356460E+01  0.24139220520E+00  0.27958897725E+02  0.51100000000E-03 0. -1.
        -11    1    3    3    0    0  0.63508708848E+00 -0.21197188389E+01 -0.26874469571E+01  0.34812232009E+01  0.51100000000E-03 0.  1.
         12    1    3    3    0    0  0.14547712078E+02 -0.41620550071E+01 -0.61863721238E+01  0.16347165768E+02  0.00000000000E+00 0. -1.
</event>
<event>
 7    1  0.2834226E-010  0.4778727E+02  0.7816164E-02  0.1312668E+00
        -11   -1    0    0    0    0  0.00000000000E+00  0.00000000000E+00  0.45593999997E+02  0.45594000000E+02  0.51100000000E-03 0. -1.
         11   -1    0    0    0    0 -0.00000000000E+00 -0.00000000000E+00 -0.45593999997E+02  0.45594000000E+02  0.51100000000E-03 0.  1.
    9900012    2    1    2    0    0  0.41920604579E+02 -0.26521544606E+01  0.10920257365E+02  0.47787273826E+02  0.20000012682E+02 0.  0.
        -12    1    1    2    0    0 -0.41920604579E+02  0.26521544606E+01 -0.10920257365E+02  0.43400726174E+02  0.00000000000E+00 0.  1.
         11    1    3    3    0    0  0.19291951401E+02  0.75784726413E+00 -0.20395306601E+01  0.19414257825E+02  0.51100000000E-03 0. -1.
        -11    1    3    3    0    0  0.53890426691E+01  0.48019698961E+00 -0.14146403087E+01  0.55922783821E+01  0.51100000000E-03 0.  1.
         12    1    3    3    0    0  0.17239610509E+02 -0.38901987144E+01  0.14374428333E+02  0.22780737619E+02  0.00000000000E+00 0. -1.
</event>
<event>
 7    1  0.2834226E-010  0.4778727E+02  0.7816164E-02  0.1312668E+00
        -11   -1    0    0    0    0  0.00000000000E+00  0.00000000000E+00  0.45593999997E+02  0.45594000000E+02  0.51100000000E-03 0.  1.
         11   -1    0    0    0    0 -0.00000000000E+00 -0.00000000000E+00 -0.45593999997E+02  0.45594000000E+02  0.51100000000E-03 0. -1.
    9900012    2    1    2    0    0 -0.39052810345E+02  0.33536194902E+01 -0.18634772406E+02  0.47787268415E+02  0.19999988010E+02 0.  0.
        -12    1    1    2    0    0  0.39052810345E+02 -0.33536194902E+01  0.18634772406E+02  0.43400731585E+02  0.00000000000E+00 0.  1.
         11    1    3    3    0    0 -0.33034325493E+02  0.49406550316E+01 -0.64551139740E+01  0.34019777036E+02  0.51100000000E-03 0. -1.
        -11    1    3    3    0    0 -0.39403064867E+01 -0.10296735721E+01 -0.94616845890E+01  0.10300957159E+02  0.51100000000E-03 0.  1.
         12    1    3    3    0    0 -0.20781783654E+01 -0.55736196929E+00 -0.27179738427E+01  0.34665342192E+01  0.00000000000E+00 0. -1.
</event>
<event>
 7    1  0.2834226E-010  0.4778728E+02  0.7816164E-02  0.1312668E+00
        -11   -1    0    0    0    0  0.00000000000E+00  0.00000000000E+00  0.45593999997E+02  0.45594000000E+02  0.51100000000E-03 0. -1.
         11   -1    0    0    0    0 -0.00000000000E+00 -0.00000000000E+00 -0.45593999997E+02  0.45594000000E+02  0.51100000000E-03 0.  1.
    9900012    2    1    2    0    0 -0.10124865577E+02  0.42175182396E+02  0.15375201908E+01  0.47787275566E+02  0.20000020615E+02 0.  0.
        -12    1    1    2    0    0  0.10124865577E+02 -0.42175182396E+02 -0.15375201908E+01  0.43400724434E+02  0.00000000000E+00 0.  1.
         11    1    3    3    0    0 -0.10916286256E+02  0.32382234340E+02  0.38160433646E+00  0.34174844968E+02  0.51100000000E-03 0. -1.
        -11    1    3    3    0    0  0.25335238479E+01  0.84702614040E+01 -0.26440006600E+01  0.92279364482E+01  0.51100000000E-03 0.  1.
         12    1    3    3    0    0 -0.17421031685E+01  0.13226866518E+01  0.37999165144E+01  0.43844941492E+01  0.00000000000E+00 0. -1.
</event>
<event>
 7    1  0.2834226E-010  0.4778727E+02  0.7816164E-02  0.1312668E+00
        -11   -1    0    0    0    0  0.00000000000E+00  0.00000000000E+00  0.45593999997E+02  0.45594000000E+02  0.51100000000E-03 0.  1.
         11   -1    0    0    0    0 -0.00000000000E+00 -0.00000000000E+00 -0.45593999997E+02  0.45594000000E+02  0.51100000000E-03 0. -1.
    9900012    2    1    2    0    0  0.36817995151E+02  0.22198286960E+02  0.59409335024E+01  0.47787269571E+02  0.19999993282E+02 0.  0.
        -12    1    1    2    0    0 -0.36817995151E+02 -0.22198286960E+02 -0.59409335024E+01  0.43400730429E+02  0.00000000000E+00 0.  1.
         11    1    3    3    0    0 -0.20195999610E+01  0.63822630571E+00 -0.11739551024E+01  0.24216291341E+01  0.51100000000E-03 0. -1.
        -11    1    3    3    0    0  0.54577940270E+01  0.54305623607E+01  0.18787898178E+01  0.79251734766E+01  0.51100000000E-03 0.  1.
         12    1    3    3    0    0  0.33379801085E+02  0.16129498293E+02  0.52360987870E+01  0.37440466960E+02  0.00000000000E+00 0. -1.
</event>
<event>
 7    1  0.2834226E-010  0.4778727E+02  0.7816164E-02  0.1312668E+00
        -11   -1    0    0    0    0  0.00000000000E+00  0.00000000000E+00  0.45593999997E+02  0.45594000000E+02  0.51100000000E-03 0.  1.
         11   -1    0    0    0    0 -0.00000000000E+00 -0.00000000000E+00 -0.45593999997E+02  0.45594000000E+02  0.51100000000E-03 0. -1.
    9900012    2    1    2    0    0 -0.15401619834E+02 -0.13221134051E+02 -0.38361631564E+02  0.47787273562E+02  0.20000011480E+02 0.  0.
        -12    1    1    2    0    0  0.15401619834E+02  0.13221134051E+02  0.38361631564E+02  0.43400726438E+02  0.00000000000E+00 0.  1.
         11    1    3    3    0    0  0.14664264093E+01 -0.25010465998E+01 -0.15574162459E+02  0.15841722667E+02  0.51100000000E-03 0. -1.
        -11    1    3    3    0    0 -0.85683212972E+01 -0.10173468748E+02 -0.97939041421E+01  0.16517752717E+02  0.51100000000E-03 0.  1.
         12    1    3    3    0    0 -0.82997249458E+01 -0.54661870378E+00 -0.12993564963E+02  0.15427798178E+02  0.00000000000E+00 0. -1.
</event>
<event>
 7    1  0.2834226E-010  0.4778727E+02  0.7816164E-02  0.1312668E+00
        -11   -1    0    0    0    0  0.00000000000E+00  0.00000000000E+00  0.45593999997E+02  0.45594000000E+02  0.51100000000E-03 0.  1.
         11   -1    0    0    0    0 -0.00000000000E+00 -0.00000000000E+00 -0.45593999997E+02  0.45594000000E+02  0.51100000000E-03 0. -1.
    9900012    2    1    2    0    0  0.38696887779E+02 -0.66018457801E+01 -0.18509178473E+02  0.47787272135E+02  0.20000004972E+02 0.  0.
        -12    1    1    2    0    0 -0.38696887779E+02  0.66018457801E+01  0.18509178473E+02  0.43400727865E+02  0.00000000000E+00 0.  1.
         11    1    3    3    0    0  0.22552031766E+02 -0.63033861840E+01 -0.38349274210E+01  0.23728326590E+02  0.51100000000E-03 0.  1.
        -11    1    3    3    0    0  0.16464093884E+02  0.20149783885E+00 -0.15778789563E+02  0.22805200923E+02  0.51100000000E-03 0. -1.
         12    1    3    3    0    0 -0.31923787140E+00 -0.49995743490E+00  0.11045385110E+01  0.12537446222E+01  0.00000000000E+00 0. -1.
</event>
<event>
 7    1  0.2834226E-010  0.4778727E+02  0.7816164E-02  0.1312668E+00
        -11   -1    0    0    0    0  0.00000000000E+00  0.00000000000E+00  0.45593999997E+02  0.45594000000E+02  0.51100000000E-03 0.  1.
         11   -1    0    0    0    0 -0.00000000000E+00 -0.00000000000E+00 -0.45593999997E+02  0.45594000000E+02  0.51100000000E-03 0. -1.
    9900012    2    1    2    0    0  0.30313159182E+01 -0.33643241411E+01 -0.43163822065E+02  0.47787273181E+02  0.20000009742E+02 0.  0.
        -12    1    1    2    0    0 -0.30313159182E+01  0.33643241411E+01  0.43163822065E+02  0.43400726819E+02  0.00000000000E+00 0.  1.
         11    1    3    3    0    0  0.37347075240E+01 -0.90092043583E+01 -0.15415434494E+02  0.18241420569E+02  0.51100000000E-03 0. -1.
        -11    1    3    3    0    0  0.12482879216E+01 -0.18469712435E+01 -0.87752712226E+01  0.90539997129E+01  0.51100000000E-03 0.  1.
         12    1    3    3    0    0 -0.19516795274E+01  0.74918514607E+01 -0.18973116349E+02  0.20491852900E+02  0.00000000000E+00 0. -1.
</event>
<event>
 7    1  0.2834226E-010  0.4778727E+02  0.7816164E-02  0.1312668E+00
        -11   -1    0    0    0    0  0.00000000000E+00  0.00000000000E+00  0.45593999997E+02  0.45594000000E+02  0.51100000000E-03 0.  1.
         11   -1    0    0    0    0 -0.00000000000E+00 -0.00000000000E+00 -0.45593999997E+02  0.45594000000E+02  0.51100000000E-03 0. -1.
    9900012    2    1    2    0    0 -0.15439119782E+02  0.23357652348E+02 -0.33161374988E+02  0.47787272656E+02  0.20000007349E+02 0.  0.
        -12    1    1    2    0    0  0.15439119782E+02 -0.23357652348E+02  0.33161374988E+02  0.43400727344E+02  0.00000000000E+00 0.  1.
         11    1    3    3    0    0 -0.12393111309E+02  0.24674278855E+02 -0.32055413160E+02  0.42307904203E+02  0.51100000000E-03 0. -1.
        -11    1    3    3    0    0 -0.91741776769E+00 -0.63308010946E+00  0.16121424437E+01  0.19599615571E+01  0.51100000000E-03 0.  1.
         12    1    3    3    0    0 -0.21285907056E+01 -0.68354639744E+00 -0.27181042712E+01  0.35194068959E+01  0.00000000000E+00 0. -1.
</event>
<event>
 7    1  0.2834226E-010  0.4778727E+02  0.7816164E-02  0.1312668E+00
        -11   -1    0    0    0    0  0.00000000000E+00  0.00000000000E+00  0.45593999997E+02  0.45594000000E+02  0.51100000000E-03 0.  1.
         11   -1    0    0    0    0 -0.00000000000E+00 -0.00000000000E+00 -0.45593999997E+02  0.45594000000E+02  0.51100000000E-03 0. -1.
    9900012    2    1    2    0    0  0.14706418100E+02  0.31684421455E+02 -0.25757370426E+02  0.47787269274E+02  0.19999991927E+02 0.  0.
        -12    1    1    2    0    0 -0.14706418100E+02 -0.31684421455E+02  0.25757370426E+02  0.43400730726E+02  0.00000000000E+00 0.  1.
         11    1    3    3    0    0  0.13830987319E+00  0.21353757550E+02 -0.17787859132E+02  0.27792265541E+02  0.51100000000E-03 0. -1.
        -11    1    3    3    0    0  0.78664174390E+01  0.73287641462E+01 -0.63109485560E+01  0.12466730894E+02  0.51100000000E-03 0.  1.
         12    1    3    3    0    0  0.67016907883E+01  0.30018997585E+01 -0.16585627380E+01  0.75282728390E+01  0.00000000000E+00 0. -1.
</event>
<event>
 7    1  0.2834226E-010  0.4778728E+02  0.7816164E-02  0.1312668E+00
        -11   -1    0    0    0    0  0.00000000000E+00  0.00000000000E+00  0.45593999997E+02  0.45594000000E+02  0.51100000000E-03 0. -1.
         11   -1    0    0    0    0 -0.00000000000E+00 -0.00000000000E+00 -0.45593999997E+02  0.45594000000E+02  0.51100000000E-03 0.  1.
    9900012    2    1    2    0    0 -0.11159479687E+02  0.34308523910E+02  0.24124958995E+02  0.47787280579E+02  0.20000043472E+02 0.  0.
        -12    1    1    2    0    0  0.11159479687E+02 -0.34308523910E+02 -0.24124958995E+02  0.43400719421E+02  0.00000000000E+00 0.  1.
         11    1    3    3    0    0 -0.53597137723E+01  0.26106287133E+02  0.22280647330E+02  0.34737472638E+02  0.51100000000E-03 0. -1.
        -11    1    3    3    0    0  0.84405919742E-01  0.26882044647E+01  0.38910717102E+01  0.47301170090E+01  0.51100000000E-03 0.  1.
         12    1    3    3    0    0 -0.58841718346E+01  0.55140323123E+01 -0.20467600454E+01  0.83196909319E+01  0.00000000000E+00 0. -1.
</event>
<event>
 7    1  0.2834226E-010  0.4778727E+02  0.7816164E-02  0.1312668E+00
        -11   -1    0    0    0    0  0.00000000000E+00  0.00000000000E+00  0.45593999997E+02  0.45594000000E+02  0.51100000000E-03 0.  1.
         11   -1    0    0    0    0 -0.00000000000E+00 -0.00000000000E+00 -0.45593999997E+02  0.45594000000E+02  0.51100000000E-03 0. -1.
    9900012    2    1    2    0    0 -0.42906138369E+02 -0.14304719193E+01 -0.63749758198E+01  0.47787271015E+02  0.19999999868E+02 0.  0.
        -12    1    1    2    0    0  0.42906138369E+02  0.14304719193E+01  0.63749758198E+01  0.43400728985E+02  0.00000000000E+00 0.  1.
         11    1    3    3    0    0 -0.19740195075E+01 -0.97075576656E-01 -0.62592675092E+01  0.65638865542E+01  0.51100000000E-03 0. -1.
        -11    1    3    3    0    0 -0.24154741728E+02 -0.28081608430E+01 -0.11949581751E+01  0.24346770639E+02  0.51100000000E-03 0.  1.
         12    1    3    3    0    0 -0.16777377134E+02  0.14747645003E+01  0.10792498645E+01  0.16876613822E+02  0.00000000000E+00 0. -1.
</event>
<event>
 7    1  0.2834226E-010  0.4778727E+02  0.7816164E-02  0.1312668E+00
        -11   -1    0    0    0    0  0.00000000000E+00  0.00000000000E+00  0.45593999997E+02  0.45594000000E+02  0.51100000000E-03 0.  1.
         11   -1    0    0    0    0 -0.00000000000E+00 -0.00000000000E+00 -0.45593999997E+02  0.45594000000E+02  0.51100000000E-03 0. -1.
    9900012    2    1    2    0    0  0.35734050514E+02 -0.22606041454E+02 -0.97809824781E+01  0.47787273109E+02  0.20000009415E+02 0.  0.
        -12    1    1    2    0    0 -0.35734050514E+02  0.22606041454E+02  0.97809824781E+01  0.43400726891E+02  0.00000000000E+00 0.  1.
         11    1    3    3    0    0  0.21351904973E+02 -0.39559306489E+01 -0.49587764322E+01  0.22274260869E+02  0.51100000000E-03 0.  1.
        -11    1    3    3    0    0  0.14386448373E+02 -0.19172897247E+02 -0.55621014939E+01  0.24607048968E+02  0.51100000000E-03 0. -1.
        -12    1    3    3    0    0 -0.43028315483E-02  0.52278644154E+00  0.73989544798E+00  0.90596327285E+00  0.00000000000E+00 0.  1.
</event>
<event>
 7    1  0.2834226E-010  0.4778731E+02  0.7816164E-02  0.1312668E+00
        -11   -1    0    0    0    0  0.00000000000E+00  0.00000000000E+00  0.45593999997E+02  0.45594000000E+02  0.51100000000E-03 0.  1.
         11   -1    0    0    0    0 -0.00000000000E+00 -0.00000000000E+00 -0.45593999997E+02  0.45594000000E+02  0.51100000000E-03 0. -1.
    9900012    2    1    2    0    0  0.13940174801E+02  0.28867189467E+02 -0.29257077826E+02  0.47787312170E+02  0.20000187505E+02 0.  0.
        -12    1    1    2    0    0 -0.13940174801E+02 -0.28867189467E+02  0.29257077826E+02  0.43400687830E+02  0.00000000000E+00 0.  1.
         11    1    3    3    0    0  0.56005323929E+01  0.14018674905E+02 -0.21298254622E+02  0.26105648036E+02  0.51100000000E-03 0. -1.
        -11    1    3    3    0    0  0.47240275828E+01  0.34047217774E+00  0.15459736009E-01  0.47363062793E+01  0.51100000000E-03 0.  1.
         12    1    3    3    0    0  0.36156148257E+01  0.14508042384E+02 -0.79742829401E+01  0.16945357854E+02  0.00000000000E+00 0. -1.
</event>
<event>
 7    1  0.2834226E-010  0.4778727E+02  0.7816164E-02  0.1312668E+00
        -11   -1    0    0    0    0  0.00000000000E+00  0.00000000000E+00  0.45593999997E+02  0.45594000000E+02  0.51100000000E-03 0.  1.
         11   -1    0    0    0    0 -0.00000000000E+00 -0.00000000000E+00 -0.45593999997E+02  0.45594000000E+02  0.51100000000E-03 0. -1.
    9900012    2    1    2    0    0 -0.37182363986E+02 -0.20193159467E+02 -0.96608008368E+01  0.47787274733E+02  0.20000016818E+02 0.  0.
        -12    1    1    2    0    0  0.37182363986E+02  0.20193159467E+02  0.96608008368E+01  0.43400725267E+02  0.00000000000E+00 0.  1.
         11    1    3    3    0    0 -0.14614790539E+02 -0.81595881121E+01 -0.13352956293E+02  0.21411969145E+02  0.51100000000E-03 0. -1.
        -11    1    3    3    0    0 -0.13099347350E+02 -0.84109538610E+01  0.45029221848E+01  0.16205349558E+02  0.51100000000E-03 0.  1.
         12    1    3    3    0    0 -0.94682260978E+01 -0.36226174943E+01 -0.81076672809E+00  0.10169956029E+02  0.00000000000E+00 0. -1.
</event>
<event>
 7    1  0.2834226E-010  0.4778726E+02  0.7816164E-02  0.1312668E+00
        -11   -1    0    0    0    0  0.00000000000E+00  0.00000000000E+00  0.45593999997E+02  0.45594000000E+02  0.51100000000E-03 0.  1.
         11   -1    0    0    0    0 -0.00000000000E+00 -0.00000000000E+00 -0.45593999997E+02  0.45594000000E+02  0.51100000000E-03 0. -1.
    9900012    2    1    2    0    0  0.39930131657E+01 -0.10555996185E+02 -0.41907646658E+02  0.47787262011E+02  0.19999958811E+02 0.  0.
        -12    1    1    2    0    0 -0.39930131657E+01  0.10555996185E+02  0.41907646658E+02  0.43400737989E+02  0.00000000000E+00 0.  1.
         11    1    3    3    0    0 -0.28558204514E+01 -0.18503686388E+01 -0.21456555445E+02  0.21724717406E+02  0.51100000000E-03 0. -1.
        -11    1    3    3    0    0  0.87648708479E+01 -0.97721798076E+01 -0.19833848278E+02  0.23784448637E+02  0.51100000000E-03 0.  1.
        -12    1    3    3    0    0 -0.19160372308E+01  0.10665522616E+01 -0.61724293500E+00  0.22780959676E+01  0.00000000000E+00 0.  1.
</event>
<event>
 7    1  0.2834226E-010  0.4778727E+02  0.7816164E-02  0.1312668E+00
        -11   -1    0    0    0    0  0.00000000000E+00  0.00000000000E+00  0.45593999997E+02  0.45594000000E+02  0.51100000000E-03 0. -1.
         11   -1    0    0    0    0 -0.00000000000E+00 -0.00000000000E+00 -0.45593999997E+02  0.45594000000E+02  0.51100000000E-03 0.  1.
    9900012    2    1    2    0    0 -0.60590996974E+01 -0.31818897975E+02  0.28887165238E+02  0.47787271055E+02  0.20000000047E+02 0.  0.
        -12    1    1    2    0    0  0.60590996974E+01  0.31818897975E+02 -0.28887165238E+02  0.43400728945E+02  0.00000000000E+00 0.  1.
         11    1    3    3    0    0  0.97390284790E+00  0.16941478187E+01 -0.20759565152E+00  0.19651259004E+01  0.51100000000E-03 0. -1.
        -11    1    3    3    0    0 -0.26713880005E+01 -0.24580592563E+02  0.16279125842E+02  0.29603239401E+02  0.51100000000E-03 0.  1.
         12    1    3    3    0    0 -0.43616145449E+01 -0.89324532304E+01  0.12815635048E+02  0.16218905753E+02  0.00000000000E+00 0. -1.
</event>
<event>
 7    1  0.2834226E-010  0.4778727E+02  0.7816164E-02  0.1312668E+00
        -11   -1    0    0    0    0  0.00000000000E+00  0.00000000000E+00  0.45593999997E+02  0.45594000000E+02  0.51100000000E-03 0. -1.
         11   -1    0    0    0    0 -0.00000000000E+00 -0.00000000000E+00 -0.45593999997E+02  0.45594000000E+02  0.51100000000E-03 0.  1.
    9900012    2    1    2    0    0 -0.12805815682E+01  0.41360439388E+02 -0.13088062719E+02  0.47787271650E+02  0.20000002762E+02 0.  0.
        -12    1    1    2    0    0  0.12805815682E+01 -0.41360439388E+02  0.13088062719E+02  0.43400728350E+02  0.00000000000E+00 0.  1.
         11    1    3    3    0    0  0.39827398550E+01  0.10355921338E+02 -0.63117840096E+01  0.12765028052E+02  0.51100000000E-03 0. -1.
        -11    1    3    3    0    0 -0.56283993463E+01  0.27071820716E+02 -0.55882371502E+00  0.27656367085E+02  0.51100000000E-03 0.  1.
        -12    1    3    3    0    0  0.36507792309E+00  0.39326973334E+01 -0.62174549947E+01  0.73658765139E+01  0.00000000000E+00 0.  1.
</event>
<event>
 7    1  0.2834226E-010  0.4778727E+02  0.7816164E-02  0.1312668E+00
        -11   -1    0    0    0    0  0.00000000000E+00  0.00000000000E+00  0.45593999997E+02  0.45594000000E+02  0.51100000000E-03 0.  1.
         11   -1    0    0    0    0 -0.00000000000E+00 -0.00000000000E+00 -0.45593999997E+02  0.45594000000E+02  0.51100000000E-03 0. -1.
    9900012    2    1    2    0    0 -0.10265772183E+02  0.39054300322E+02 -0.15905935391E+02  0.47787271518E+02  0.20000002157E+02 0.  0.
        -12    1    1    2    0    0  0.10265772183E+02 -0.39054300322E+02  0.15905935391E+02  0.43400728482E+02  0.00000000000E+00 0.  1.
         11    1    3    3    0    0  0.58556727246E+00 -0.32263734436E+00 -0.14421803751E+01  0.15896126516E+01  0.51100000000E-03 0. -1.
        -11    1    3    3    0    0 -0.68443460997E+01  0.12774502169E+02  0.20413740003E+01  0.14635579499E+02  0.51100000000E-03 0.  1.
        -12    1    3    3    0    0 -0.40069933559E+01  0.26602435497E+02 -0.16505129016E+02  0.31562079367E+02  0.00000000000E+00 0.  1.
</event>
<event>
 7    1  0.2834226E-010  0.4778727E+02  0.7816164E-02  0.1312668E+00
        -11   -1    0    0    0    0  0.00000000000E+00  0.00000000000E+00  0.45593999997E+02  0.45594000000E+02  0.51100000000E-03 0. -1.
         11   -1    0    0    0    0 -0.00000000000E+00 -0.00000000000E+00 -0.45593999997E+02  0.45594000000E+02  0.51100000000E-03 0.  1.
    9900012    2    1    2    0    0 -0.33553814095E+02  0.32986396362E+01  0.27329173875E+02  0.47787271798E+02  0.20000003434E+02 0.  0.
        -12    1    1    2    0    0  0.33553814095E+02 -0.32986396362E+01 -0.27329173875E+02  0.43400728202E+02  0.00000000000E+00 0.  1.
         11    1    3    3    0    0 -0.19750146820E+02 -0.12262335997E+01  0.16017590779E+02  0.25458498834E+02  0.51100000000E-03 0. -1.
        -11    1    3    3    0    0 -0.10067298172E+02  0.84971429728E+01  0.52671104562E+01  0.14187825204E+02  0.51100000000E-03 0.  1.
        -12    1    3    3    0    0 -0.37363691027E+01 -0.39722697368E+01  0.60444726401E+01  0.81409477599E+01  0.00000000000E+00 0.  1.
</event>
<event>
 7    1  0.2834226E-010  0.4778726E+02  0.7816164E-02  0.1312668E+00
        -11   -1    0    0    0    0  0.00000000000E+00  0.00000000000E+00  0.45593999997E+02  0.45594000000E+02  0.51100000000E-03 0. -1.
         11   -1    0    0    0    0 -0.00000000000E+00 -0.00000000000E+00 -0.45593999997E+02  0.45594000000E+02  0.51100000000E-03 0.  1.
    9900012    2    1    2    0    0 -0.15894483413E+02  0.39770055613E+02  0.70236809140E+01  0.47787262449E+02  0.19999960808E+02 0.  0.
        -12    1    1    2    0    0  0.15894483413E+02 -0.39770055613E+02 -0.70236809140E+01  0.43400737551E+02  0.00000000000E+00 0.  1.
         11    1    3    3    0    0 -0.85319608990E+01  0.14823665459E+02  0.67629722606E+01  0.18392205101E+02  0.51100000000E-03 0. -1.
        -11    1    3    3    0    0 -0.87914563313E+00  0.14341258898E+02  0.61639745831E+01  0.15634551057E+02  0.51100000000E-03 0.  1.
        -12    1    3    3    0    0 -0.64833768813E+01  0.10605131256E+02 -0.59032659297E+01  0.13760506290E+02  0.00000000000E+00 0.  1.
</event>
<event>
 7    1  0.2834226E-010  0.4778727E+02  0.7816164E-02  0.1312668E+00
        -11   -1    0    0    0    0  0.00000000000E+00  0.00000000000E+00  0.45593999997E+02  0.45594000000E+02  0.51100000000E-03 0.  1.
         11   -1    0    0    0    0 -0.00000000000E+00 -0.00000000000E+00 -0.45593999997E+02  0.45594000000E+02  0.51100000000E-03 0. -1.
    9900012    2    1    2    0    0  0.26656442001E+02  0.28113950802E+02 -0.19561775625E+02  0.47787271948E+02  0.20000004120E+02 0.  0.
        -12    1    1    2    0    0 -0.26656442001E+02 -0.28113950802E+02  0.19561775625E+02  0.43400728052E+02  0.00000000000E+00 0.  1.
         11    1    3    3    0    0 -0.15449067609E+01  0.67898940275E+01 -0.57091693079E+01  0.90046661377E+01  0.51100000000E-03 0.  1.
        -11    1    3    3    0    0  0.93058683564E+01  0.40185858934E+01 -0.12030543392E+01  0.10207622566E+02  0.51100000000E-03 0. -1.
         12    1    3    3    0    0  0.18895480406E+02  0.17305470881E+02 -0.12649551978E+02  0.28574983244E+02  0.00000000000E+00 0. -1.
</event>
<event>
 7    1  0.2834226E-010  0.4778727E+02  0.7816164E-02  0.1312668E+00
        -11   -1    0    0    0    0  0.00000000000E+00  0.00000000000E+00  0.45593999997E+02  0.45594000000E+02  0.51100000000E-03 0. -1.
         11   -1    0    0    0    0 -0.00000000000E+00 -0.00000000000E+00 -0.45593999997E+02  0.45594000000E+02  0.51100000000E-03 0.  1.
    9900012    2    1    2    0    0  0.85625259034E+01 -0.39598474171E+02 -0.15564931201E+02  0.47787273165E+02  0.20000009668E+02 0.  0.
        -12    1    1    2    0    0 -0.85625259034E+01  0.39598474171E+02  0.15564931201E+02  0.43400726835E+02  0.00000000000E+00 0.  1.
         11    1    3    3    0    0 -0.10703015445E+01 -0.66734165005E+01  0.30614045420E+01  0.74197190794E+01  0.51100000000E-03 0. -1.
        -11    1    3    3    0    0  0.54652789935E+01 -0.12910899745E+02 -0.13106030565E+02  0.19191890062E+02  0.51100000000E-03 0.  1.
        -12    1    3    3    0    0  0.41675484544E+01 -0.20014157925E+02 -0.55203051779E+01  0.21175664023E+02  0.00000000000E+00 0.  1.
</event>
<event>
 7    1  0.2834226E-010  0.4778727E+02  0.7816164E-02  0.1312668E+00
        -11   -1    0    0    0    0  0.00000000000E+00  0.00000000000E+00  0.45593999997E+02  0.45594000000E+02  0.51100000000E-03 0. -1.
         11   -1    0    0    0    0 -0.00000000000E+00 -0.00000000000E+00 -0.45593999997E+02  0.45594000000E+02  0.51100000000E-03 0.  1.
    9900012    2    1    2    0    0 -0.25983282332E+02 -0.18497839597E+02  0.29433353657E+02  0.47787270306E+02  0.19999996632E+02 0.  0.
        -12    1    1    2    0    0  0.25983282332E+02  0.18497839597E+02 -0.29433353657E+02  0.43400729694E+02  0.00000000000E+00 0.  1.
         11    1    3    3    0    0 -0.15630059338E+02 -0.13706891615E+02  0.19379973617E+02  0.28421136682E+02  0.51100000000E-03 0. -1.
        -11    1    3    3    0    0  0.22185647820E+01  0.10557777385E+01  0.27771048174E+01  0.37079654466E+01  0.51100000000E-03 0.  1.
        -12    1    3    3    0    0 -0.12571787776E+02 -0.58467257200E+01  0.72762752227E+01  0.15658168177E+02  0.00000000000E+00 0.  1.
</event>
<event>
 7    1  0.2834226E-010  0.4778727E+02  0.7816164E-02  0.1312668E+00
        -11   -1    0    0    0    0  0.00000000000E+00  0.00000000000E+00  0.45593999997E+02  0.45594000000E+02  0.51100000000E-03 0.  1.
         11   -1    0    0    0    0 -0.00000000000E+00 -0.00000000000E+00 -0.45593999997E+02  0.45594000000E+02  0.51100000000E-03 0. -1.
    9900012    2    1    2    0    0  0.16014156035E+02  0.39519005066E+02 -0.80881754527E+01  0.47787268012E+02  0.19999986172E+02 0.  0.
        -12    1    1    2    0    0 -0.16014156035E+02 -0.39519005066E+02  0.80881754527E+01  0.43400731988E+02  0.00000000000E+00 0.  1.
         11    1    3    3    0    0  0.59561096486E+01  0.29389561133E+02  0.80291487918E+00  0.29997770222E+02  0.51100000000E-03 0. -1.
        -11    1    3    3    0    0  0.38867516187E+01  0.11712031231E+01 -0.44947730971E+01  0.60565287383E+01  0.51100000000E-03 0.  1.
         12    1    3    3    0    0  0.61712947680E+01  0.89582408103E+01 -0.43963172348E+01  0.11732969051E+02  0.00000000000E+00 0. -1.
</event>
<event>
 7    1  0.2834226E-010  0.4778727E+02  0.7816164E-02  0.1312668E+00
        -11   -1    0    0    0    0  0.00000000000E+00  0.00000000000E+00  0.45593999997E+02  0.45594000000E+02  0.51100000000E-03 0.  1.
         11   -1    0    0    0    0 -0.00000000000E+00 -0.00000000000E+00 -0.45593999997E+02  0.45594000000E+02  0.51100000000E-03 0. -1.
    9900012    2    1    2    0    0  0.13163081421E+02 -0.27029170526E+02 -0.31301448580E+02  0.47787268958E+02  0.19999990485E+02 0.  0.
        -12    1    1    2    0    0 -0.13163081421E+02  0.27029170526E+02  0.31301448580E+02  0.43400731042E+02  0.00000000000E+00 0.  1.
         11    1    3    3    0    0  0.48336799764E+01 -0.26805782446E+02 -0.23639717792E+02  0.36065921480E+02  0.51100000000E-03 0. -1.
        -11    1    3    3    0    0  0.75518014111E+01 -0.92444488939E+00 -0.74596059904E+01  0.10655046912E+02  0.51100000000E-03 0.  1.
        -12    1    3    3    0    0  0.77760003347E+00  0.70105680933E+00 -0.20212479719E+00  0.10663005653E+01  0.00000000000E+00 0.  1.
</event>
<event>
 7    1  0.2834226E-010  0.4778727E+02  0.7816164E-02  0.1312668E+00
        -11   -1    0    0    0    0  0.00000000000E+00  0.00000000000E+00  0.45593999997E+02  0.45594000000E+02  0.51100000000E-03 0.  1.
         11   -1    0    0    0    0 -0.00000000000E+00 -0.00000000000E+00 -0.45593999997E+02  0.45594000000E+02  0.51100000000E-03 0. -1.
    9900012    2    1    2    0    0 -0.45301209972E+00  0.41256042928E+02 -0.13466896711E+02  0.47787267229E+02  0.19999982603E+02 0.  0.
        -12    1    1    2    0    0  0.45301209972E+00 -0.41256042928E+02  0.13466896711E+02  0.43400732771E+02  0.00000000000E+00 0.  1.
         11    1    3    3    0    0  0.26540783972E+01  0.33041255097E+01 -0.87513788018E-01  0.42389900267E+01  0.51100000000E-03 0. -1.
        -11    1    3    3    0    0 -0.34262722037E+01  0.10374554769E+01  0.13172247345E+01  0.38145427435E+01  0.51100000000E-03 0.  1.
        -12    1    3    3    0    0  0.31918170671E+00  0.36914461942E+02 -0.14696607657E+02  0.39733734459E+02  0.00000000000E+00 0.  1.
</event>
<event>
 7    1  0.2834226E-010  0.4778727E+02  0.7816164E-02  0.1312668E+00
        -11   -1    0    0    0    0  0.00000000000E+00  0.00000000000E+00  0.45593999997E+02  0.45594000000E+02  0.51100000000E-03 0. -1.
         11   -1    0    0    0    0 -0.00000000000E+00 -0.00000000000E+00 -0.45593999997E+02  0.45594000000E+02  0.51100000000E-03 0.  1.
    9900012    2    1    2    0    0  0.10226093433E+02  0.31722157549E+02  0.27798466930E+02  0.47787273852E+02  0.20000012801E+02 0.  0.
        -12    1    1    2    0    0 -0.10226093433E+02 -0.31722157549E+02 -0.27798466930E+02  0.43400726148E+02  0.00000000000E+00 0.  1.
         11    1    3    3    0    0  0.10018030022E+02  0.10652607128E+02  0.15160439482E+02  0.21063662780E+02  0.51100000000E-03 0. -1.
        -11    1    3    3    0    0  0.12098004164E+00  0.19053935283E+02  0.62946481846E+01  0.20067129391E+02  0.51100000000E-03 0.  1.
        -12    1    3    3    0    0  0.87083369764E-01  0.20156151384E+01  0.63433792634E+01  0.66564816817E+01  0.00000000000E+00 0.  1.
</event>
<event>
 7    1  0.2834226E-010  0.4778727E+02  0.7816164E-02  0.1312668E+00
        -11   -1    0    0    0    0  0.00000000000E+00  0.00000000000E+00  0.45593999997E+02  0.45594000000E+02  0.51100000000E-03 0.  1.
         11   -1    0    0    0    0 -0.00000000000E+00 -0.00000000000E+00 -0.45593999997E+02  0.45594000000E+02  0.51100000000E-03 0. -1.
    9900012    2    1    2    0    0  0.29825353883E+02  0.26114566209E+02 -0.17666379896E+02  0.47787270961E+02  0.19999999618E+02 0.  0.
        -12    1    1    2    0    0 -0.29825353883E+02 -0.26114566209E+02  0.17666379896E+02  0.43400729039E+02  0.00000000000E+00 0.  1.
         11    1    3    3    0    0  0.71531969865E+01  0.12375502230E+02 -0.77496902631E+01  0.16259734992E+02  0.51100000000E-03 0.  1.
        -11    1    3    3    0    0  0.94001149285E+01  0.36465382775E+01  0.29065838631E+01  0.10493218386E+02  0.51100000000E-03 0. -1.
        -12    1    3    3    0    0  0.13272041968E+02  0.10092525701E+02 -0.12823273496E+02  0.21034317583E+02  0.00000000000E+00 0.  1.
</event>
<event>
 7    1  0.2834226E-010  0.4778726E+02  0.7816164E-02  0.1312668E+00
        -11   -1    0    0    0    0  0.00000000000E+00  0.00000000000E+00  0.45593999997E+02  0.45594000000E+02  0.51100000000E-03 0.  1.
         11   -1    0    0    0    0 -0.00000000000E+00 -0.00000000000E+00 -0.45593999997E+02  0.45594000000E+02  0.51100000000E-03 0. -1.
    9900012    2    1    2    0    0  0.39244360246E+02  0.14880615537E+02 -0.11048593430E+02  0.47787263293E+02  0.19999964659E+02 0.  0.
        -12    1    1    2    0    0 -0.39244360246E+02 -0.14880615537E+02  0.11048593430E+02  0.43400736707E+02  0.00000000000E+00 0.  1.
         11    1    3    3    0    0  0.26859464133E+02  0.63656650380E+01 -0.10432405399E+02  0.29509110247E+02  0.51100000000E-03 0. -1.
        -11    1    3    3    0    0  0.88361793571E+01 -0.17595203425E+00  0.32267785804E+00  0.88438196505E+01  0.51100000000E-03 0.  1.
         12    1    3    3    0    0  0.35487167559E+01  0.86909025335E+01 -0.93886588937E+00  0.94343333956E+01  0.00000000000E+00 0. -1.
</event>
<event>
 7    1  0.2834226E-010  0.4778728E+02  0.7816164E-02  0.1312668E+00
        -11   -1    0    0    0    0  0.00000000000E+00  0.00000000000E+00  0.45593999997E+02  0.45594000000E+02  0.51100000000E-03 0. -1.
         11   -1    0    0    0    0 -0.00000000000E+00 -0.00000000000E+00 -0.45593999997E+02  0.45594000000E+02  0.51100000000E-03 0.  1.
    9900012    2    1    2    0    0 -0.26860625290E+02 -0.29309503338E+02  0.17409269607E+02  0.47787275984E+02  0.20000022521E+02 0.  0.
        -12    1    1    2    0    0  0.26860625290E+02  0.29309503338E+02 -0.17409269607E+02  0.43400724016E+02  0.00000000000E+00 0.  1.
         11    1    3    3    0    0 -0.22697107116E+02 -0.16826595209E+02  0.17360675287E+02  0.33161514206E+02  0.51100000000E-03 0. -1.
        -11    1    3    3    0    0 -0.19413854837E+00 -0.70449230519E+01 -0.24250225185E+01  0.74531446424E+01  0.51100000000E-03 0.  1.
        -12    1    3    3    0    0 -0.39693796257E+01 -0.54379850771E+01  0.24736168384E+01  0.71726171357E+01  0.00000000000E+00 0.  1.
</event>
<event>
 7    1  0.2834226E-010  0.4778727E+02  0.7816164E-02  0.1312668E+00
        -11   -1    0    0    0    0  0.00000000000E+00  0.00000000000E+00  0.45593999997E+02  0.45594000000E+02  0.51100000000E-03 0.  1.
         11   -1    0    0    0    0 -0.00000000000E+00 -0.00000000000E+00 -0.45593999997E+02  0.45594000000E+02  0.51100000000E-03 0. -1.
    9900012    2    1    2    0    0 -0.25500097330E+02  0.88721022493E+01 -0.33980199296E+02  0.47787272974E+02  0.20000008799E+02 0.  0.
        -12    1    1    2    0    0  0.25500097330E+02 -0.88721022493E+01  0.33980199296E+02  0.43400727026E+02  0.00000000000E+00 0.  1.
         11    1    3    3    0    0 -0.14933675682E+02  0.31510169017E+01 -0.26327786786E+02  0.30431824365E+02  0.51100000000E-03 0. -1.
        -11    1    3    3    0    0 -0.29471092388E+01 -0.19170062088E+01 -0.52240490486E+01  0.62969083202E+01  0.51100000000E-03 0.  1.
         12    1    3    3    0    0 -0.76193124097E+01  0.76380915564E+01 -0.24283634614E+01  0.11058540289E+02  0.00000000000E+00 0. -1.
</event>
<event>
 7    1  0.2834226E-010  0.4778726E+02  0.7816164E-02  0.1312668E+00
        -11   -1    0    0    0    0  0.00000000000E+00  0.00000000000E+00  0.45593999997E+02  0.45594000000E+02  0.51100000000E-03 0.  1.
         11   -1    0    0    0    0 -0.00000000000E+00 -0.00000000000E+00 -0.45593999997E+02  0.45594000000E+02  0.51100000000E-03 0. -1.
    9900012    2    1    2    0    0  0.19867811349E+02 -0.38039541367E+02 -0.64720847179E+01  0.47787256737E+02  0.19999934766E+02 0.  0.
        -12    1    1    2    0    0 -0.19867811349E+02  0.38039541367E+02  0.64720847179E+01  0.43400743263E+02  0.00000000000E+00 0.  1.
         11    1    3    3    0    0  0.14603759871E+02 -0.12427617780E+02 -0.36962358491E+01  0.19528892590E+02  0.51100000000E-03 0. -1.
        -11    1    3    3    0    0 -0.10249910027E+01 -0.18409583148E+02 -0.57705681467E+00  0.18447123165E+02  0.51100000000E-03 0.  1.
        -12    1    3    3    0    0  0.62890424804E+01 -0.72023404389E+01 -0.21987920541E+01  0.98112409824E+01  0.00000000000E+00 0.  1.
</event>
<event>
 7    1  0.2834226E-010  0.4778725E+02  0.7816164E-02  0.1312668E+00
        -11   -1    0    0    0    0  0.00000000000E+00  0.00000000000E+00  0.45593999997E+02  0.45594000000E+02  0.51100000000E-03 0. -1.
         11   -1    0    0    0    0 -0.00000000000E+00 -0.00000000000E+00 -0.45593999997E+02  0.45594000000E+02  0.51100000000E-03 0.  1.
    9900012    2    1    2    0    0  0.17637476982E+02  0.24118346880E+02  0.31477772644E+02  0.47787246307E+02  0.19999887211E+02 0.  0.
        -12    1    1    2    0    0 -0.17637476982E+02 -0.24118346880E+02 -0.31477772644E+02  0.43400753693E+02  0.00000000000E+00 0.  1.
         11    1    3    3    0    0  0.11483995917E+01  0.34571276616E+01  0.52630793704E+01  0.64008247915E+01  0.51100000000E-03 0. -1.
        -11    1    3    3    0    0  0.13396110986E+02  0.18401202398E+02  0.28842044977E+02  0.36741306427E+02  0.51100000000E-03 0.  1.
        -12    1    3    3    0    0  0.30929664042E+01  0.22600168208E+01 -0.26273517040E+01  0.46451150884E+01  0.00000000000E+00 0.  1.
</event>
<event>
 7    1  0.2834226E-010  0.4778727E+02  0.7816164E-02  0.1312668E+00
        -11   -1    0    0    0    0  0.00000000000E+00  0.00000000000E+00  0.45593999997E+02  0.45594000000E+02  0.51100000000E-03 0.  1.
         11   -1    0    0    0    0 -0.00000000000E+00 -0.00000000000E+00 -0.45593999997E+02  0.45594000000E+02  0.51100000000E-03 0. -1.
    9900012    2    1    2    0    0 -0.30590408417E+02 -0.10167407236E+00 -0.30787003369E+02  0.47787274186E+02  0.20000014323E+02 0.  0.
        -12    1    1    2    0    0  0.30590408417E+02  0.10167407236E+00  0.30787003369E+02  0.43400725814E+02  0.00000000000E+00 0.  1.
         11    1    3    3    0    0 -0.22172791547E+02  0.54224961147E+01 -0.15103637554E+02  0.27370714582E+02  0.51100000000E-03 0. -1.
        -11    1    3    3    0    0 -0.65909913438E+01 -0.38589399686E+01 -0.42936730849E+01  0.87617471658E+01  0.51100000000E-03 0.  1.
         12    1    3    3    0    0 -0.18266255267E+01 -0.16652302185E+01 -0.11389692730E+02  0.11654812438E+02  0.00000000000E+00 0. -1.
</event>
<event>
 7    1  0.2834226E-010  0.4778727E+02  0.7816164E-02  0.1312668E+00
        -11   -1    0    0    0    0  0.00000000000E+00  0.00000000000E+00  0.45593999997E+02  0.45594000000E+02  0.51100000000E-03 0. -1.
         11   -1    0    0    0    0 -0.00000000000E+00 -0.00000000000E+00 -0.45593999997E+02  0.45594000000E+02  0.51100000000E-03 0.  1.
    9900012    2    1    2    0    0 -0.19539478836E+02  0.33614857266E+02  0.19284031197E+02  0.47787265889E+02  0.19999976492E+02 0.  0.
        -12    1    1    2    0    0  0.19539478836E+02 -0.33614857266E+02 -0.19284031197E+02  0.43400734111E+02  0.00000000000E+00 0.  1.
         11    1    3    3    0    0 -0.22153911486E+01 -0.56080791128E-02 -0.15477597513E+01  0.27025080760E+01  0.51100000000E-03 0. -1.
        -11    1    3    3    0    0  0.10698838862E+01  0.68576471578E+01  0.94418034150E+00  0.70045308800E+01  0.51100000000E-03 0.  1.
         12    1    3    3    0    0 -0.18393971573E+02  0.26762818188E+02  0.19887610606E+02  0.38080226933E+02  0.00000000000E+00 0. -1.
</event>
<event>
 7    1  0.2834226E-010  0.4778727E+02  0.7816164E-02  0.1312668E+00
        -11   -1    0    0    0    0  0.00000000000E+00  0.00000000000E+00  0.45593999997E+02  0.45594000000E+02  0.51100000000E-03 0.  1.
         11   -1    0    0    0    0 -0.00000000000E+00 -0.00000000000E+00 -0.45593999997E+02  0.45594000000E+02  0.51100000000E-03 0. -1.
    9900012    2    1    2    0    0  0.33264878170E+02  0.18350983058E+02  0.20983627603E+02  0.47787270441E+02  0.19999997248E+02 0.  0.
        -12    1    1    2    0    0 -0.33264878170E+02 -0.18350983058E+02 -0.20983627603E+02  0.43400729559E+02  0.00000000000E+00 0.  1.
         11    1    3    3    0    0  0.98684280027E+01  0.28827890253E+01  0.13938182549E+02  0.17319621151E+02  0.51100000000E-03 0. -1.
        -11    1    3    3    0    0  0.48542626661E+01  0.12475584239E+01 -0.20193718827E+01  0.54035295052E+01  0.51100000000E-03 0.  1.
         12    1    3    3    0    0  0.18542187501E+02  0.14220635609E+02  0.90648169377E+01  0.25064119784E+02  0.00000000000E+00 0. -1.
</event>
<event>
 7    1  0.2834226E-010  0.4778731E+02  0.7816164E-02  0.1312668E+00
        -11   -1    0    0    0    0  0.00000000000E+00  0.00000000000E+00  0.45593999997E+02  0.45594000000E+02  0.51100000000E-03 0. -1.
         11   -1    0    0    0    0 -0.00000000000E+00 -0.00000000000E+00 -0.45593999997E+02  0.45594000000E+02  0.51100000000E-03 0.  1.
    9900012    2    1    2    0    0  0.23747401564E+01 -0.32912810013E+02 -0.28190910745E+02  0.47787309886E+02  0.20000177093E+02 0.  0.
        -12    1    1    2    0    0 -0.23747401564E+01  0.32912810013E+02  0.28190910745E+02  0.43400690114E+02  0.00000000000E+00 0.  1.
         11    1    3    3    0    0  0.49475681331E+01 -0.12599307761E+01 -0.46138364967E+00  0.51262784869E+01  0.51100000000E-03 0. -1.
        -11    1    3    3    0    0  0.66315006134E+00 -0.76303526709E-01 -0.73218323871E+00  0.99079906551E+00  0.51100000000E-03 0.  1.
         12    1    3    3    0    0 -0.32359780380E+01 -0.31576575710E+02 -0.26997343856E+02  0.41670232334E+02  0.00000000000E+00 0. -1.
</event>
<event>
 7    1  0.2834226E-010  0.4778727E+02  0.7816164E-02  0.1312668E+00
        -11   -1    0    0    0    0  0.00000000000E+00  0.00000000000E+00  0.45593999997E+02  0.45594000000E+02  0.51100000000E-03 0. -1.
         11   -1    0    0    0    0 -0.00000000000E+00 -0.00000000000E+00 -0.45593999997E+02  0.45594000000E+02  0.51100000000E-03 0.  1.
    9900012    2    1    2    0    0 -0.71036718817E+01 -0.24353738980E+02  0.35214443577E+02  0.47787265065E+02  0.19999972736E+02 0.  0.
        -12    1    1    2    0    0  0.71036718817E+01  0.24353738980E+02 -0.35214443577E+02  0.43400734935E+02  0.00000000000E+00 0.  1.
         11    1    3    3    0    0 -0.37654612151E+01 -0.12024238801E+02  0.13520019345E+02  0.18481123890E+02  0.51100000000E-03 0. -1.
        -11    1    3    3    0    0 -0.34647597890E+01 -0.86237744856E+01  0.23434604465E+02  0.25210210897E+02  0.51100000000E-03 0.  1.
        -12    1    3    3    0    0  0.12654912232E+00 -0.37057256937E+01 -0.17401802329E+01  0.40959302778E+01  0.00000000000E+00 0.  1.
</event>
<event>
 7    1  0.2834226E-010  0.4778727E+02  0.7816164E-02  0.1312668E+00
        -11   -1    0    0    0    0  0.00000000000E+00  0.00000000000E+00  0.45593999997E+02  0.45594000000E+02  0.51100000000E-03 0.  1.
         11   -1    0    0    0    0 -0.00000000000E+00 -0.00000000000E+00 -0.45593999997E+02  0.45594000000E+02  0.51100000000E-03 0. -1.
    9900012    2    1    2    0    0 -0.29496001470E+02  0.29870963318E+02 -0.11015203528E+02  0.47787271193E+02  0.20000000676E+02 0.  0.
        -12    1    1    2    0    0  0.29496001470E+02 -0.29870963318E+02  0.11015203528E+02  0.43400728807E+02  0.00000000000E+00 0.  1.
         11    1    3    3    0    0 -0.91362809960E+01 -0.21185931192E+00 -0.12346568036E+01  0.92217618972E+01  0.51100000000E-03 0. -1.
        -11    1    3    3    0    0 -0.16884904699E+02  0.20410126798E+02 -0.99226769996E+01  0.28286618774E+02  0.51100000000E-03 0.  1.
        -12    1    3    3    0    0 -0.34748157749E+01  0.96726958324E+01  0.14213027507E+00  0.10278890521E+02  0.00000000000E+00 0.  1.
</event>
<event>
 7    1  0.2834226E-010  0.4778728E+02  0.7816164E-02  0.1312668E+00
        -11   -1    0    0    0    0  0.00000000000E+00  0.00000000000E+00  0.45593999997E+02  0.45594000000E+02  0.51100000000E-03 0.  1.
         11   -1    0    0    0    0 -0.00000000000E+00 -0.00000000000E+00 -0.45593999997E+02  0.45594000000E+02  0.51100000000E-03 0. -1.
    9900012    2    1    2    0    0  0.28341463269E+02  0.21453571936E+01 -0.32799109594E+02  0.47787277796E+02  0.20000030781E+02 0.  0.
        -12    1    1    2    0    0 -0.28341463269E+02 -0.21453571936E+01  0.32799109594E+02  0.43400722204E+02  0.00000000000E+00 0.  1.
         11    1    3    3    0    0 -0.27508809393E+01 -0.30706525164E+00 -0.39962409062E+01  0.48612320097E+01  0.51100000000E-03 0. -1.
        -11    1    3    3    0    0  0.14184033359E+02 -0.17575248629E+01 -0.11205006698E+02  0.18161163821E+02  0.51100000000E-03 0.  1.
         12    1    3    3    0    0  0.16908310849E+02  0.42099473081E+01 -0.17597861990E+02  0.24764881964E+02  0.00000000000E+00 0. -1.
</event>
<event>
 7    1  0.2834226E-010  0.4778727E+02  0.7816164E-02  0.1312668E+00
        -11   -1    0    0    0    0  0.00000000000E+00  0.00000000000E+00  0.45593999997E+02  0.45594000000E+02  0.51100000000E-03 0. -1.
         11   -1    0    0    0    0 -0.00000000000E+00 -0.00000000000E+00 -0.45593999997E+02  0.45594000000E+02  0.51100000000E-03 0.  1.
    9900012    2    1    2    0    0  0.12394542888E+02  0.18166768392E+02  0.37416135283E+02  0.47787270205E+02  0.19999996173E+02 0.  0.
        -12    1    1    2    0    0 -0.12394542888E+02 -0.18166768392E+02 -0.37416135283E+02  0.43400729795E+02  0.00000000000E+00 0.  1.
         11    1    3    3    0    0  0.24357817620E+00  0.27419624407E+00  0.14998271477E+01  0.15440193140E+01  0.51100000000E-03 0. -1.
        -11    1    3    3    0    0 -0.41360870930E+01 -0.73160539189E+00  0.35219749742E+01  0.54814934890E+01  0.51100000000E-03 0.  1.
        -12    1    3    3    0    0  0.16287051804E+02  0.18624177540E+02  0.32394333162E+02  0.40761757402E+02  0.00000000000E+00 0.  1.
</event>
<event>
 7    1  0.2834226E-010  0.4778727E+02  0.7816164E-02  0.1312668E+00
        -11   -1    0    0    0    0  0.00000000000E+00  0.00000000000E+00  0.45593999997E+02  0.45594000000E+02  0.51100000000E-03 0.  1.
         11   -1    0    0    0    0 -0.00000000000E+00 -0.00000000000E+00 -0.45593999997E+02  0.45594000000E+02  0.51100000000E-03 0. -1.
    9900012    2    1    2    0    0  0.10418777699E+02 -0.21865498383E+02 -0.36013503824E+02  0.47787269522E+02  0.19999993061E+02 0.  0.
        -12    1    1    2    0    0 -0.10418777699E+02  0.21865498383E+02  0.36013503824E+02  0.43400730478E+02  0.00000000000E+00 0.  1.
         11    1    3    3    0    0  0.49191869626E+01 -0.14260439562E+02 -0.24234054883E+02  0.28545541739E+02  0.51100000000E-03 0. -1.
        -11    1    3    3    0    0 -0.18700693190E+01  0.16763729534E+01  0.29009569877E-01  0.25116184729E+01  0.51100000000E-03 0.  1.
        -12    1    3    3    0    0  0.73696600555E+01 -0.92814317746E+01 -0.11808458512E+02  0.16730109311E+02  0.00000000000E+00 0.  1.
</event>
<event>
 7    1  0.2834226E-010  0.4778727E+02  0.7816164E-02  0.1312668E+00
        -11   -1    0    0    0    0  0.00000000000E+00  0.00000000000E+00  0.45593999997E+02  0.45594000000E+02  0.51100000000E-03 0.  1.
         11   -1    0    0    0    0 -0.00000000000E+00 -0.00000000000E+00 -0.45593999997E+02  0.45594000000E+02  0.51100000000E-03 0. -1.
    9900012    2    1    2    0    0 -0.20254175614E+02 -0.20498034639E+02 -0.32453386900E+02  0.47787269878E+02  0.19999994681E+02 0.  0.
        -12    1    1    2    0    0  0.20254175614E+02  0.20498034639E+02  0.32453386900E+02  0.43400730122E+02  0.00000000000E+00 0.  1.
         11    1    3    3    0    0 -0.58550143140E+01 -0.12764874759E+02 -0.15370038221E+02  0.20819733317E+02  0.51100000000E-03 0. -1.
        -11    1    3    3    0    0 -0.23331765894E+01 -0.77073238508E+01 -0.34473919864E+01  0.87596270302E+01  0.51100000000E-03 0.  1.
        -12    1    3    3    0    0 -0.12065984711E+02 -0.25836029287E-01 -0.13635956693E+02  0.18207909530E+02  0.00000000000E+00 0.  1.
</event>
<event>
 7    1  0.2834226E-010  0.4778727E+02  0.7816164E-02  0.1312668E+00
        -11   -1    0    0    0    0  0.00000000000E+00  0.00000000000E+00  0.45593999997E+02  0.45594000000E+02  0.51100000000E-03 0.  1.
         11   -1    0    0    0    0 -0.00000000000E+00 -0.00000000000E+00 -0.45593999997E+02  0.45594000000E+02  0.51100000000E-03 0. -1.
    9900012    2    1    2    0    0  0.14916683824E+02 -0.36648803503E+01 -0.40591679207E+02  0.47787271606E+02  0.20000002561E+02 0.  0.
        -12    1    1    2    0    0 -0.14916683824E+02  0.36648803503E+01  0.40591679207E+02  0.43400728394E+02  0.00000000000E+00 0.  1.
         11    1    3    3    0    0  0.10997748732E+01 -0.33261027257E+00 -0.89133351618E+01  0.89870839727E+01  0.51100000000E-03 0. -1.
        -11    1    3    3    0    0  0.56872205806E+01 -0.88966699127E+01 -0.82995650216E+01  0.13430487455E+02  0.51100000000E-03 0.  1.
        -12    1    3    3    0    0  0.81296883698E+01  0.55643998349E+01 -0.23378779024E+02  0.25369700178E+02  0.00000000000E+00 0.  1.
</event>
<event>
 7    1  0.2834226E-010  0.4778727E+02  0.7816164E-02  0.1312668E+00
        -11   -1    0    0    0    0  0.00000000000E+00  0.00000000000E+00  0.45593999997E+02  0.45594000000E+02  0.51100000000E-03 0. -1.
         11   -1    0    0    0    0 -0.00000000000E+00 -0.00000000000E+00 -0.45593999997E+02  0.45594000000E+02  0.51100000000E-03 0.  1.
    9900012    2    1    2    0    0 -0.35737882659E+02 -0.23201919052E+02  0.82521566514E+01  0.47787269660E+02  0.19999993687E+02 0.  0.
        -12    1    1    2    0    0  0.35737882659E+02  0.23201919052E+02 -0.82521566514E+01  0.43400730340E+02  0.00000000000E+00 0.  1.
         11    1    3    3    0    0 -0.19509238797E+02 -0.22521426030E+02  0.58361859266E+01  0.30362577218E+02  0.51100000000E-03 0. -1.
        -11    1    3    3    0    0  0.33364915823E+00  0.26792055349E+00 -0.41425319845E+00  0.59557464463E+00  0.51100000000E-03 0.  1.
         12    1    3    3    0    0 -0.16562293020E+02 -0.94841357580E+00  0.28302239233E+01  0.16829117798E+02  0.00000000000E+00 0. -1.
</event>
<event>
 7    1  0.2834226E-010  0.4778727E+02  0.7816164E-02  0.1312668E+00
        -11   -1    0    0    0    0  0.00000000000E+00  0.00000000000E+00  0.45593999997E+02  0.45594000000E+02  0.51100000000E-03 0.  1.
         11   -1    0    0    0    0 -0.00000000000E+00 -0.00000000000E+00 -0.45593999997E+02  0.45594000000E+02  0.51100000000E-03 0. -1.
    9900012    2    1    2    0    0  0.32132480199E+01 -0.43168963927E+02 -0.31207498482E+01  0.47787268566E+02  0.19999988701E+02 0.  0.
        -12    1    1    2    0    0 -0.32132480199E+01  0.43168963927E+02  0.31207498482E+01  0.43400731434E+02  0.00000000000E+00 0.  1.
         11    1    3    3    0    0 -0.55511472601E+01 -0.14301107381E+02 -0.62377963808E+00  0.15353371276E+02  0.51100000000E-03 0.  1.
        -11    1    3    3    0    0  0.68712328544E+01 -0.27195894409E+02 -0.54215334337E+01  0.28569626155E+02  0.51100000000E-03 0. -1.
        -12    1    3    3    0    0  0.18931624256E+01 -0.16719621370E+01  0.29245632235E+01  0.38642711351E+01  0.00000000000E+00 0.  1.
</event>
<event>
 7    1  0.2834226E-010  0.4778727E+02  0.7816164E-02  0.1312668E+00
        -11   -1    0    0    0    0  0.00000000000E+00  0.00000000000E+00  0.45593999997E+02  0.45594000000E+02  0.51100000000E-03 0.  1.
         11   -1    0    0    0    0 -0.00000000000E+00 -0.00000000000E+00 -0.45593999997E+02  0.45594000000E+02  0.51100000000E-03 0. -1.
    9900012    2    1    2    0    0 -0.24338656720E+02  0.24206781254E+02 -0.26557200005E+02  0.47787270263E+02  0.19999996437E+02 0.  0.
        -12    1    1    2    0    0  0.24338656720E+02 -0.24206781254E+02  0.26557200005E+02  0.43400729737E+02  0.00000000000E+00 0.  1.
         11    1    3    3    0    0 -0.14640034447E+02  0.22881633586E+02 -0.16283188504E+02  0.31670838200E+02  0.51100000000E-03 0. -1.
        -11    1    3    3    0    0 -0.66177599445E+01 -0.18868889817E+00 -0.10775989777E+02  0.12647225234E+02  0.51100000000E-03 0.  1.
         12    1    3    3    0    0 -0.30808623280E+01  0.15138365666E+01  0.50197827594E+00  0.34692068292E+01  0.00000000000E+00 0. -1.
</event>
<event>
 7    1  0.2834226E-010  0.4778727E+02  0.7816164E-02  0.1312668E+00
        -11   -1    0    0    0    0  0.00000000000E+00  0.00000000000E+00  0.45593999997E+02  0.45594000000E+02  0.51100000000E-03 0. -1.
         11   -1    0    0    0    0 -0.00000000000E+00 -0.00000000000E+00 -0.45593999997E+02  0.45594000000E+02  0.51100000000E-03 0.  1.
    9900012    2    1    2    0    0 -0.14963765138E+02 -0.40354320925E+02  0.55890725984E+01  0.47787271701E+02  0.20000002992E+02 0.  0.
        -12    1    1    2    0    0  0.14963765138E+02  0.40354320925E+02 -0.55890725984E+01  0.43400728299E+02  0.00000000000E+00 0.  1.
         11    1    3    3    0    0 -0.18704388493E+02 -0.25886950742E+02  0.36780618428E+01  0.32148351541E+02  0.51100000000E-03 0. -1.
        -11    1    3    3    0    0  0.38816446311E+01 -0.70119129367E+01  0.16184202838E+01  0.81763911691E+01  0.51100000000E-03 0.  1.
         12    1    3    3    0    0 -0.14102127571E+00 -0.74554572467E+01  0.29259047179E+00  0.74625289910E+01  0.00000000000E+00 0. -1.
</event>
<event>
 7    1  0.2834226E-010  0.4778727E+02  0.7816164E-02  0.1312668E+00
        -11   -1    0    0    0    0  0.00000000000E+00  0.00000000000E+00  0.45593999997E+02  0.45594000000E+02  0.51100000000E-03 0.  1.
         11   -1    0    0    0    0 -0.00000000000E+00 -0.00000000000E+00 -0.45593999997E+02  0.45594000000E+02  0.51100000000E-03 0. -1.
    9900012    2    1    2    0    0  0.31330275908E+02  0.36654777592E+01 -0.29809417089E+02  0.47787271171E+02  0.20000000579E+02 0.  0.
        -12    1    1    2    0    0 -0.31330275908E+02 -0.36654777592E+01  0.29809417089E+02  0.43400728829E+02  0.00000000000E+00 0.  1.
         11    1    3    3    0    0  0.21259392389E+02  0.34015346891E+01 -0.16409493799E+02  0.27070347060E+02  0.51100000000E-03 0. -1.
        -11    1    3    3    0    0 -0.37842808807E+00 -0.35981567623E+01 -0.46778396067E+00  0.36481175966E+01  0.51100000000E-03 0.  1.
        -12    1    3    3    0    0  0.10449311607E+02  0.38620998324E+01 -0.12932139330E+02  0.17068806514E+02  0.00000000000E+00 0.  1.
</event>
<event>
 7    1  0.2834226E-010  0.4778727E+02  0.7816164E-02  0.1312668E+00
        -11   -1    0    0    0    0  0.00000000000E+00  0.00000000000E+00  0.45593999997E+02  0.45594000000E+02  0.51100000000E-03 0.  1.
         11   -1    0    0    0    0 -0.00000000000E+00 -0.00000000000E+00 -0.45593999997E+02  0.45594000000E+02  0.51100000000E-03 0. -1.
    9900012    2    1    2    0    0 -0.23179967279E+02 -0.36422371758E+02 -0.44411270104E+01  0.47787266634E+02  0.19999979893E+02 0.  0.
        -12    1    1    2    0    0  0.23179967279E+02  0.36422371758E+02  0.44411270104E+01  0.43400733366E+02  0.00000000000E+00 0.  1.
         11    1    3    3    0    0 -0.12131030639E+02 -0.14246543755E+02 -0.92106156325E+01  0.20855727125E+02  0.51100000000E-03 0. -1.
        -11    1    3    3    0    0 -0.49490019341E+01 -0.14660029162E+02  0.70243851124E+01  0.16992676706E+02  0.51100000000E-03 0.  1.
        -12    1    3    3    0    0 -0.60999347059E+01 -0.75157988412E+01 -0.22548964903E+01  0.99388628031E+01  0.00000000000E+00 0.  1.
</event>
<event>
 7    1  0.2834226E-010  0.4778727E+02  0.7816164E-02  0.1312668E+00
        -11   -1    0    0    0    0  0.00000000000E+00  0.00000000000E+00  0.45593999997E+02  0.45594000000E+02  0.51100000000E-03 0. -1.
         11   -1    0    0    0    0 -0.00000000000E+00 -0.00000000000E+00 -0.45593999997E+02  0.45594000000E+02  0.51100000000E-03 0.  1.
    9900012    2    1    2    0    0 -0.30289587993E+02 -0.30152925475E+02 -0.75475277651E+01  0.47787271540E+02  0.20000002260E+02 0.  0.
        -12    1    1    2    0    0  0.30289587993E+02  0.30152925475E+02  0.75475277651E+01  0.43400728460E+02  0.00000000000E+00 0.  1.
         11    1    3    3    0    0 -0.28613272438E+02 -0.30225777401E+02 -0.11274315493E+02  0.43121075696E+02  0.51100000000E-03 0. -1.
        -11    1    3    3    0    0 -0.88740208568E+00 -0.58572640930E+00  0.34380753663E+01  0.35987387199E+01  0.51100000000E-03 0.  1.
         12    1    3    3    0    0 -0.78891346936E+00  0.65857833458E+00  0.28871236171E+00  0.10674571245E+01  0.00000000000E+00 0. -1.
</event>
<event>
 7    1  0.2834226E-010  0.4778728E+02  0.7816164E-02  0.1312668E+00
        -11   -1    0    0    0    0  0.00000000000E+00  0.00000000000E+00  0.45593999997E+02  0.45594000000E+02  0.51100000000E-03 0.  1.
         11   -1    0    0    0    0 -0.00000000000E+00 -0.00000000000E+00 -0.45593999997E+02  0.45594000000E+02  0.51100000000E-03 0. -1.
    9900012    2    1    2    0    0 -0.21292851446E+02 -0.25239126444E+02 -0.28164226188E+02  0.47787278081E+02  0.20000032082E+02 0.  0.
        -12    1    1    2    0    0  0.21292851446E+02  0.25239126444E+02  0.28164226188E+02  0.43400721919E+02  0.00000000000E+00 0.  1.
         11    1    3    3    0    0 -0.37654517974E+01 -0.17670668804E+02 -0.82812718531E+01  0.19874874263E+02  0.51100000000E-03 0. -1.
        -11    1    3    3    0    0 -0.13041225806E+02 -0.74360838377E+01 -0.16382594649E+02  0.22220673281E+02  0.51100000000E-03 0.  1.
        -12    1    3    3    0    0 -0.44861738425E+01 -0.13237380174E+00 -0.35003596856E+01  0.56917305362E+01  0.00000000000E+00 0.  1.
</event>
<event>
 7    1  0.2834226E-010  0.4778727E+02  0.7816164E-02  0.1312668E+00
        -11   -1    0    0    0    0  0.00000000000E+00  0.00000000000E+00  0.45593999997E+02  0.45594000000E+02  0.51100000000E-03 0. -1.
         11   -1    0    0    0    0 -0.00000000000E+00 -0.00000000000E+00 -0.45593999997E+02  0.45594000000E+02  0.51100000000E-03 0.  1.
    9900012    2    1    2    0    0 -0.32687621675E+02 -0.17034478787E+02  0.22912202765E+02  0.47787272888E+02  0.20000008404E+02 0.  0.
        -12    1    1    2    0    0  0.32687621675E+02  0.17034478787E+02 -0.22912202765E+02  0.43400727112E+02  0.00000000000E+00 0.  1.
         11    1    3    3    0    0 -0.66594232969E+01 -0.85385940581E+01  0.13664184746E+02  0.17434605019E+02  0.51100000000E-03 0. -1.
        -11    1    3    3    0    0 -0.75989062484E+01 -0.70357262671E+01  0.43139639044E+01  0.11218516172E+02  0.51100000000E-03 0.  1.
         12    1    3    3    0    0 -0.18429292130E+02 -0.14601584616E+01  0.49340541152E+01  0.19134151697E+02  0.00000000000E+00 0. -1.
</event>
<event>
 7    1  0.2834226E-010  0.4778727E+02  0.7816164E-02  0.1312668E+00
        -11   -1    0    0    0    0  0.00000000000E+00  0.00000000000E+00  0.45593999997E+02  0.45594000000E+02  0.51100000000E-03 0.  1.
         11   -1    0    0    0    0 -0.00000000000E+00 -0.00000000000E+00 -0.45593999997E+02  0.45594000000E+02  0.51100000000E-03 0. -1.
    9900012    2    1    2    0    0  0.29921838916E+02 -0.61669516174E+01 -0.30826544953E+02  0.47787267171E+02  0.19999982338E+02 0.  0.
        -12    1    1    2    0    0 -0.29921838916E+02  0.61669516174E+01  0.30826544953E+02  0.43400732829E+02  0.00000000000E+00 0.  1.
         11    1    3    3    0    0  0.18102430001E+02 -0.50547815730E+01 -0.61675621654E+01  0.19780991179E+02  0.51100000000E-03 0. -1.
        -11    1    3    3    0    0  0.34692797966E+01  0.23467810914E+01 -0.89802032234E+01  0.99089522147E+01  0.51100000000E-03 0.  1.
         12    1    3    3    0    0  0.83501291181E+01 -0.34589511359E+01 -0.15678779565E+02  0.18097323777E+02  0.00000000000E+00 0. -1.
</event>
<event>
 7    1  0.2834226E-010  0.4778728E+02  0.7816164E-02  0.1312668E+00
        -11   -1    0    0    0    0  0.00000000000E+00  0.00000000000E+00  0.45593999997E+02  0.45594000000E+02  0.51100000000E-03 0.  1.
         11   -1    0    0    0    0 -0.00000000000E+00 -0.00000000000E+00 -0.45593999997E+02  0.45594000000E+02  0.51100000000E-03 0. -1.
    9900012    2    1    2    0    0  0.25344846895E+02  0.35182834238E+02  0.18519598092E+01  0.47787275993E+02  0.20000022565E+02 0.  0.
        -12    1    1    2    0    0 -0.25344846895E+02 -0.35182834238E+02 -0.18519598092E+01  0.43400724007E+02  0.00000000000E+00 0.  1.
         11    1    3    3    0    0  0.27767771693E+02  0.29307154620E+02  0.47387654757E+01  0.40649899818E+02  0.51100000000E-03 0. -1.
        -11    1    3    3    0    0 -0.63004485329E+00  0.20077995627E+01 -0.17187761781E+01  0.27170585957E+01  0.51100000000E-03 0.  1.
         12    1    3    3    0    0 -0.17928799449E+01  0.38678800557E+01 -0.11680294884E+01  0.44203175800E+01  0.00000000000E+00 0. -1.
</event>
<event>
 7    1  0.2834226E-010  0.4778727E+02  0.7816164E-02  0.1312668E+00
        -11   -1    0    0    0    0  0.00000000000E+00  0.00000000000E+00  0.45593999997E+02  0.45594000000E+02  0.51100000000E-03 0.  1.
         11   -1    0    0    0    0 -0.00000000000E+00 -0.00000000000E+00 -0.45593999997E+02  0.45594000000E+02  0.51100000000E-03 0. -1.
    9900012    2    1    2    0    0 -0.14030626982E+02 -0.23839651777E+02 -0.33443022288E+02  0.47787271548E+02  0.20000002297E+02 0.  0.
        -12    1    1    2    0    0  0.14030626982E+02  0.23839651777E+02  0.33443022288E+02  0.43400728452E+02  0.00000000000E+00 0.  1.
         11    1    3    3    0    0 -0.76125992593E+01 -0.71092479548E+01 -0.20569083224E+02  0.23056024352E+02  0.51100000000E-03 0. -1.
        -11    1    3    3    0    0 -0.77453298218E+00 -0.53179433027E+01  0.14507595153E+01  0.55664284549E+01  0.51100000000E-03 0.  1.
        -12    1    3    3    0    0 -0.56434947403E+01 -0.11412460520E+02 -0.14324698580E+02  0.19164818742E+02  0.00000000000E+00 0.  1.
</event>
<event>
 7    1  0.2834226E-010  0.4778727E+02  0.7816164E-02  0.1312668E+00
        -11   -1    0    0    0    0  0.00000000000E+00  0.00000000000E+00  0.45593999997E+02  0.45594000000E+02  0.51100000000E-03 0.  1.
         11   -1    0    0    0    0 -0.00000000000E+00 -0.00000000000E+00 -0.45593999997E+02  0.45594000000E+02  0.51100000000E-03 0. -1.
    9900012    2    1    2    0    0 -0.17890749867E+02  0.37365357541E+02 -0.12937324656E+02  0.47787271386E+02  0.20000001558E+02 0.  0.
        -12    1    1    2    0    0  0.17890749867E+02 -0.37365357541E+02  0.12937324656E+02  0.43400728614E+02  0.00000000000E+00 0.  1.
         11    1    3    3    0    0 -0.19713594580E+02  0.25937958076E+02 -0.39193436715E+01  0.32814093550E+02  0.51100000000E-03 0. -1.
        -11    1    3    3    0    0  0.58129404499E+00  0.73962000943E+01 -0.73317950273E+01  0.10430575113E+02  0.51100000000E-03 0.  1.
         12    1    3    3    0    0  0.12415506674E+01  0.40311993700E+01 -0.16861859568E+01  0.45426027233E+01  0.00000000000E+00 0. -1.
</event>
<event>
 7    1  0.2834226E-010  0.4778727E+02  0.7816164E-02  0.1312668E+00
        -11   -1    0    0    0    0  0.00000000000E+00  0.00000000000E+00  0.45593999997E+02  0.45594000000E+02  0.51100000000E-03 0. -1.
         11   -1    0    0    0    0 -0.00000000000E+00 -0.00000000000E+00 -0.45593999997E+02  0.45594000000E+02  0.51100000000E-03 0.  1.
    9900012    2    1    2    0    0  0.24582698056E+02 -0.31895522954E+02  0.16186104749E+02  0.47787269416E+02  0.19999992577E+02 0.  0.
        -12    1    1    2    0    0 -0.24582698056E+02  0.31895522954E+02 -0.16186104749E+02  0.43400730584E+02  0.00000000000E+00 0.  1.
         11    1    3    3    0    0  0.15748550357E+02 -0.14336728652E+02  0.23495247020E+01  0.21426126420E+02  0.51100000000E-03 0. -1.
        -11    1    3    3    0    0  0.56651562811E+01 -0.16704688570E+02  0.14706583506E+02  0.22965718247E+02  0.51100000000E-03 0.  1.
        -12    1    3    3    0    0  0.31689914181E+01 -0.85410573211E+00 -0.87000345916E+00  0.33954247493E+01  0.00000000000E+00 0.  1.
</event>
<event>
 7    1  0.2834226E-010  0.4778727E+02  0.7816164E-02  0.1312668E+00
        -11   -1    0    0    0    0  0.00000000000E+00  0.00000000000E+00  0.45593999997E+02  0.45594000000E+02  0.51100000000E-03 0.  1.
         11   -1    0    0    0    0 -0.00000000000E+00 -0.00000000000E+00 -0.45593999997E+02  0.45594000000E+02  0.51100000000E-03 0. -1.
    9900012    2    1    2    0    0 -0.28324754725E+02 -0.32608041971E+02 -0.42481693792E+01  0.47787273342E+02  0.20000010475E+02 0.  0.
        -12    1    1    2    0    0  0.28324754725E+02  0.32608041971E+02  0.42481693792E+01  0.43400726658E+02  0.00000000000E+00 0.  1.
         11    1    3    3    0    0 -0.33724754350E+01 -0.11730490265E+02  0.22753235621E+01  0.12415920827E+02  0.51100000000E-03 0. -1.
        -11    1    3    3    0    0 -0.21229501024E+02 -0.10395572168E+02 -0.42172929657E+01  0.24011355535E+02  0.51100000000E-03 0.  1.
        -12    1    3    3    0    0 -0.37227782658E+01 -0.10481979538E+02 -0.23061999755E+01  0.11359996979E+02  0.00000000000E+00 0.  1.
</event>
<event>
 7    1  0.2834226E-010  0.4778727E+02  0.7816164E-02  0.1312668E+00
        -11   -1    0    0    0    0  0.00000000000E+00  0.00000000000E+00  0.45593999997E+02  0.45594000000E+02  0.51100000000E-03 0.  1.
         11   -1    0    0    0    0 -0.00000000000E+00 -0.00000000000E+00 -0.45593999997E+02  0.45594000000E+02  0.51100000000E-03 0. -1.
    9900012    2    1    2    0    0 -0.15379204424E+02  0.37911330927E+02 -0.14485656807E+02  0.47787271959E+02  0.20000004171E+02 0.  0.
        -12    1    1    2    0    0  0.15379204424E+02 -0.37911330927E+02  0.14485656807E+02  0.43400728041E+02  0.00000000000E+00 0.  1.
         11    1    3    3    0    0  0.35714503089E+01  0.38792107876E+01 -0.17784341584E+01  0.55647427578E+01  0.51100000000E-03 0. -1.
        -11    1    3    3    0    0 -0.14974265876E+02  0.29659100823E+02 -0.68945830447E+01  0.33932671215E+02  0.51100000000E-03 0.  1.
         12    1    3    3    0    0 -0.39763888561E+01  0.43730193165E+01 -0.58126396036E+01  0.82898579867E+01  0.00000000000E+00 0. -1.
</event>
<event>
 7    1  0.2834226E-010  0.4778727E+02  0.7816164E-02  0.1312668E+00
        -11   -1    0    0    0    0  0.00000000000E+00  0.00000000000E+00  0.45593999997E+02  0.45594000000E+02  0.51100000000E-03 0. -1.
         11   -1    0    0    0    0 -0.00000000000E+00 -0.00000000000E+00 -0.45593999997E+02  0.45594000000E+02  0.51100000000E-03 0.  1.
    9900012    2    1    2    0    0  0.28196501782E+02 -0.32648409297E+02 -0.47604671185E+01  0.47787269712E+02  0.19999993924E+02 0.  0.
        -12    1    1    2    0    0 -0.28196501782E+02  0.32648409297E+02  0.47604671185E+01  0.43400730288E+02  0.00000000000E+00 0.  1.
         11    1    3    3    0    0  0.19340001688E+02 -0.26156467824E+02  0.12701060363E+01  0.32554717691E+02  0.51100000000E-03 0. -1.
        -11    1    3    3    0    0  0.10492612144E+02 -0.51135599701E+01 -0.59264065808E+01  0.13090672267E+02  0.51100000000E-03 0.  1.
         12    1    3    3    0    0 -0.16361120499E+01 -0.13783815028E+01 -0.10416657397E+00  0.21418797544E+01  0.00000000000E+00 0. -1.
</event>
<event>
 7    1  0.2834226E-010  0.4778727E+02  0.7816164E-02  0.1312668E+00
        -11   -1    0    0    0    0  0.00000000000E+00  0.00000000000E+00  0.45593999997E+02  0.45594000000E+02  0.51100000000E-03 0. -1.
         11   -1    0    0    0    0 -0.00000000000E+00 -0.00000000000E+00 -0.45593999997E+02  0.45594000000E+02  0.51100000000E-03 0.  1.
    9900012    2    1    2    0    0 -0.45332542422E+01  0.25621002951E+02  0.34736679846E+02  0.47787272898E+02  0.20000008452E+02 0.  0.
        -12    1    1    2    0    0  0.45332542422E+01 -0.25621002951E+02 -0.34736679846E+02  0.43400727102E+02  0.00000000000E+00 0.  1.
         11    1    3    3    0    0  0.37692928035E+01  0.21220613096E+02  0.19066226034E+02  0.28775735678E+02  0.51100000000E-03 0. -1.
        -11    1    3    3    0    0  0.17067817777E+00 -0.74864417995E+00  0.61168613028E+00  0.98171244856E+00  0.51100000000E-03 0.  1.
         12    1    3    3    0    0 -0.84732252235E+01  0.51490340349E+01  0.15058767682E+02  0.18029824772E+02  0.00000000000E+00 0. -1.
</event>
<event>
 7    1  0.2834226E-010  0.4778727E+02  0.7816164E-02  0.1312668E+00
        -11   -1    0    0    0    0  0.00000000000E+00  0.00000000000E+00  0.45593999997E+02  0.45594000000E+02  0.51100000000E-03 0.  1.
         11   -1    0    0    0    0 -0.00000000000E+00 -0.00000000000E+00 -0.45593999997E+02  0.45594000000E+02  0.51100000000E-03 0. -1.
    9900012    2    1    2    0    0 -0.83054848792E+01 -0.35895335242E+02 -0.22938329793E+02  0.47787272531E+02  0.20000006776E+02 0.  0.
        -12    1    1    2    0    0  0.83054848792E+01  0.35895335242E+02  0.22938329793E+02  0.43400727469E+02  0.00000000000E+00 0.  1.
         11    1    3    3    0    0 -0.70569601740E+01 -0.17168401072E+02 -0.36788530245E+01  0.18923230223E+02  0.51100000000E-03 0. -1.
        -11    1    3    3    0    0  0.39500730064E+01 -0.77883228917E+01 -0.11654263895E+02  0.14563066896E+02  0.51100000000E-03 0.  1.
        -12    1    3    3    0    0 -0.51985977116E+01 -0.10938611278E+02 -0.76052128732E+01  0.14300975411E+02  0.00000000000E+00 0.  1.
</event>
<event>
 7    1  0.2834226E-010  0.4778728E+02  0.7816164E-02  0.1312668E+00
        -11   -1    0    0    0    0  0.00000000000E+00  0.00000000000E+00  0.45593999997E+02  0.45594000000E+02  0.51100000000E-03 0.  1.
         11   -1    0    0    0    0 -0.00000000000E+00 -0.00000000000E+00 -0.45593999997E+02  0.45594000000E+02  0.51100000000E-03 0. -1.
    9900012    2    1    2    0    0  0.25976512359E+02  0.20858271832E+02 -0.27816829637E+02  0.47787277550E+02  0.20000029661E+02 0.  0.
        -12    1    1    2    0    0 -0.25976512359E+02 -0.20858271832E+02  0.27816829637E+02  0.43400722450E+02  0.00000000000E+00 0.  1.
         11    1    3    3    0    0  0.22479257498E+02  0.90943161243E+01 -0.16571727117E+02  0.29370831506E+02  0.51100000000E-03 0. -1.
        -11    1    3    3    0    0  0.11654380397E+01  0.12070855567E+02 -0.10185175740E+02  0.15836716991E+02  0.51100000000E-03 0.  1.
        -12    1    3    3    0    0  0.23318168208E+01 -0.30689985897E+00 -0.10599267806E+01  0.25797290535E+01  0.00000000000E+00 0.  1.
</event>
<event>
 7    1  0.2834226E-010  0.4778727E+02  0.7816164E-02  0.1312668E+00
        -11   -1    0    0    0    0  0.00000000000E+00  0.00000000000E+00  0.45593999997E+02  0.45594000000E+02  0.51100000000E-03 0.  1.
         11   -1    0    0    0    0 -0.00000000000E+00 -0.00000000000E+00 -0.45593999997E+02  0.45594000000E+02  0.51100000000E-03 0. -1.
    9900012    2    1    2    0    0  0.25000473621E+02 -0.13165688029E+02 -0.32943351101E+02  0.47787269541E+02  0.19999993146E+02 0.  0.
        -12    1    1    2    0    0 -0.25000473621E+02  0.13165688029E+02  0.32943351101E+02  0.43400730459E+02  0.00000000000E+00 0.  1.
         11    1    3    3    0    0  0.17452293368E+02 -0.12366556494E+02 -0.25566750089E+02  0.33334261259E+02  0.51100000000E-03 0. -1.
        -11    1    3    3    0    0  0.24342075624E+01  0.38333909456E+01 -0.58155669846E+01  0.73784193573E+01  0.51100000000E-03 0.  1.
        -12    1    3    3    0    0  0.51139726903E+01 -0.46325224815E+01 -0.15610340278E+01  0.70745889248E+01  0.00000000000E+00 0.  1.
</event>
<event>
 7    1  0.2834226E-010  0.4778730E+02  0.7816164E-02  0.1312668E+00
        -11   -1    0    0    0    0  0.00000000000E+00  0.00000000000E+00  0.45593999997E+02  0.45594000000E+02  0.51100000000E-03 0.  1.
         11   -1    0    0    0    0 -0.00000000000E+00 -0.00000000000E+00 -0.45593999997E+02  0.45594000000E+02  0.51100000000E-03 0. -1.
    9900012    2    1    2    0    0  0.19250441140E+02  0.17431624920E+02 -0.34773264575E+02  0.47787297694E+02  0.20000121506E+02 0.  0.
        -12    1    1    2    0    0 -0.19250441140E+02 -0.17431624920E+02  0.34773264575E+02  0.43400702306E+02  0.00000000000E+00 0.  1.
         11    1    3    3    0    0  0.15600468158E+02  0.14330693870E+02 -0.24169023260E+02  0.32138529512E+02  0.51100000000E-03 0. -1.
        -11    1    3    3    0    0  0.25969941262E+01  0.65803226653E+01 -0.40437375721E+01  0.81484255340E+01  0.51100000000E-03 0.  1.
         12    1    3    3    0    0  0.10529788559E+01 -0.34793916155E+01 -0.65605037426E+01  0.75003426483E+01  0.00000000000E+00 0. -1.
</event>
<event>
 7    1  0.2834226E-010  0.4778724E+02  0.7816164E-02  0.1312668E+00
        -11   -1    0    0    0    0  0.00000000000E+00  0.00000000000E+00  0.45593999997E+02  0.45594000000E+02  0.51100000000E-03 0. -1.
         11   -1    0    0    0    0 -0.00000000000E+00 -0.00000000000E+00 -0.45593999997E+02  0.45594000000E+02  0.51100000000E-03 0.  1.
    9900012    2    1    2    0    0 -0.16857312381E+02  0.25571214188E+02  0.30750126579E+02  0.47787236638E+02  0.19999843127E+02 0.  0.
        -12    1    1    2    0    0  0.16857312381E+02 -0.25571214188E+02 -0.30750126579E+02  0.43400763362E+02  0.00000000000E+00 0.  1.
         11    1    3    3    0    0 -0.64872300703E+01  0.27230915798E+01  0.37339779369E+01  0.79650469698E+01  0.51100000000E-03 0. -1.
        -11    1    3    3    0    0 -0.21719227906E+01  0.20653213823E+02  0.19407043936E+02  0.28423684568E+02  0.51100000000E-03 0.  1.
        -12    1    3    3    0    0 -0.81981595202E+01  0.21949087852E+01  0.76091047063E+01  0.11398505100E+02  0.00000000000E+00 0.  1.
</event>
<event>
 7    1  0.2834226E-010  0.4778727E+02  0.7816164E-02  0.1312668E+00
        -11   -1    0    0    0    0  0.00000000000E+00  0.00000000000E+00  0.45593999997E+02  0.45594000000E+02  0.51100000000E-03 0.  1.
         11   -1    0    0    0    0 -0.00000000000E+00 -0.00000000000E+00 -0.45593999997E+02  0.45594000000E+02  0.51100000000E-03 0. -1.
    9900012    2    1    2    0    0  0.35394085414E+02  0.24287032067E+02 -0.64048504961E+01  0.47787270527E+02  0.19999997642E+02 0.  0.
        -12    1    1    2    0    0 -0.35394085414E+02 -0.24287032067E+02  0.64048504961E+01  0.43400729473E+02  0.00000000000E+00 0.  1.
         11    1    3    3    0    0  0.18900010469E+02  0.13211790378E+02 -0.43627744834E+01  0.23469034965E+02  0.51100000000E-03 0. -1.
        -11    1    3    3    0    0 -0.14211759027E+01  0.34772387504E+01  0.22663131114E+01  0.43871523399E+01  0.51100000000E-03 0.  1.
        -12    1    3    3    0    0  0.17915250847E+02  0.75980029386E+01 -0.43083891241E+01  0.19931083222E+02  0.00000000000E+00 0.  1.
</event>
<event>
 7    1  0.2834226E-010  0.4778727E+02  0.7816164E-02  0.1312668E+00
        -11   -1    0    0    0    0  0.00000000000E+00  0.00000000000E+00  0.45593999997E+02  0.45594000000E+02  0.51100000000E-03 0.  1.
         11   -1    0    0    0    0 -0.00000000000E+00 -0.00000000000E+00 -0.45593999997E+02  0.45594000000E+02  0.51100000000E-03 0. -1.
    9900012    2    1    2    0    0  0.37716922026E+02  0.10322882755E+02 -0.18828044008E+02  0.47787270090E+02  0.19999995650E+02 0.  0.
        -12    1    1    2    0    0 -0.37716922026E+02 -0.10322882755E+02  0.18828044008E+02  0.43400729910E+02  0.00000000000E+00 0.  1.
         11    1    3    3    0    0  0.72319244143E+01  0.31837223900E+00 -0.28948910374E+01  0.77963123332E+01  0.51100000000E-03 0. -1.
        -11    1    3    3    0    0 -0.99592081484E+00  0.40784544332E+00 -0.52948777551E+01  0.54031404643E+01  0.51100000000E-03 0.  1.
        -12    1    3    3    0    0  0.31480918427E+02  0.95966650732E+01 -0.10638275216E+02  0.34587817293E+02  0.00000000000E+00 0.  1.
</event>
<event>
 7    1  0.2834226E-010  0.4778727E+02  0.7816164E-02  0.1312668E+00
        -11   -1    0    0    0    0  0.00000000000E+00  0.00000000000E+00  0.45593999997E+02  0.45594000000E+02  0.51100000000E-03 0. -1.
         11   -1    0    0    0    0 -0.00000000000E+00 -0.00000000000E+00 -0.45593999997E+02  0.45594000000E+02  0.51100000000E-03 0.  1.
    9900012    2    1    2    0    0 -0.28682627875E+02 -0.23414418081E+02  0.22642770203E+02  0.47787272375E+02  0.20000006064E+02 0.  0.
        -12    1    1    2    0    0  0.28682627875E+02  0.23414418081E+02 -0.22642770203E+02  0.43400727625E+02  0.00000000000E+00 0.  1.
         11    1    3    3    0    0 -0.26556008914E+02 -0.12835561586E+02  0.15154114478E+02  0.33160525275E+02  0.51100000000E-03 0. -1.
        -11    1    3    3    0    0  0.27461305484E+00 -0.53548486020E+01  0.70545208495E+01  0.88609300052E+01  0.51100000000E-03 0.  1.
         12    1    3    3    0    0 -0.24012320163E+01 -0.52240078938E+01  0.43413487583E+00  0.57658170940E+01  0.00000000000E+00 0. -1.
</event>
<event>
 7    1  0.2834226E-010  0.4778727E+02  0.7816164E-02  0.1312668E+00
        -11   -1    0    0    0    0  0.00000000000E+00  0.00000000000E+00  0.45593999997E+02  0.45594000000E+02  0.51100000000E-03 0.  1.
         11   -1    0    0    0    0 -0.00000000000E+00 -0.00000000000E+00 -0.45593999997E+02  0.45594000000E+02  0.51100000000E-03 0. -1.
    9900012    2    1    2    0    0 -0.26054204233E+02  0.91927311522E+00 -0.34698083364E+02  0.47787267167E+02  0.19999982323E+02 0.  0.
        -12    1    1    2    0    0  0.26054204233E+02 -0.91927311522E+00  0.34698083364E+02  0.43400732833E+02  0.00000000000E+00 0.  1.
         11    1    3    3    0    0 -0.17521479688E+02  0.82403097324E+00 -0.14122352995E+02  0.22519372369E+02  0.51100000000E-03 0. -1.
        -11    1    3    3    0    0  0.24827934134E+01 -0.22277532221E+01 -0.58177162756E+01  0.67061889682E+01  0.51100000000E-03 0.  1.
        -12    1    3    3    0    0 -0.11015517958E+02  0.23229953641E+01 -0.14758014093E+02  0.18561705830E+02  0.00000000000E+00 0.  1.
</event>
<event>
 7    1  0.2834226E-010  0.4778727E+02  0.7816164E-02  0.1312668E+00
        -11   -1    0    0    0    0  0.00000000000E+00  0.00000000000E+00  0.45593999997E+02  0.45594000000E+02  0.51100000000E-03 0.  1.
         11   -1    0    0    0    0 -0.00000000000E+00 -0.00000000000E+00 -0.45593999997E+02  0.45594000000E+02  0.51100000000E-03 0. -1.
    9900012    2    1    2    0    0 -0.31045835713E+02 -0.12607665152E+02 -0.27583082579E+02  0.47787267515E+02  0.19999983907E+02 0.  0.
        -12    1    1    2    0    0  0.31045835713E+02  0.12607665152E+02  0.27583082579E+02  0.43400732485E+02  0.00000000000E+00 0.  1.
         11    1    3    3    0    0 -0.22327700868E+02 -0.82931649729E+01 -0.98027934823E+01  0.25756505424E+02  0.51100000000E-03 0. -1.
        -11    1    3    3    0    0 -0.42764320222E+01 -0.53629735507E+01 -0.50805183714E+01  0.85358668763E+01  0.51100000000E-03 0.  1.
         12    1    3    3    0    0 -0.44417028225E+01  0.10484733718E+01 -0.12699770726E+02  0.13494895215E+02  0.00000000000E+00 0. -1.
</event>
<event>
 7    1  0.2834226E-010  0.4778727E+02  0.7816164E-02  0.1312668E+00
        -11   -1    0    0    0    0  0.00000000000E+00  0.00000000000E+00  0.45593999997E+02  0.45594000000E+02  0.51100000000E-03 0.  1.
         11   -1    0    0    0    0 -0.00000000000E+00 -0.00000000000E+00 -0.45593999997E+02  0.45594000000E+02  0.51100000000E-03 0. -1.
    9900012    2    1    2    0    0  0.42702338506E+01 -0.19262154382E+02 -0.38656921460E+02  0.47787273447E+02  0.20000010955E+02 0.  0.
        -12    1    1    2    0    0 -0.42702338506E+01  0.19262154382E+02  0.38656921460E+02  0.43400726553E+02  0.00000000000E+00 0.  1.
         11    1    3    3    0    0  0.21339416179E+01 -0.10611290857E+02 -0.18013253304E+02  0.21015006432E+02  0.51100000000E-03 0. -1.
        -11    1    3    3    0    0 -0.12852528855E+01  0.38521900957E+01 -0.43451260615E+01  0.59473829761E+01  0.51100000000E-03 0.  1.
        -12    1    3    3    0    0  0.34215451182E+01 -0.12503053621E+02 -0.16298542094E+02  0.20824884039E+02  0.00000000000E+00 0.  1.
</event>
<event>
 7    1  0.2834226E-010  0.4778727E+02  0.7816164E-02  0.1312668E+00
        -11   -1    0    0    0    0  0.00000000000E+00  0.00000000000E+00  0.45593999997E+02  0.45594000000E+02  0.51100000000E-03 0.  1.
         11   -1    0    0    0    0 -0.00000000000E+00 -0.00000000000E+00 -0.45593999997E+02  0.45594000000E+02  0.51100000000E-03 0. -1.
    9900012    2    1    2    0    0  0.36302482755E+02  0.17479307931E+02 -0.16131546369E+02  0.47787271340E+02  0.20000001349E+02 0.  0.
        -12    1    1    2    0    0 -0.36302482755E+02 -0.17479307931E+02  0.16131546369E+02  0.43400728660E+02  0.00000000000E+00 0.  1.
         11    1    3    3    0    0  0.11265208891E+02  0.63846386157E+01 -0.11495590612E+01  0.12999616452E+02  0.51100000000E-03 0. -1.
        -11    1    3    3    0    0  0.26996015785E+02  0.88937092727E+01 -0.13982691083E+02  0.31676467339E+02  0.51100000000E-03 0.  1.
        -12    1    3    3    0    0 -0.19587419206E+01  0.22009600428E+01 -0.99929622490E+00  0.31111875493E+01  0.00000000000E+00 0.  1.
</event>
<event>
 7    1  0.2834226E-010  0.4778727E+02  0.7816164E-02  0.1312668E+00
        -11   -1    0    0    0    0  0.00000000000E+00  0.00000000000E+00  0.45593999997E+02  0.45594000000E+02  0.51100000000E-03 0.  1.
         11   -1    0    0    0    0 -0.00000000000E+00 -0.00000000000E+00 -0.45593999997E+02  0.45594000000E+02  0.51100000000E-03 0. -1.
    9900012    2    1    2    0    0  0.78638869945E+01  0.86466582661E+00 -0.42673586389E+02  0.47787270272E+02  0.19999996478E+02 0.  0.
        -12    1    1    2    0    0 -0.78638869945E+01 -0.86466582661E+00  0.42673586389E+02  0.43400729728E+02  0.00000000000E+00 0.  1.
         11    1    3    3    0    0  0.75052643824E+01  0.45329635692E+01 -0.42907969157E+02  0.43794640877E+02  0.51100000000E-03 0. -1.
        -11    1    3    3    0    0  0.87902696004E+00 -0.26840214040E+01  0.44605324743E+00  0.28593046453E+01  0.51100000000E-03 0.  1.
         12    1    3    3    0    0 -0.52040434793E+00 -0.98427633851E+00 -0.21167047940E+00  0.11333247495E+01  0.00000000000E+00 0. -1.
</event>
<event>
 7    1  0.2834226E-010  0.4778724E+02  0.7816164E-02  0.1312668E+00
        -11   -1    0    0    0    0  0.00000000000E+00  0.00000000000E+00  0.45593999997E+02  0.45594000000E+02  0.51100000000E-03 0. -1.
         11   -1    0    0    0    0 -0.00000000000E+00 -0.00000000000E+00 -0.45593999997E+02  0.45594000000E+02  0.51100000000E-03 0.  1.
    9900012    2    1    2    0    0 -0.42206941099E+02 -0.10001580998E+02 -0.14725473279E+01  0.47787240847E+02  0.19999862318E+02 0.  0.
        -12    1    1    2    0    0  0.42206941099E+02  0.10001580998E+02  0.14725473279E+01  0.43400759153E+02  0.00000000000E+00 0.  1.
         11    1    3    3    0    0 -0.92833449657E+01 -0.75424423130E+01  0.46497888351E+01  0.12833139377E+02  0.51100000000E-03 0. -1.
        -11    1    3    3    0    0 -0.25628005797E+02 -0.55237954694E+01 -0.65735579799E+01  0.27028108744E+02  0.51100000000E-03 0.  1.
        -12    1    3    3    0    0 -0.72955903365E+01  0.30646567840E+01  0.45122181695E+00  0.79259927259E+01  0.00000000000E+00 0.  1.
</event>
<event>
 7    1  0.2834226E-010  0.4778727E+02  0.7816164E-02  0.1312668E+00
        -11   -1    0    0    0    0  0.00000000000E+00  0.00000000000E+00  0.45593999997E+02  0.45594000000E+02  0.51100000000E-03 0.  1.
         11   -1    0    0    0    0 -0.00000000000E+00 -0.00000000000E+00 -0.45593999997E+02  0.45594000000E+02  0.51100000000E-03 0. -1.
    9900012    2    1    2    0    0  0.35743064887E+01  0.10537262007E+02 -0.41950131610E+02  0.47787273053E+02  0.20000009157E+02 0.  0.
        -12    1    1    2    0    0 -0.35743064887E+01 -0.10537262007E+02  0.41950131610E+02  0.43400726947E+02  0.00000000000E+00 0.  1.
         11    1    3    3    0    0 -0.43940228318E+01  0.39789728743E+01 -0.78598245348E+01  0.98446180099E+01  0.51100000000E-03 0. -1.
        -11    1    3    3    0    0  0.10875116555E+02  0.30473126088E+01 -0.18271746355E+02  0.21480479263E+02  0.51100000000E-03 0.  1.
        -12    1    3    3    0    0 -0.29067872348E+01  0.35109765240E+01 -0.15818560720E+02  0.16462175780E+02  0.00000000000E+00 0.  1.
</event>
<event>
 7    1  0.2834226E-010  0.4778727E+02  0.7816164E-02  0.1312668E+00
        -11   -1    0    0    0    0  0.00000000000E+00  0.00000000000E+00  0.45593999997E+02  0.45594000000E+02  0.51100000000E-03 0. -1.
         11   -1    0    0    0    0 -0.00000000000E+00 -0.00000000000E+00 -0.45593999997E+02  0.45594000000E+02  0.51100000000E-03 0.  1.
    9900012    2    1    2    0    0 -0.14917835763E+02  0.20094522909E+02  0.35458314378E+02  0.47787265752E+02  0.19999975868E+02 0.  0.
        -12    1    1    2    0    0  0.14917835763E+02 -0.20094522909E+02 -0.35458314378E+02  0.43400734248E+02  0.00000000000E+00 0.  1.
         11    1    3    3    0    0 -0.39145258382E+01  0.36128088296E+01  0.74976883734E+01  0.91973491497E+01  0.51100000000E-03 0. -1.
        -11    1    3    3    0    0 -0.26700990121E+01 -0.29549184569E+01  0.10281441902E+02  0.11025834194E+02  0.51100000000E-03 0.  1.
        -12    1    3    3    0    0 -0.83332109127E+01  0.19436632536E+02  0.17679184102E+02  0.27564082408E+02  0.00000000000E+00 0.  1.
</event>
<event>
 7    1  0.2834226E-010  0.4778730E+02  0.7816164E-02  0.1312668E+00
        -11   -1    0    0    0    0  0.00000000000E+00  0.00000000000E+00  0.45593999997E+02  0.45594000000E+02  0.51100000000E-03 0. -1.
         11   -1    0    0    0    0 -0.00000000000E+00 -0.00000000000E+00 -0.45593999997E+02  0.45594000000E+02  0.51100000000E-03 0.  1.
    9900012    2    1    2    0    0  0.11237853047E+01 -0.12305037299E+02  0.41604614595E+02  0.47787299638E+02  0.20000130368E+02 0.  0.
        -12    1    1    2    0    0 -0.11237853047E+01  0.12305037299E+02 -0.41604614595E+02  0.43400700362E+02  0.00000000000E+00 0.  1.
         11    1    3    3    0    0  0.26594614959E+01 -0.68384467371E+01  0.25189254004E+02  0.26236150761E+02  0.51100000000E-03 0. -1.
        -11    1    3    3    0    0 -0.64579820451E+01 -0.64827495732E+00  0.48979227817E+01  0.81311401630E+01  0.51100000000E-03 0.  1.
        -12    1    3    3    0    0  0.49223058538E+01 -0.48183156046E+01  0.11517437809E+02  0.13420008714E+02  0.00000000000E+00 0.  1.
</event>
<event>
 7    1 -0.2834226E-010  0.4778727E+02  0.7816164E-02  0.1312668E+00
        -11   -1    0    0    0    0  0.00000000000E+00  0.00000000000E+00  0.45593999997E+02  0.45594000000E+02  0.51100000000E-03 0. -1.
         11   -1    0    0    0    0 -0.00000000000E+00 -0.00000000000E+00 -0.45593999997E+02  0.45594000000E+02  0.51100000000E-03 0.  1.
    9900012    2    1    2    0    0 -0.19127684727E+02  0.38390244459E+02  0.66290144367E+01  0.47787273911E+02  0.20000013069E+02 0.  0.
        -12    1    1    2    0    0  0.19127684727E+02 -0.38390244459E+02 -0.66290144367E+01  0.43400726089E+02  0.00000000000E+00 0.  1.
         11    1    3    3    0    0 -0.42566318631E+01  0.38553120917E+01  0.73268923053E+01  0.93094412967E+01  0.51100000000E-03 0.  1.
        -11    1    3    3    0    0 -0.37022376693E+00  0.44459432350E+01 -0.23376770198E+01  0.50366865096E+01  0.51100000000E-03 0. -1.
         12    1    3    3    0    0 -0.14500829097E+02  0.30088989133E+02  0.16397991512E+01  0.33441146105E+02  0.00000000000E+00 0. -1.
</event>
<event>
 7    1  0.2834226E-010  0.4778727E+02  0.7816164E-02  0.1312668E+00
        -11   -1    0    0    0    0  0.00000000000E+00  0.00000000000E+00  0.45593999997E+02  0.45594000000E+02  0.51100000000E-03 0.  1.
         11   -1    0    0    0    0 -0.00000000000E+00 -0.00000000000E+00 -0.45593999997E+02  0.45594000000E+02  0.51100000000E-03 0. -1.
    9900012    2    1    2    0    0  0.17468314274E+02  0.13522878726E+02 -0.37357905260E+02  0.47787270306E+02  0.19999996631E+02 0.  0.
        -12    1    1    2    0    0 -0.17468314274E+02 -0.13522878726E+02  0.37357905260E+02  0.43400729694E+02  0.00000000000E+00 0.  1.
         11    1    3    3    0    0  0.18012948364E+00 -0.39772113176E+00 -0.18061900899E+02  0.18067177230E+02  0.51100000000E-03 0. -1.
        -11    1    3    3    0    0  0.45719543518E+01  0.54563406218E+01 -0.43144723950E+01  0.83240069609E+01  0.51100000000E-03 0.  1.
         12    1    3    3    0    0  0.12716230438E+02  0.84642592358E+01 -0.14981531966E+02  0.21396086115E+02  0.00000000000E+00 0. -1.
</event>
<event>
 7    1  0.2834226E-010  0.4778727E+02  0.7816164E-02  0.1312668E+00
        -11   -1    0    0    0    0  0.00000000000E+00  0.00000000000E+00  0.45593999997E+02  0.45594000000E+02  0.51100000000E-03 0. -1.
         11   -1    0    0    0    0 -0.00000000000E+00 -0.00000000000E+00 -0.45593999997E+02  0.45594000000E+02  0.51100000000E-03 0.  1.
    9900012    2    1    2    0    0  0.32897869098E+02  0.21274524996E+02  0.18674791785E+02  0.47787273587E+02  0.20000011592E+02 0.  0.
        -12    1    1    2    0    0 -0.32897869098E+02 -0.21274524996E+02 -0.18674791785E+02  0.43400726413E+02  0.00000000000E+00 0.  1.
         11    1    3    3    0    0  0.17996742664E+02  0.16436304579E+02  0.16435417740E+02  0.29396561215E+02  0.51100000000E-03 0. -1.
        -11    1    3    3    0    0  0.19005441441E+01  0.28333572968E+01 -0.26884661623E+01  0.43437117977E+01  0.51100000000E-03 0.  1.
        -12    1    3    3    0    0  0.13000582290E+02  0.20048631193E+01  0.49278402068E+01  0.14047000574E+02  0.00000000000E+00 0.  1.
</event>
<event>
 7    1  0.2834226E-010  0.4778726E+02  0.7816164E-02  0.1312668E+00
        -11   -1    0    0    0    0  0.00000000000E+00  0.00000000000E+00  0.45593999997E+02  0.45594000000E+02  0.51100000000E-03 0.  1.
         11   -1    0    0    0    0 -0.00000000000E+00 -0.00000000000E+00 -0.45593999997E+02  0.45594000000E+02  0.51100000000E-03 0. -1.
    9900012    2    1    2    0    0  0.25757023768E+02  0.35060204107E+01 -0.34754961632E+02  0.47787264862E+02  0.19999971810E+02 0.  0.
        -12    1    1    2    0    0 -0.25757023768E+02 -0.35060204107E+01  0.34754961632E+02  0.43400735138E+02  0.00000000000E+00 0.  1.
         11    1    3    3    0    0 -0.21347326572E+01  0.25596791713E+01 -0.28566563658E+01  0.43897069186E+01  0.51100000000E-03 0. -1.
        -11    1    3    3    0    0  0.18504432031E+02 -0.21014136844E+01 -0.25716716118E+02  0.31751841402E+02  0.51100000000E-03 0.  1.
         12    1    3    3    0    0  0.93873243941E+01  0.30477549237E+01 -0.61815891482E+01  0.11645716541E+02  0.00000000000E+00 0. -1.
</event>
<event>
 7    1  0.2834226E-010  0.4778728E+02  0.7816164E-02  0.1312668E+00
        -11   -1    0    0    0    0  0.00000000000E+00  0.00000000000E+00  0.45593999997E+02  0.45594000000E+02  0.51100000000E-03 0. -1.
         11   -1    0    0    0    0 -0.00000000000E+00 -0.00000000000E+00 -0.45593999997E+02  0.45594000000E+02  0.51100000000E-03 0.  1.
    9900012    2    1    2    0    0  0.60317772714E+00 -0.43018721206E+02  0.57139026871E+01  0.47787275565E+02  0.20000020611E+02 0.  0.
        -12    1    1    2    0    0 -0.60317772714E+00  0.43018721206E+02 -0.57139026871E+01  0.43400724435E+02  0.00000000000E+00 0.  1.
         11    1    3    3    0    0 -0.36247447204E+01 -0.57879692616E+01  0.29040169831E+01  0.74210967761E+01  0.51100000000E-03 0. -1.
        -11    1    3    3    0    0  0.11993010254E+01 -0.36809161732E+02  0.40821499693E+01  0.37054239420E+02  0.51100000000E-03 0.  1.
        -12    1    3    3    0    0  0.30286214221E+01 -0.42159021275E+00 -0.12722642653E+01  0.33119393694E+01  0.00000000000E+00 0.  1.
</event>
<event>
 7    1  0.2834226E-010  0.4778727E+02  0.7816164E-02  0.1312668E+00
        -11   -1    0    0    0    0  0.00000000000E+00  0.00000000000E+00  0.45593999997E+02  0.45594000000E+02  0.51100000000E-03 0. -1.
         11   -1    0    0    0    0 -0.00000000000E+00 -0.00000000000E+00 -0.45593999997E+02  0.45594000000E+02  0.51100000000E-03 0.  1.
    9900012    2    1    2    0    0 -0.59052871515E+01 -0.38895438668E+02  0.18327453440E+02  0.47787272874E+02  0.20000008340E+02 0.  0.
        -12    1    1    2    0    0  0.59052871515E+01  0.38895438668E+02 -0.18327453440E+02  0.43400727126E+02  0.00000000000E+00 0.  1.
         11    1    3    3    0    0 -0.29897976117E+01 -0.33180244570E+02  0.15495901757E+02  0.36742216740E+02  0.51100000000E-03 0. -1.
        -11    1    3    3    0    0 -0.59154803147E+01 -0.30368280609E+01  0.19252760916E+01  0.69225660210E+01  0.51100000000E-03 0.  1.
        -12    1    3    3    0    0  0.29999907749E+01 -0.26783660374E+01  0.90627559085E+00  0.41224901123E+01  0.00000000000E+00 0.  1.
</event>
<event>
 7    1  0.2834226E-010  0.4778727E+02  0.7816164E-02  0.1312668E+00
        -11   -1    0    0    0    0  0.00000000000E+00  0.00000000000E+00  0.45593999997E+02  0.45594000000E+02  0.51100000000E-03 0.  1.
         11   -1    0    0    0    0 -0.00000000000E+00 -0.00000000000E+00 -0.45593999997E+02  0.45594000000E+02  0.51100000000E-03 0. -1.
    9900012    2    1    2    0    0 -0.16660486678E+02 -0.39285521445E+02  0.79182823142E+01  0.47787271822E+02  0.20000003547E+02 0.  0.
        -12    1    1    2    0    0  0.16660486678E+02  0.39285521445E+02 -0.79182823142E+01  0.43400728178E+02  0.00000000000E+00 0.  1.
         11    1    3    3    0    0  0.16649721486E+00 -0.10669039423E+02 -0.36999085703E+01  0.11293602048E+02  0.51100000000E-03 0. -1.
        -11    1    3    3    0    0 -0.14912640495E+02 -0.18759713854E+02  0.50379486775E+01  0.24488663449E+02  0.51100000000E-03 0.  1.
        -12    1    3    3    0    0 -0.19143433984E+01 -0.98567681679E+01  0.65802422070E+01  0.12005006325E+02  0.00000000000E+00 0.  1.
</event>
<event>
 7    1  0.2834226E-010  0.4778727E+02  0.7816164E-02  0.1312668E+00
        -11   -1    0    0    0    0  0.00000000000E+00  0.00000000000E+00  0.45593999997E+02  0.45594000000E+02  0.51100000000E-03 0. -1.
         11   -1    0    0    0    0 -0.00000000000E+00 -0.00000000000E+00 -0.45593999997E+02  0.45594000000E+02  0.51100000000E-03 0.  1.
    9900012    2    1    2    0    0 -0.24959668041E+02  0.19853683490E+02  0.29435853081E+02  0.47787271626E+02  0.20000002650E+02 0.  0.
        -12    1    1    2    0    0  0.24959668041E+02 -0.19853683490E+02 -0.29435853081E+02  0.43400728374E+02  0.00000000000E+00 0.  1.
         11    1    3    3    0    0 -0.18668916518E+02  0.94215958463E+01  0.11507974323E+02  0.23868983756E+02  0.51100000000E-03 0. -1.
        -11    1    3    3    0    0  0.26857399945E+01  0.38619853602E+01  0.50646681874E+01  0.69122351197E+01  0.51100000000E-03 0.  1.
         12    1    3    3    0    0 -0.89764915182E+01  0.65701022831E+01  0.12863210570E+02  0.17006052750E+02  0.00000000000E+00 0. -1.
</event>
<event>
 7    1  0.2834226E-010  0.4778727E+02  0.7816164E-02  0.1312668E+00
        -11   -1    0    0    0    0  0.00000000000E+00  0.00000000000E+00  0.45593999997E+02  0.45594000000E+02  0.51100000000E-03 0.  1.
         11   -1    0    0    0    0 -0.00000000000E+00 -0.00000000000E+00 -0.45593999997E+02  0.45594000000E+02  0.51100000000E-03 0. -1.
    9900012    2    1    2    0    0  0.28581771016E+02 -0.30420532718E+02 -0.11886839089E+02  0.47787269721E+02  0.19999993966E+02 0.  0.
        -12    1    1    2    0    0 -0.28581771016E+02  0.30420532718E+02  0.11886839089E+02  0.43400730279E+02  0.00000000000E+00 0.  1.
         11    1    3    3    0    0  0.10018114026E+01 -0.39740353993E+01 -0.61851366019E+01  0.74197370901E+01  0.51100000000E-03 0. -1.
        -11    1    3    3    0    0  0.25797569723E+02 -0.18352757042E+02 -0.40625220961E+01  0.31919310467E+02  0.51100000000E-03 0.  1.
        -12    1    3    3    0    0  0.17823898904E+01 -0.80937402760E+01 -0.16391803907E+01  0.84482221638E+01  0.00000000000E+00 0.  1.
</event>
<event>
 7    1  0.2834226E-010  0.4778727E+02  0.7816164E-02  0.1312668E+00
        -11   -1    0    0    0    0  0.00000000000E+00  0.00000000000E+00  0.45593999997E+02  0.45594000000E+02  0.51100000000E-03 0.  1.
         11   -1    0    0    0    0 -0.00000000000E+00 -0.00000000000E+00 -0.45593999997E+02  0.45594000000E+02  0.51100000000E-03 0. -1.
    9900012    2    1    2    0    0 -0.33100111327E+02 -0.22779397781E+02 -0.16404433788E+02  0.47787265202E+02  0.19999973361E+02 0.  0.
        -12    1    1    2    0    0  0.33100111327E+02  0.22779397781E+02  0.16404433788E+02  0.43400734798E+02  0.00000000000E+00 0.  1.
         11    1    3    3    0    0 -0.33496380839E+02 -0.21312891767E+02 -0.18039709991E+02  0.43608233415E+02  0.51100000000E-03 0. -1.
        -11    1    3    3    0    0 -0.57662246532E+00 -0.20425172560E+01  0.20728750270E+01  0.29666785042E+01  0.51100000000E-03 0.  1.
         12    1    3    3    0    0  0.97289197738E+00  0.57601124189E+00 -0.43759882393E+00  0.12123532823E+01  0.00000000000E+00 0. -1.
</event>
<event>
 7    1  0.2834226E-010  0.4778726E+02  0.7816164E-02  0.1312668E+00
        -11   -1    0    0    0    0  0.00000000000E+00  0.00000000000E+00  0.45593999997E+02  0.45594000000E+02  0.51100000000E-03 0.  1.
         11   -1    0    0    0    0 -0.00000000000E+00 -0.00000000000E+00 -0.45593999997E+02  0.45594000000E+02  0.51100000000E-03 0. -1.
    9900012    2    1    2    0    0 -0.40298609731E+02  0.11883471164E+02 -0.10882530913E+02  0.47787259082E+02  0.19999945456E+02 0.  0.
        -12    1    1    2    0    0  0.40298609731E+02 -0.11883471164E+02  0.10882530913E+02  0.43400740918E+02  0.00000000000E+00 0.  1.
         11    1    3    3    0    0 -0.30672830034E+02  0.90199517794E+01 -0.13638944752E+02  0.34759212399E+02  0.51100000000E-03 0. -1.
        -11    1    3    3    0    0 -0.10599679113E+02  0.10395642803E+01  0.25388296403E+01  0.10948951886E+02  0.51100000000E-03 0.  1.
         12    1    3    3    0    0  0.97389941503E+00  0.18239551044E+01  0.21758419812E+00  0.20790947974E+01  0.00000000000E+00 0. -1.
</event>
<event>
 7    1  0.2834226E-010  0.4778727E+02  0.7816164E-02  0.1312668E+00
        -11   -1    0    0    0    0  0.00000000000E+00  0.00000000000E+00  0.45593999997E+02  0.45594000000E+02  0.51100000000E-03 0.  1.
         11   -1    0    0    0    0 -0.00000000000E+00 -0.00000000000E+00 -0.45593999997E+02  0.45594000000E+02  0.51100000000E-03 0. -1.
    9900012    2    1    2    0    0 -0.32993238854E+02  0.12923356606E+02 -0.25061051664E+02  0.47787271128E+02  0.20000000383E+02 0.  0.
        -12    1    1    2    0    0  0.32993238854E+02 -0.12923356606E+02  0.25061051664E+02  0.43400728872E+02  0.00000000000E+00 0.  1.
         11    1    3    3    0    0 -0.14223741834E+02 -0.11639381157E+01 -0.81740833682E+01  0.16446434960E+02  0.51100000000E-03 0. -1.
        -11    1    3    3    0    0 -0.37842745267E+01  0.89401586188E+01 -0.27088929770E+01  0.10078951892E+02  0.51100000000E-03 0.  1.
        -12    1    3    3    0    0 -0.14985222493E+02  0.51471361032E+01 -0.14178075319E+02  0.21261884277E+02  0.00000000000E+00 0.  1.
</event>
<event>
 7    1  0.2834226E-010  0.4778727E+02  0.7816164E-02  0.1312668E+00
        -11   -1    0    0    0    0  0.00000000000E+00  0.00000000000E+00  0.45593999997E+02  0.45594000000E+02  0.51100000000E-03 0. -1.
         11   -1    0    0    0    0 -0.00000000000E+00 -0.00000000000E+00 -0.45593999997E+02  0.45594000000E+02  0.51100000000E-03 0.  1.
    9900012    2    1    2    0    0 -0.23199303321E+01  0.23297715160E+02  0.36543915163E+02  0.47787270238E+02  0.19999996324E+02 0.  0.
        -12    1    1    2    0    0  0.23199303321E+01 -0.23297715160E+02 -0.36543915163E+02  0.43400729762E+02  0.00000000000E+00 0.  1.
         11    1    3    3    0    0 -0.14651630914E+00 -0.15915121579E+01  0.29931338084E+01  0.33931148277E+01  0.51100000000E-03 0. -1.
        -11    1    3    3    0    0  0.16818061958E+01  0.23249957187E+02  0.32636166054E+02  0.40106212938E+02  0.51100000000E-03 0.  1.
        -12    1    3    3    0    0 -0.38552202188E+01  0.16392701311E+01  0.91461530031E+00  0.42879424723E+01  0.00000000000E+00 0.  1.
</event>
<event>
 7    1  0.2834226E-010  0.4778727E+02  0.7816164E-02  0.1312668E+00
        -11   -1    0    0    0    0  0.00000000000E+00  0.00000000000E+00  0.45593999997E+02  0.45594000000E+02  0.51100000000E-03 0.  1.
         11   -1    0    0    0    0 -0.00000000000E+00 -0.00000000000E+00 -0.45593999997E+02  0.45594000000E+02  0.51100000000E-03 0. -1.
    9900012    2    1    2    0    0 -0.33119892508E+02  0.16452138478E+02 -0.22716144735E+02  0.47787269916E+02  0.19999994854E+02 0.  0.
        -12    1    1    2    0    0  0.33119892508E+02 -0.16452138478E+02  0.22716144735E+02  0.43400730084E+02  0.00000000000E+00 0.  1.
         11    1    3    3    0    0 -0.12179229530E+02 -0.35315664906E+01 -0.71510758266E+01  0.14558278730E+02  0.51100000000E-03 0. -1.
        -11    1    3    3    0    0 -0.98876647946E+01  0.10923436520E+02 -0.54059781601E+01  0.15694329569E+02  0.51100000000E-03 0.  1.
         12    1    3    3    0    0 -0.11052998183E+02  0.90602684486E+01 -0.10159090748E+02  0.17534661617E+02  0.00000000000E+00 0. -1.
</event>
<event>
 7    1  0.2834226E-010  0.4778727E+02  0.7816164E-02  0.1312668E+00
        -11   -1    0    0    0    0  0.00000000000E+00  0.00000000000E+00  0.45593999997E+02  0.45594000000E+02  0.51100000000E-03 0.  1.
         11   -1    0    0    0    0 -0.00000000000E+00 -0.00000000000E+00 -0.45593999997E+02  0.45594000000E+02  0.51100000000E-03 0. -1.
    9900012    2    1    2    0    0 -0.22218057999E+02 -0.71703985432E+01 -0.36586423121E+02  0.47787273355E+02  0.20000010537E+02 0.  0.
        -12    1    1    2    0    0  0.22218057999E+02  0.71703985432E+01  0.36586423121E+02  0.43400726645E+02  0.00000000000E+00 0.  1.
         11    1    3    3    0    0 -0.22343830209E+02 -0.97987661782E+01 -0.26636388469E+02  0.36121458414E+02  0.51100000000E-03 0. -1.
        -11    1    3    3    0    0 -0.56585008371E+00  0.39617593465E+01 -0.45443469152E+01  0.60553127569E+01  0.51100000000E-03 0.  1.
         12    1    3    3    0    0  0.69162229444E+00 -0.13333917116E+01 -0.54056877368E+01  0.56105021845E+01  0.00000000000E+00 0. -1.
</event>
<event>
 7    1  0.2834226E-010  0.4778727E+02  0.7816164E-02  0.1312668E+00
        -11   -1    0    0    0    0  0.00000000000E+00  0.00000000000E+00  0.45593999997E+02  0.45594000000E+02  0.51100000000E-03 0. -1.
         11   -1    0    0    0    0 -0.00000000000E+00 -0.00000000000E+00 -0.45593999997E+02  0.45594000000E+02  0.51100000000E-03 0.  1.
    9900012    2    1    2    0    0  0.22115995136E+02  0.13207177433E+02  0.34929596810E+02  0.47787268325E+02  0.19999987603E+02 0.  0.
        -12    1    1    2    0    0 -0.22115995136E+02 -0.13207177433E+02 -0.34929596810E+02  0.43400731675E+02  0.00000000000E+00 0.  1.
         11    1    3    3    0    0  0.22004121911E+02  0.14741629030E+02  0.29467785623E+02  0.39621299793E+02  0.51100000000E-03 0. -1.
        -11    1    3    3    0    0 -0.16001981445E+01 -0.22931192599E+01  0.47131561108E+00  0.28356954540E+01  0.51100000000E-03 0.  1.
        -12    1    3    3    0    0  0.17120713700E+01  0.75866766294E+00  0.49904955757E+01  0.53302730784E+01  0.00000000000E+00 0.  1.
</event>
<event>
 7    1  0.2834226E-010  0.4778727E+02  0.7816164E-02  0.1312668E+00
        -11   -1    0    0    0    0  0.00000000000E+00  0.00000000000E+00  0.45593999997E+02  0.45594000000E+02  0.51100000000E-03 0. -1.
         11   -1    0    0    0    0 -0.00000000000E+00 -0.00000000000E+00 -0.45593999997E+02  0.45594000000E+02  0.51100000000E-03 0.  1.
    9900012    2    1    2    0    0  0.33291475003E+02 -0.89212042218E+01  0.26376370811E+02  0.47787272704E+02  0.20000007567E+02 0.  0.
        -12    1    1    2    0    0 -0.33291475003E+02  0.89212042218E+01 -0.26376370811E+02  0.43400727296E+02  0.00000000000E+00 0.  1.
         11    1    3    3    0    0  0.99447734729E+01 -0.13345797266E+01  0.67566455964E+01  0.12096771571E+02  0.51100000000E-03 0. -1.
        -11    1    3    3    0    0  0.25705599936E+02 -0.55246278961E+01  0.19138944207E+02  0.32520740568E+02  0.51100000000E-03 0.  1.
        -12    1    3    3    0    0 -0.23588984055E+01 -0.20619965992E+01  0.48078100736E+00  0.31697605650E+01  0.00000000000E+00 0.  1.
</event>
<event>
 7    1  0.2834226E-010  0.4778727E+02  0.7816164E-02  0.1312668E+00
        -11   -1    0    0    0    0  0.00000000000E+00  0.00000000000E+00  0.45593999997E+02  0.45594000000E+02  0.51100000000E-03 0.  1.
         11   -1    0    0    0    0 -0.00000000000E+00 -0.00000000000E+00 -0.45593999997E+02  0.45594000000E+02  0.51100000000E-03 0. -1.
    9900012    2    1    2    0    0  0.26936779827E+02  0.12899474547E+02 -0.31490270604E+02  0.47787266208E+02  0.19999977947E+02 0.  0.
        -12    1    1    2    0    0 -0.26936779827E+02 -0.12899474547E+02  0.31490270604E+02  0.43400733792E+02  0.00000000000E+00 0.  1.
         11    1    3    3    0    0  0.20044655184E+02  0.11836242876E+02 -0.21754030934E+02  0.31860990396E+02  0.51100000000E-03 0. -1.
        -11    1    3    3    0    0  0.71124799079E+01 -0.35693841947E+01 -0.58775255154E+01  0.98930875067E+01  0.51100000000E-03 0.  1.
        -12    1    3    3    0    0 -0.22035526513E+00  0.46326158651E+01 -0.38587141544E+01  0.60331883049E+01  0.00000000000E+00 0.  1.
</event>
<event>
 7    1  0.2834226E-010  0.4778727E+02  0.7816164E-02  0.1312668E+00
        -11   -1    0    0    0    0  0.00000000000E+00  0.00000000000E+00  0.45593999997E+02  0.45594000000E+02  0.51100000000E-03 0.  1.
         11   -1    0    0    0    0 -0.00000000000E+00 -0.00000000000E+00 -0.45593999997E+02  0.45594000000E+02  0.51100000000E-03 0. -1.
    9900012    2    1    2    0    0 -0.10355185099E+02  0.31194224791E+02 -0.28342790580E+02  0.47787270782E+02  0.19999998806E+02 0.  0.
        -12    1    1    2    0    0  0.10355185099E+02 -0.31194224791E+02  0.28342790580E+02  0.43400729218E+02  0.00000000000E+00 0.  1.
         11    1    3    3    0    0 -0.52881433127E+01  0.54546663011E+01 -0.17272249272E+02  0.18869245860E+02  0.51100000000E-03 0. -1.
        -11    1    3    3    0    0 -0.52205008696E+01  0.16652949877E+02 -0.56872279396E+01  0.18355351558E+02  0.51100000000E-03 0.  1.
         12    1    3    3    0    0  0.15345908347E+00  0.90866086130E+01 -0.53833133691E+01  0.10562673365E+02  0.00000000000E+00 0. -1.
</event>
<event>
 7    1  0.2834226E-010  0.4778727E+02  0.7816164E-02  0.1312668E+00
        -11   -1    0    0    0    0  0.00000000000E+00  0.00000000000E+00  0.45593999997E+02  0.45594000000E+02  0.51100000000E-03 0.  1.
         11   -1    0    0    0    0 -0.00000000000E+00 -0.00000000000E+00 -0.45593999997E+02  0.45594000000E+02  0.51100000000E-03 0. -1.
    9900012    2    1    2    0    0  0.41126801402E+02 -0.94494901589E+01 -0.10144788480E+02  0.47787269694E+02  0.19999993842E+02 0.  0.
        -12    1    1    2    0    0 -0.41126801402E+02  0.94494901589E+01  0.10144788480E+02  0.43400730306E+02  0.00000000000E+00 0.  1.
         11    1    3    3    0    0  0.20812827909E+02  0.27063585485E+01 -0.46976723616E+01  0.21507354743E+02  0.51100000000E-03 0. -1.
        -11    1    3    3    0    0  0.11720560910E+02 -0.10479193474E+02 -0.72941635642E+01  0.17331758892E+02  0.51100000000E-03 0.  1.
        -12    1    3    3    0    0  0.85934125830E+01 -0.16766552331E+01  0.18470474462E+01  0.89481560592E+01  0.00000000000E+00 0.  1.
</event>
<event>
 7    1  0.2834226E-010  0.4778727E+02  0.7816164E-02  0.1312668E+00
        -11   -1    0    0    0    0  0.00000000000E+00  0.00000000000E+00  0.45593999997E+02  0.45594000000E+02  0.51100000000E-03 0. -1.
         11   -1    0    0    0    0 -0.00000000000E+00 -0.00000000000E+00 -0.45593999997E+02  0.45594000000E+02  0.51100000000E-03 0.  1.
    9900012    2    1    2    0    0  0.31855913801E+02  0.25305606101E+02  0.15114573000E+02  0.47787271190E+02  0.20000000664E+02 0.  0.
        -12    1    1    2    0    0 -0.31855913801E+02 -0.25305606101E+02 -0.15114573000E+02  0.43400728810E+02  0.00000000000E+00 0.  1.
         11    1    3    3    0    0  0.97771220251E+01  0.91348642405E+00 -0.82281479848E+00  0.98541157388E+01  0.51100000000E-03 0. -1.
        -11    1    3    3    0    0  0.20253763635E+02  0.23843538467E+02  0.11905212754E+02  0.33473323094E+02  0.51100000000E-03 0.  1.
        -12    1    3    3    0    0  0.18250281417E+01  0.54858120981E+00  0.40321750449E+01  0.44598323572E+01  0.00000000000E+00 0.  1.
</event>
<event>
 7    1  0.2834226E-010  0.4778727E+02  0.7816164E-02  0.1312668E+00
        -11   -1    0    0    0    0  0.00000000000E+00  0.00000000000E+00  0.45593999997E+02  0.45594000000E+02  0.51100000000E-03 0.  1.
         11   -1    0    0    0    0 -0.00000000000E+00 -0.00000000000E+00 -0.45593999997E+02  0.45594000000E+02  0.51100000000E-03 0. -1.
    9900012    2    1    2    0    0  0.31753518011E+02  0.10724337929E+02 -0.27574008649E+02  0.47787270938E+02  0.19999999516E+02 0.  0.
        -12    1    1    2    0    0 -0.31753518011E+02 -0.10724337929E+02  0.27574008649E+02  0.43400729062E+02  0.00000000000E+00 0.  1.
         11    1    3    3    0    0  0.11348444307E+02 -0.12936655573E+01 -0.18945993046E+02  0.22122644768E+02  0.51100000000E-03 0.  1.
        -11    1    3    3    0    0  0.50672374528E+01  0.40875269751E+01 -0.35977211537E+00  0.65202920496E+01  0.51100000000E-03 0. -1.
         12    1    3    3    0    0  0.15337836251E+02  0.79304765112E+01 -0.82682434880E+01  0.19144334121E+02  0.00000000000E+00 0. -1.
</event>
<event>
 7    1  0.2834226E-010  0.4778727E+02  0.7816164E-02  0.1312668E+00
        -11   -1    0    0    0    0  0.00000000000E+00  0.00000000000E+00  0.45593999997E+02  0.45594000000E+02  0.51100000000E-03 0.  1.
         11   -1    0    0    0    0 -0.00000000000E+00 -0.00000000000E+00 -0.45593999997E+02  0.45594000000E+02  0.51100000000E-03 0. -1.
    9900012    2    1    2    0    0  0.27734284200E+02 -0.31432961366E+02 -0.11242855492E+02  0.47787269823E+02  0.19999994429E+02 0.  0.
        -12    1    1    2    0    0 -0.27734284200E+02  0.31432961366E+02  0.11242855492E+02  0.43400730177E+02  0.00000000000E+00 0.  1.
         11    1    3    3    0    0  0.43308229340E+01 -0.66664301980E+00  0.34666786231E+01  0.55873339921E+01  0.51100000000E-03 0.  1.
        -11    1    3    3    0    0  0.14204358028E+02 -0.21224626639E+02 -0.13508528609E+02  0.28891675417E+02  0.51100000000E-03 0. -1.
        -12    1    3    3    0    0  0.91991032376E+01 -0.95416917074E+01 -0.12010055063E+01  0.13308260414E+02  0.00000000000E+00 0.  1.
</event>
<event>
 7    1  0.2834226E-010  0.4778727E+02  0.7816164E-02  0.1312668E+00
        -11   -1    0    0    0    0  0.00000000000E+00  0.00000000000E+00  0.45593999997E+02  0.45594000000E+02  0.51100000000E-03 0.  1.
         11   -1    0    0    0    0 -0.00000000000E+00 -0.00000000000E+00 -0.45593999997E+02  0.45594000000E+02  0.51100000000E-03 0. -1.
    9900012    2    1    2    0    0  0.17776406082E+02  0.23617616160E+02 -0.31777838130E+02  0.47787269563E+02  0.19999993245E+02 0.  0.
        -12    1    1    2    0    0 -0.17776406082E+02 -0.23617616160E+02  0.31777838130E+02  0.43400730437E+02  0.00000000000E+00 0.  1.
         11    1    3    3    0    0  0.25515390149E+01  0.13485074205E+02 -0.23371002668E+02  0.27102792175E+02  0.51100000000E-03 0. -1.
        -11    1    3    3    0    0 -0.15042045352E-01 -0.37748506172E+00 -0.83738150903E-01  0.38695422725E+00  0.51100000000E-03 0.  1.
         12    1    3    3    0    0  0.15239909112E+02  0.10510027016E+02 -0.83230973108E+01  0.20297523161E+02  0.00000000000E+00 0. -1.
</event>
<event>
 7    1  0.2834226E-010  0.4778727E+02  0.7816164E-02  0.1312668E+00
        -11   -1    0    0    0    0  0.00000000000E+00  0.00000000000E+00  0.45593999997E+02  0.45594000000E+02  0.51100000000E-03 0.  1.
         11   -1    0    0    0    0 -0.00000000000E+00 -0.00000000000E+00 -0.45593999997E+02  0.45594000000E+02  0.51100000000E-03 0. -1.
    9900012    2    1    2    0    0 -0.12156603924E+02 -0.12434884940E+01 -0.41644859221E+02  0.47787267493E+02  0.19999983808E+02 0.  0.
        -12    1    1    2    0    0  0.12156603924E+02  0.12434884940E+01  0.41644859221E+02  0.43400732507E+02  0.00000000000E+00 0.  1.
         11    1    3    3    0    0 -0.11084884017E+02 -0.70903760242E+01 -0.15371822156E+02  0.20234648564E+02  0.51100000000E-03 0. -1.
        -11    1    3    3    0    0  0.43386791337E+00  0.38765453671E+01 -0.23545223627E+02  0.23866155980E+02  0.51100000000E-03 0.  1.
         12    1    3    3    0    0 -0.15055878199E+01  0.19703421631E+01 -0.27278134373E+01  0.36864629487E+01  0.00000000000E+00 0. -1.
</event>
<event>
 7    1  0.2834226E-010  0.4778727E+02  0.7816164E-02  0.1312668E+00
        -11   -1    0    0    0    0  0.00000000000E+00  0.00000000000E+00  0.45593999997E+02  0.45594000000E+02  0.51100000000E-03 0.  1.
         11   -1    0    0    0    0 -0.00000000000E+00 -0.00000000000E+00 -0.45593999997E+02  0.45594000000E+02  0.51100000000E-03 0. -1.
    9900012    2    1    2    0    0 -0.35503695003E+01  0.24144614498E+02 -0.35889491824E+02  0.47787272400E+02  0.20000006180E+02 0.  0.
        -12    1    1    2    0    0  0.35503695003E+01 -0.24144614498E+02  0.35889491824E+02  0.43400727600E+02  0.00000000000E+00 0.  1.
         11    1    3    3    0    0 -0.64044568914E+01  0.24815072846E+02 -0.26134697354E+02  0.36603651655E+02  0.51100000000E-03 0. -1.
        -11    1    3    3    0    0  0.38936825728E+01  0.47500963050E+00 -0.69484758623E+01  0.79792051732E+01  0.51100000000E-03 0.  1.
         12    1    3    3    0    0 -0.10395951816E+01 -0.11454679784E+01 -0.28063186078E+01  0.32044155722E+01  0.00000000000E+00 0. -1.
</event>
<event>
 7    1  0.2834226E-010  0.4778727E+02  0.7816164E-02  0.1312668E+00
        -11   -1    0    0    0    0  0.00000000000E+00  0.00000000000E+00  0.45593999997E+02  0.45594000000E+02  0.51100000000E-03 0.  1.
         11   -1    0    0    0    0 -0.00000000000E+00 -0.00000000000E+00 -0.45593999997E+02  0.45594000000E+02  0.51100000000E-03 0. -1.
    9900012    2    1    2    0    0 -0.43319348976E+01 -0.41485000720E+02  0.11993843533E+02  0.47787271580E+02  0.20000002442E+02 0.  0.
        -12    1    1    2    0    0  0.43319348976E+01  0.41485000720E+02 -0.11993843533E+02  0.43400728420E+02  0.00000000000E+00 0.  1.
         11    1    3    3    0    0 -0.94038085183E+01 -0.19977594694E+02  0.79757591680E+01  0.23476555091E+02  0.51100000000E-03 0. -1.
        -11    1    3    3    0    0 -0.15998610899E+00 -0.32996873286E+01 -0.26415129031E+01  0.42297899120E+01  0.51100000000E-03 0.  1.
         12    1    3    3    0    0  0.52318597297E+01 -0.18207718698E+02  0.66595972683E+01  0.20080926577E+02  0.00000000000E+00 0. -1.
</event>
<event>
 7    1  0.2834226E-010  0.4778727E+02  0.7816164E-02  0.1312668E+00
        -11   -1    0    0    0    0  0.00000000000E+00  0.00000000000E+00  0.45593999997E+02  0.45594000000E+02  0.51100000000E-03 0.  1.
         11   -1    0    0    0    0 -0.00000000000E+00 -0.00000000000E+00 -0.45593999997E+02  0.45594000000E+02  0.51100000000E-03 0. -1.
    9900012    2    1    2    0    0 -0.48708752968E+01 -0.41460662918E+02 -0.11870606980E+02  0.47787270676E+02  0.19999998322E+02 0.  0.
        -12    1    1    2    0    0  0.48708752968E+01  0.41460662918E+02  0.11870606980E+02  0.43400729324E+02  0.00000000000E+00 0.  1.
         11    1    3    3    0    0  0.13763290542E+01 -0.20207966173E+02 -0.58647415167E+01  0.21086758211E+02  0.51100000000E-03 0. -1.
        -11    1    3    3    0    0 -0.18655994670E+01 -0.19342579119E+02 -0.54050816234E+00  0.19439855392E+02  0.51100000000E-03 0.  1.
        -12    1    3    3    0    0 -0.43816048840E+01 -0.19101176257E+01 -0.54653573013E+01  0.72606570732E+01  0.00000000000E+00 0.  1.
</event>
<event>
 7    1  0.2834226E-010  0.4778727E+02  0.7816164E-02  0.1312668E+00
        -11   -1    0    0    0    0  0.00000000000E+00  0.00000000000E+00  0.45593999997E+02  0.45594000000E+02  0.51100000000E-03 0.  1.
         11   -1    0    0    0    0 -0.00000000000E+00 -0.00000000000E+00 -0.45593999997E+02  0.45594000000E+02  0.51100000000E-03 0. -1.
    9900012    2    1    2    0    0  0.12998859516E+01 -0.97763062435E+01 -0.42265323073E+02  0.47787269572E+02  0.19999993286E+02 0.  0.
        -12    1    1    2    0    0 -0.12998859516E+01  0.97763062435E+01  0.42265323073E+02  0.43400730428E+02  0.00000000000E+00 0.  1.
         11    1    3    3    0    0  0.11121060829E+01  0.18291338970E+01 -0.12898215228E+02  0.13074649788E+02  0.51100000000E-03 0. -1.
        -11    1    3    3    0    0  0.35884251411E+01 -0.11454226287E+02 -0.28878542375E+02  0.31273731865E+02  0.51100000000E-03 0.  1.
        -12    1    3    3    0    0 -0.34006452724E+01 -0.15121385348E+00 -0.48856547026E+00  0.34388879186E+01  0.00000000000E+00 0.  1.
</event>
<event>
 7    1  0.2834226E-010  0.4778723E+02  0.7816164E-02  0.1312668E+00
        -11   -1    0    0    0    0  0.00000000000E+00  0.00000000000E+00  0.45593999997E+02  0.45594000000E+02  0.51100000000E-03 0. -1.
         11   -1    0    0    0    0 -0.00000000000E+00 -0.00000000000E+00 -0.45593999997E+02  0.45594000000E+02  0.51100000000E-03 0.  1.
    9900012    2    1    2    0    0  0.28971741162E+01 -0.28168850395E+02  0.32889947935E+02  0.47787234735E+02  0.19999834449E+02 0.  0.
        -12    1    1    2    0    0 -0.28971741162E+01  0.28168850395E+02 -0.32889947935E+02  0.43400765265E+02  0.00000000000E+00 0.  1.
         11    1    3    3    0    0 -0.20323177108E+01 -0.21157959321E+02  0.24705696911E+02  0.32590811865E+02  0.51100000000E-03 0. -1.
        -11    1    3    3    0    0  0.68326126570E+01 -0.20536893805E+01  0.64290121532E+01  0.96038759529E+01  0.51100000000E-03 0.  1.
         12    1    3    3    0    0 -0.19031208300E+01 -0.49572016939E+01  0.17552388710E+01  0.55925469172E+01  0.00000000000E+00 0. -1.
</event>
<event>
 7    1  0.2834226E-010  0.4778728E+02  0.7816164E-02  0.1312668E+00
        -11   -1    0    0    0    0  0.00000000000E+00  0.00000000000E+00  0.45593999997E+02  0.45594000000E+02  0.51100000000E-03 0.  1.
         11   -1    0    0    0    0 -0.00000000000E+00 -0.00000000000E+00 -0.45593999997E+02  0.45594000000E+02  0.51100000000E-03 0. -1.
    9900012    2    1    2    0    0  0.34580327804E+02  0.97438586506E+01 -0.24349135301E+02  0.47787282928E+02  0.20000054184E+02 0.  0.
        -12    1    1    2    0    0 -0.34580327804E+02 -0.97438586506E+01  0.24349135301E+02  0.43400717072E+02  0.00000000000E+00 0.  1.
         11    1    3    3    0    0  0.11571652109E+02  0.10236230741E+02 -0.11062532594E+02  0.19001662558E+02  0.51100000000E-03 0. -1.
        -11    1    3    3    0    0  0.11582982411E+02  0.52826449883E+01 -0.64100636318E+01  0.14253446447E+02  0.51100000000E-03 0.  1.
         12    1    3    3    0    0  0.11425693285E+02 -0.57750170787E+01 -0.68765390747E+01  0.14532173923E+02  0.00000000000E+00 0. -1.
</event>
<event>
 7    1  0.2834226E-010  0.4778727E+02  0.7816164E-02  0.1312668E+00
        -11   -1    0    0    0    0  0.00000000000E+00  0.00000000000E+00  0.45593999997E+02  0.45594000000E+02  0.51100000000E-03 0. -1.
         11   -1    0    0    0    0 -0.00000000000E+00 -0.00000000000E+00 -0.45593999997E+02  0.45594000000E+02  0.51100000000E-03 0.  1.
    9900012    2    1    2    0    0  0.26495702405E+02 -0.32445273034E+02  0.11353659667E+02  0.47787267563E+02  0.19999984128E+02 0.  0.
        -12    1    1    2    0    0 -0.26495702405E+02  0.32445273034E+02 -0.11353659667E+02  0.43400732437E+02  0.00000000000E+00 0.  1.
         11    1    3    3    0    0  0.11952118364E+02 -0.22706281460E+02  0.12098867105E+01  0.25688366573E+02  0.51100000000E-03 0. -1.
        -11    1    3    3    0    0  0.93578308172E+01 -0.94534410421E+00  0.43792536714E+01  0.10374995714E+02  0.51100000000E-03 0.  1.
         12    1    3    3    0    0  0.51857532242E+01 -0.87936474704E+01  0.57645192850E+01  0.11723905276E+02  0.00000000000E+00 0. -1.
</event>
<event>
 7    1  0.2834226E-010  0.4778728E+02  0.7816164E-02  0.1312668E+00
        -11   -1    0    0    0    0  0.00000000000E+00  0.00000000000E+00  0.45593999997E+02  0.45594000000E+02  0.51100000000E-03 0.  1.
         11   -1    0    0    0    0 -0.00000000000E+00 -0.00000000000E+00 -0.45593999997E+02  0.45594000000E+02  0.51100000000E-03 0. -1.
    9900012    2    1    2    0    0 -0.12390824322E+02 -0.26073311952E+02 -0.32407908327E+02  0.47787278282E+02  0.20000033000E+02 0.  0.
        -12    1    1    2    0    0  0.12390824322E+02  0.26073311952E+02  0.32407908327E+02  0.43400721718E+02  0.00000000000E+00 0.  1.
         11    1    3    3    0    0 -0.22477137207E+01 -0.90689228619E+01 -0.14869390373E+02  0.17561217189E+02  0.51100000000E-03 0. -1.
        -11    1    3    3    0    0 -0.17184032035E+01 -0.26650785120E+01  0.26052330215E+01  0.41039971250E+01  0.51100000000E-03 0.  1.
        -12    1    3    3    0    0 -0.84247073977E+01 -0.14339310578E+02 -0.20143750976E+02  0.26122063968E+02  0.00000000000E+00 0.  1.
</event>
<event>
 7    1  0.2834226E-010  0.4778726E+02  0.7816164E-02  0.1312668E+00
        -11   -1    0    0    0    0  0.00000000000E+00  0.00000000000E+00  0.45593999997E+02  0.45594000000E+02  0.51100000000E-03 0. -1.
         11   -1    0    0    0    0 -0.00000000000E+00 -0.00000000000E+00 -0.45593999997E+02  0.45594000000E+02  0.51100000000E-03 0.  1.
    9900012    2    1    2    0    0 -0.40500061807E+02 -0.13900539694E+02 -0.70812366567E+01  0.47787263569E+02  0.19999965917E+02 0.  0.
        -12    1    1    2    0    0  0.40500061807E+02  0.13900539694E+02  0.70812366567E+01  0.43400736431E+02  0.00000000000E+00 0.  1.
         11    1    3    3    0    0 -0.12768466224E+02 -0.89132562377E+01 -0.29220811021E+01  0.15843560986E+02  0.51100000000E-03 0. -1.
        -11    1    3    3    0    0 -0.17744468523E+02 -0.23452731958E+01  0.45091874206E+01  0.18458040009E+02  0.51100000000E-03 0.  1.
        -12    1    3    3    0    0 -0.99871270593E+01 -0.26420102607E+01 -0.86683429753E+01  0.13485662574E+02  0.00000000000E+00 0.  1.
</event>
<event>
 7    1  0.2834226E-010  0.4778727E+02  0.7816164E-02  0.1312668E+00
        -11   -1    0    0    0    0  0.00000000000E+00  0.00000000000E+00  0.45593999997E+02  0.45594000000E+02  0.51100000000E-03 0. -1.
         11   -1    0    0    0    0 -0.00000000000E+00 -0.00000000000E+00 -0.45593999997E+02  0.45594000000E+02  0.51100000000E-03 0.  1.
    9900012    2    1    2    0    0 -0.42769308349E+02 -0.70335334673E+01  0.22223938548E+01  0.47787270004E+02  0.19999995257E+02 0.  0.
        -12    1    1    2    0    0  0.42769308349E+02  0.70335334673E+01 -0.22223938548E+01  0.43400729996E+02  0.00000000000E+00 0.  1.
         11    1    3    3    0    0 -0.19804455904E+02 -0.78018765379E+01  0.92369226637E+01  0.23203587906E+02  0.51100000000E-03 0. -1.
        -11    1    3    3    0    0 -0.13629930038E+02  0.17337107425E+00 -0.67865850901E+01  0.15227041335E+02  0.51100000000E-03 0.  1.
        -12    1    3    3    0    0 -0.93349224080E+01  0.59497199635E+00 -0.22794371877E+00  0.93566407636E+01  0.00000000000E+00 0.  1.
</event>
<event>
 7    1  0.2834226E-010  0.4778727E+02  0.7816164E-02  0.1312668E+00
        -11   -1    0    0    0    0  0.00000000000E+00  0.00000000000E+00  0.45593999997E+02  0.45594000000E+02  0.51100000000E-03 0. -1.
         11   -1    0    0    0    0 -0.00000000000E+00 -0.00000000000E+00 -0.45593999997E+02  0.45594000000E+02  0.51100000000E-03 0.  1.
    9900012    2    1    2    0    0 -0.26801653893E+02 -0.12658893000E+02  0.31702481936E+02  0.47787267469E+02  0.19999983697E+02 0.  0.
        -12    1    1    2    0    0  0.26801653893E+02  0.12658893000E+02 -0.31702481936E+02  0.43400732531E+02  0.00000000000E+00 0.  1.
         11    1    3    3    0    0  0.13104679235E+01  0.25530491478E+00  0.13920606924E+01  0.19288182938E+01  0.51100000000E-03 0.  1.
        -11    1    3    3    0    0 -0.23595966610E+01 -0.73709775667E+01  0.97127054956E+01  0.12419164827E+02  0.51100000000E-03 0. -1.
         12    1    3    3    0    0 -0.25752525155E+02 -0.55432203485E+01  0.20597715748E+02  0.33439284348E+02  0.00000000000E+00 0. -1.
</event>
<event>
 7    1  0.2834226E-010  0.4778728E+02  0.7816164E-02  0.1312668E+00
        -11   -1    0    0    0    0  0.00000000000E+00  0.00000000000E+00  0.45593999997E+02  0.45594000000E+02  0.51100000000E-03 0.  1.
         11   -1    0    0    0    0 -0.00000000000E+00 -0.00000000000E+00 -0.45593999997E+02  0.45594000000E+02  0.51100000000E-03 0. -1.
    9900012    2    1    2    0    0 -0.32849192860E+02  0.81311756824E+01 -0.27174200578E+02  0.47787278040E+02  0.20000031898E+02 0.  0.
        -12    1    1    2    0    0  0.32849192860E+02 -0.81311756824E+01  0.27174200578E+02  0.43400721960E+02  0.00000000000E+00 0.  1.
         11    1    3    3    0    0  0.13483551293E-01  0.25980635916E+01 -0.71240580279E+01  0.75830283712E+01  0.51100000000E-03 0. -1.
        -11    1    3    3    0    0 -0.22822895846E+02  0.14113979747E+01 -0.18132354820E+02  0.29183195689E+02  0.51100000000E-03 0.  1.
         12    1    3    3    0    0 -0.10039780566E+02  0.41217141161E+01 -0.19177877303E+01  0.11021053981E+02  0.00000000000E+00 0. -1.
</event>
<event>
 7    1  0.2834226E-010  0.4778727E+02  0.7816164E-02  0.1312668E+00
        -11   -1    0    0    0    0  0.00000000000E+00  0.00000000000E+00  0.45593999997E+02  0.45594000000E+02  0.51100000000E-03 0.  1.
         11   -1    0    0    0    0 -0.00000000000E+00 -0.00000000000E+00 -0.45593999997E+02  0.45594000000E+02  0.51100000000E-03 0. -1.
    9900012    2    1    2    0    0 -0.24419128018E+01  0.34180420122E+02 -0.26633801239E+02  0.47787269289E+02  0.19999991995E+02 0.  0.
        -12    1    1    2    0    0  0.24419128018E+01 -0.34180420122E+02  0.26633801239E+02  0.43400730711E+02  0.00000000000E+00 0.  1.
         11    1    3    3    0    0 -0.29108130204E+01  0.12738984256E+02 -0.23176828470E+01  0.13271254890E+02  0.51100000000E-03 0.  1.
        -11    1    3    3    0    0  0.44562788559E+01  0.79541249121E+01 -0.15297621183E+02  0.17808529936E+02  0.51100000000E-03 0. -1.
         12    1    3    3    0    0 -0.39873786374E+01  0.13487310954E+02 -0.90184972085E+01  0.16707484462E+02  0.00000000000E+00 0. -1.
</event>
<event>
 7    1  0.2834226E-010  0.4778727E+02  0.7816164E-02  0.1312668E+00
        -11   -1    0    0    0    0  0.00000000000E+00  0.00000000000E+00  0.45593999997E+02  0.45594000000E+02  0.51100000000E-03 0.  1.
         11   -1    0    0    0    0 -0.00000000000E+00 -0.00000000000E+00 -0.45593999997E+02  0.45594000000E+02  0.51100000000E-03 0. -1.
    9900012    2    1    2    0    0 -0.39656514530E+02 -0.12099918050E+01  0.17593175976E+02  0.47787273442E+02  0.20000010930E+02 0.  0.
        -12    1    1    2    0    0  0.39656514530E+02  0.12099918050E+01 -0.17593175976E+02  0.43400726558E+02  0.00000000000E+00 0.  1.
         11    1    3    3    0    0 -0.81157907575E+01 -0.76838456958E+00  0.19680196052E+01  0.83862730635E+01  0.51100000000E-03 0. -1.
        -11    1    3    3    0    0 -0.31041369235E+02  0.53489966568E-02  0.18710104769E+02  0.36244098186E+02  0.51100000000E-03 0.  1.
        -12    1    3    3    0    0 -0.49935453824E+00 -0.44695623211E+00 -0.30849483988E+01  0.31569021923E+01  0.00000000000E+00 0.  1.
</event>
<event>
 7    1  0.2834226E-010  0.4778727E+02  0.7816164E-02  0.1312668E+00
        -11   -1    0    0    0    0  0.00000000000E+00  0.00000000000E+00  0.45593999997E+02  0.45594000000E+02  0.51100000000E-03 0. -1.
         11   -1    0    0    0    0 -0.00000000000E+00 -0.00000000000E+00 -0.45593999997E+02  0.45594000000E+02  0.51100000000E-03 0.  1.
    9900012    2    1    2    0    0  0.32568650443E+02 -0.23887299576E+02  0.15884060229E+02  0.47787269107E+02  0.19999991165E+02 0.  0.
        -12    1    1    2    0    0 -0.32568650443E+02  0.23887299576E+02 -0.15884060229E+02  0.43400730893E+02  0.00000000000E+00 0.  1.
         11    1    3    3    0    0  0.22994384380E+01 -0.10646186631E+02  0.30356200021E+01  0.11306798661E+02  0.51100000000E-03 0. -1.
        -11    1    3    3    0    0  0.12111593004E+02 -0.73762449866E+01  0.14524228862E+01  0.14255146709E+02  0.51100000000E-03 0.  1.
         12    1    3    3    0    0  0.18157619001E+02 -0.58648679588E+01  0.11396017341E+02  0.22225323736E+02  0.00000000000E+00 0. -1.
</event>
<event>
 7    1  0.2834226E-010  0.4778727E+02  0.7816164E-02  0.1312668E+00
        -11   -1    0    0    0    0  0.00000000000E+00  0.00000000000E+00  0.45593999997E+02  0.45594000000E+02  0.51100000000E-03 0. -1.
         11   -1    0    0    0    0 -0.00000000000E+00 -0.00000000000E+00 -0.45593999997E+02  0.45594000000E+02  0.51100000000E-03 0.  1.
    9900012    2    1    2    0    0  0.87192496982E+01  0.26800697844E+02  0.33004857322E+02  0.47787270432E+02  0.19999997207E+02 0.  0.
        -12    1    1    2    0    0 -0.87192496982E+01 -0.26800697844E+02 -0.33004857322E+02  0.43400729568E+02  0.00000000000E+00 0.  1.
         11    1    3    3    0    0  0.63731298244E+01  0.23529061364E+02  0.29290042570E+02  0.38106956142E+02  0.51100000000E-03 0. -1.
        -11    1    3    3    0    0  0.47842784675E+01  0.24744629282E+01  0.28030361555E+00  0.53935941279E+01  0.51100000000E-03 0.  1.
        -12    1    3    3    0    0 -0.24381585937E+01  0.79717355225E+00  0.34345111360E+01  0.42867201616E+01  0.00000000000E+00 0.  1.
</event>
<event>
 7    1  0.2834226E-010  0.4778726E+02  0.7816164E-02  0.1312668E+00
        -11   -1    0    0    0    0  0.00000000000E+00  0.00000000000E+00  0.45593999997E+02  0.45594000000E+02  0.51100000000E-03 0. -1.
         11   -1    0    0    0    0 -0.00000000000E+00 -0.00000000000E+00 -0.45593999997E+02  0.45594000000E+02  0.51100000000E-03 0.  1.
    9900012    2    1    2    0    0  0.18300938964E+02 -0.36795729145E+02  0.13956138088E+02  0.47787264516E+02  0.19999970233E+02 0.  0.
        -12    1    1    2    0    0 -0.18300938964E+02  0.36795729145E+02 -0.13956138088E+02  0.43400735484E+02  0.00000000000E+00 0.  1.
         11    1    3    3    0    0 -0.32693168114E+01 -0.52108203080E+01  0.57645845204E+01  0.84303923782E+01  0.51100000000E-03 0. -1.
        -11    1    3    3    0    0  0.72296500331E+01 -0.93227628687E+01  0.61709360946E+00  0.11813659547E+02  0.51100000000E-03 0.  1.
         12    1    3    3    0    0  0.14340605742E+02 -0.22262145968E+02  0.75744599585E+01  0.27543212591E+02  0.00000000000E+00 0. -1.
</event>
<event>
 7    1  0.2834226E-010  0.4778727E+02  0.7816164E-02  0.1312668E+00
        -11   -1    0    0    0    0  0.00000000000E+00  0.00000000000E+00  0.45593999997E+02  0.45594000000E+02  0.51100000000E-03 0.  1.
         11   -1    0    0    0    0 -0.00000000000E+00 -0.00000000000E+00 -0.45593999997E+02  0.45594000000E+02  0.51100000000E-03 0. -1.
    9900012    2    1    2    0    0  0.22977963629E+02 -0.47306299202E+01 -0.36513799569E+02  0.47787271539E+02  0.20000002257E+02 0.  0.
        -12    1    1    2    0    0 -0.22977963629E+02  0.47306299202E+01  0.36513799569E+02  0.43400728461E+02  0.00000000000E+00 0.  1.
         11    1    3    3    0    0  0.16952631255E+02  0.98473482208E+00 -0.22332021175E+02  0.28054956410E+02  0.51100000000E-03 0. -1.
        -11    1    3    3    0    0 -0.56117903739E+00 -0.69702988000E+01 -0.78010800953E+01  0.10476489784E+02  0.51100000000E-03 0.  1.
        -12    1    3    3    0    0  0.65865114108E+01  0.12549340577E+01 -0.63806982985E+01  0.92558253458E+01  0.00000000000E+00 0.  1.
</event>
<event>
 7    1  0.2834226E-010  0.4778727E+02  0.7816164E-02  0.1312668E+00
        -11   -1    0    0    0    0  0.00000000000E+00  0.00000000000E+00  0.45593999997E+02  0.45594000000E+02  0.51100000000E-03 0.  1.
         11   -1    0    0    0    0 -0.00000000000E+00 -0.00000000000E+00 -0.45593999997E+02  0.45594000000E+02  0.51100000000E-03 0. -1.
    9900012    2    1    2    0    0  0.34905225400E+02  0.11492934901E+02 -0.23090274490E+02  0.47787273176E+02  0.20000009717E+02 0.  0.
        -12    1    1    2    0    0 -0.34905225400E+02 -0.11492934901E+02  0.23090274490E+02  0.43400726824E+02  0.00000000000E+00 0.  1.
         11    1    3    3    0    0 -0.28465732653E+00  0.69973751604E+00 -0.71164187748E+01  0.71564012482E+01  0.51100000000E-03 0. -1.
        -11    1    3    3    0    0  0.33165534989E+02  0.11073184371E+02 -0.16271104945E+02  0.38565748789E+02  0.51100000000E-03 0.  1.
        -12    1    3    3    0    0  0.20243477373E+01 -0.27998698615E+00  0.29724922980E+00  0.20651231388E+01  0.00000000000E+00 0.  1.
</event>
<event>
 7    1  0.2834226E-010  0.4778727E+02  0.7816164E-02  0.1312668E+00
        -11   -1    0    0    0    0  0.00000000000E+00  0.00000000000E+00  0.45593999997E+02  0.45594000000E+02  0.51100000000E-03 0.  1.
         11   -1    0    0    0    0 -0.00000000000E+00 -0.00000000000E+00 -0.45593999997E+02  0.45594000000E+02  0.51100000000E-03 0. -1.
    9900012    2    1    2    0    0  0.15545034597E+02 -0.10306964596E+02 -0.39188538621E+02  0.47787272136E+02  0.20000004979E+02 0.  0.
        -12    1    1    2    0    0 -0.15545034597E+02  0.10306964596E+02  0.39188538621E+02  0.43400727864E+02  0.00000000000E+00 0.  1.
         11    1    3    3    0    0  0.66656019242E+01  0.26848361782E+01 -0.16448247410E+02  0.17949469002E+02  0.51100000000E-03 0. -1.
        -11    1    3    3    0    0  0.53251789086E+01  0.38765202191E+00 -0.48191289395E+01  0.71924827769E+01  0.51100000000E-03 0.  1.
         12    1    3    3    0    0  0.35542537640E+01 -0.13379452796E+02 -0.17921162272E+02  0.22645320358E+02  0.00000000000E+00 0. -1.
</event>
<event>
 7    1  0.2834226E-010  0.4778727E+02  0.7816164E-02  0.1312668E+00
        -11   -1    0    0    0    0  0.00000000000E+00  0.00000000000E+00  0.45593999997E+02  0.45594000000E+02  0.51100000000E-03 0.  1.
         11   -1    0    0    0    0 -0.00000000000E+00 -0.00000000000E+00 -0.45593999997E+02  0.45594000000E+02  0.51100000000E-03 0. -1.
    9900012    2    1    2    0    0  0.34001652611E+02 -0.92607352910E+01 -0.25332788227E+02  0.47787265470E+02  0.19999974582E+02 0.  0.
        -12    1    1    2    0    0 -0.34001652611E+02  0.92607352910E+01  0.25332788227E+02  0.43400734530E+02  0.00000000000E+00 0.  1.
         11    1    3    3    0    0  0.20599822167E+02 -0.24608365631E+01 -0.13071584380E+02  0.24520903498E+02  0.51100000000E-03 0. -1.
        -11    1    3    3    0    0  0.60813381152E+01 -0.93304191650E+01 -0.10535572017E+02  0.15330938427E+02  0.51100000000E-03 0.  1.
        -12    1    3    3    0    0  0.73204923294E+01  0.25305204371E+01 -0.17256318308E+01  0.79354235453E+01  0.00000000000E+00 0.  1.
</event>
<event>
 7    1  0.2834226E-010  0.4778727E+02  0.7816164E-02  0.1312668E+00
        -11   -1    0    0    0    0  0.00000000000E+00  0.00000000000E+00  0.45593999997E+02  0.45594000000E+02  0.51100000000E-03 0.  1.
         11   -1    0    0    0    0 -0.00000000000E+00 -0.00000000000E+00 -0.45593999997E+02  0.45594000000E+02  0.51100000000E-03 0. -1.
    9900012    2    1    2    0    0  0.48111008558E+01  0.16452509478E+02 -0.39872187688E+02  0.47787272926E+02  0.20000008577E+02 0.  0.
        -12    1    1    2    0    0 -0.48111008558E+01 -0.16452509478E+02  0.39872187688E+02  0.43400727074E+02  0.00000000000E+00 0.  1.
         11    1    3    3    0    0 -0.89979167057E+00  0.26870684867E+01 -0.23511661592E+02  0.23681811442E+02  0.51100000000E-03 0. -1.
        -11    1    3    3    0    0  0.26672407552E+01  0.13144975861E+02 -0.16147981378E+02  0.20991947658E+02  0.51100000000E-03 0.  1.
         12    1    3    3    0    0  0.30436517712E+01  0.62046513035E+00 -0.21254471767E+00  0.31135138251E+01  0.00000000000E+00 0. -1.
</event>
<event>
 7    1  0.2834226E-010  0.4778728E+02  0.7816164E-02  0.1312668E+00
        -11   -1    0    0    0    0  0.00000000000E+00  0.00000000000E+00  0.45593999997E+02  0.45594000000E+02  0.51100000000E-03 0.  1.
         11   -1    0    0    0    0 -0.00000000000E+00 -0.00000000000E+00 -0.45593999997E+02  0.45594000000E+02  0.51100000000E-03 0. -1.
    9900012    2    1    2    0    0  0.21162974789E+02 -0.13026308127E+02 -0.35581820842E+02  0.47787283649E+02  0.20000057468E+02 0.  0.
        -12    1    1    2    0    0 -0.21162974789E+02  0.13026308127E+02  0.35581820842E+02  0.43400716351E+02  0.00000000000E+00 0.  1.
         11    1    3    3    0    0  0.17589490098E+02 -0.66728851536E+01 -0.32648797178E+02  0.37681049821E+02  0.51100000000E-03 0. -1.
        -11    1    3    3    0    0  0.13512372788E+01  0.11340729579E+01 -0.20512216262E-02  0.17640771316E+01  0.51100000000E-03 0.  1.
         12    1    3    3    0    0  0.22222474125E+01 -0.74874959315E+01 -0.29309724429E+01  0.83421566964E+01  0.00000000000E+00 0. -1.
</event>
<event>
 7    1  0.2834226E-010  0.4778727E+02  0.7816164E-02  0.1312668E+00
        -11   -1    0    0    0    0  0.00000000000E+00  0.00000000000E+00  0.45593999997E+02  0.45594000000E+02  0.51100000000E-03 0. -1.
         11   -1    0    0    0    0 -0.00000000000E+00 -0.00000000000E+00 -0.45593999997E+02  0.45594000000E+02  0.51100000000E-03 0.  1.
    9900012    2    1    2    0    0 -0.32137401278E+02 -0.27037362512E+01  0.29043079004E+02  0.47787272026E+02  0.20000004476E+02 0.  0.
        -12    1    1    2    0    0  0.32137401278E+02  0.27037362512E+01 -0.29043079004E+02  0.43400727974E+02  0.00000000000E+00 0.  1.
         11    1    3    3    0    0 -0.18688372443E+02  0.40270981943E+01  0.23451382265E+02  0.30256240924E+02  0.51100000000E-03 0. -1.
        -11    1    3    3    0    0 -0.10248205470E+02 -0.15847092249E+01  0.22532115616E+01  0.10611973487E+02  0.51100000000E-03 0.  1.
         12    1    3    3    0    0 -0.32008233642E+01 -0.51461252206E+01  0.33384851776E+01  0.69190576147E+01  0.00000000000E+00 0. -1.
</event>
<event>
 7    1  0.2834226E-010  0.4778727E+02  0.7816164E-02  0.1312668E+00
        -11   -1    0    0    0    0  0.00000000000E+00  0.00000000000E+00  0.45593999997E+02  0.45594000000E+02  0.51100000000E-03 0.  1.
         11   -1    0    0    0    0 -0.00000000000E+00 -0.00000000000E+00 -0.45593999997E+02  0.45594000000E+02  0.51100000000E-03 0. -1.
    9900012    2    1    2    0    0 -0.40360144019E+01 -0.14524312539E+02 -0.40698631044E+02  0.47787266874E+02  0.19999980987E+02 0.  0.
        -12    1    1    2    0    0  0.40360144019E+01  0.14524312539E+02  0.40698631044E+02  0.43400733126E+02  0.00000000000E+00 0.  1.
         11    1    3    3    0    0 -0.92346968016E+01 -0.77905426444E+01 -0.13794852827E+02  0.18337670094E+02  0.51100000000E-03 0. -1.
        -11    1    3    3    0    0  0.19223285874E+01  0.18928107373E+01 -0.49998804453E+01  0.56812748933E+01  0.51100000000E-03 0.  1.
         12    1    3    3    0    0  0.32763538124E+01 -0.86265806322E+01 -0.21903897772E+02  0.23768321887E+02  0.00000000000E+00 0. -1.
</event>
<event>
 7    1  0.2834226E-010  0.4778727E+02  0.7816164E-02  0.1312668E+00
        -11   -1    0    0    0    0  0.00000000000E+00  0.00000000000E+00  0.45593999997E+02  0.45594000000E+02  0.51100000000E-03 0.  1.
         11   -1    0    0    0    0 -0.00000000000E+00 -0.00000000000E+00 -0.45593999997E+02  0.45594000000E+02  0.51100000000E-03 0. -1.
    9900012    2    1    2    0    0  0.37082272897E+00  0.11488911628E+02 -0.41850815006E+02  0.47787270553E+02  0.19999997758E+02 0.  0.
        -12    1    1    2    0    0 -0.37082272897E+00 -0.11488911628E+02  0.41850815006E+02  0.43400729447E+02  0.00000000000E+00 0.  1.
         11    1    3    3    0    0 -0.62677930919E+01  0.27284856277E+01 -0.16506096128E+02  0.17865639471E+02  0.51100000000E-03 0. -1.
        -11    1    3    3    0    0 -0.24352049947E+01  0.55260736027E+01 -0.73676166187E+01  0.95262525543E+01  0.51100000000E-03 0.  1.
         12    1    3    3    0    0  0.90738208156E+01  0.32343523978E+01 -0.17977102259E+02  0.20395378527E+02  0.00000000000E+00 0. -1.
</event>
<event>
 7    1  0.2834226E-010  0.4778727E+02  0.7816164E-02  0.1312668E+00
        -11   -1    0    0    0    0  0.00000000000E+00  0.00000000000E+00  0.45593999997E+02  0.45594000000E+02  0.51100000000E-03 0.  1.
         11   -1    0    0    0    0 -0.00000000000E+00 -0.00000000000E+00 -0.45593999997E+02  0.45594000000E+02  0.51100000000E-03 0. -1.
    9900012    2    1    2    0    0 -0.73762324034E+01  0.89830328504E+01 -0.41815303495E+02  0.47787270858E+02  0.19999999151E+02 0.  0.
        -12    1    1    2    0    0  0.73762324034E+01 -0.89830328504E+01  0.41815303495E+02  0.43400729142E+02  0.00000000000E+00 0.  1.
         11    1    3    3    0    0 -0.50902854064E+01  0.10318842835E+02 -0.26572007260E+02  0.28956192654E+02  0.51100000000E-03 0. -1.
        -11    1    3    3    0    0  0.36830179855E+01 -0.25621441654E+01 -0.38562145043E+01  0.59160455348E+01  0.51100000000E-03 0.  1.
         12    1    3    3    0    0 -0.59689649826E+01  0.12263341805E+01 -0.11387081731E+02  0.12915032669E+02  0.00000000000E+00 0. -1.
</event>
<event>
 7    1  0.2834226E-010  0.4778727E+02  0.7816164E-02  0.1312668E+00
        -11   -1    0    0    0    0  0.00000000000E+00  0.00000000000E+00  0.45593999997E+02  0.45594000000E+02  0.51100000000E-03 0.  1.
         11   -1    0    0    0    0 -0.00000000000E+00 -0.00000000000E+00 -0.45593999997E+02  0.45594000000E+02  0.51100000000E-03 0. -1.
    9900012    2    1    2    0    0 -0.34456274151E+01 -0.19607673421E+02 -0.38565401048E+02  0.47787270015E+02  0.19999995305E+02 0.  0.
        -12    1    1    2    0    0  0.34456274151E+01  0.19607673421E+02  0.38565401048E+02  0.43400729985E+02  0.00000000000E+00 0.  1.
         11    1    3    3    0    0 -0.49552314960E+01 -0.90881382540E+01 -0.12195236329E+02  0.15996010924E+02  0.51100000000E-03 0. -1.
        -11    1    3    3    0    0  0.92094948006E+00 -0.78804234554E+00  0.16933890779E+01  0.20824806154E+01  0.51100000000E-03 0.  1.
        -12    1    3    3    0    0  0.58865460089E+00 -0.97314928210E+01 -0.28063553797E+02  0.29708778476E+02  0.00000000000E+00 0.  1.
</event>
<event>
 7    1  0.2834226E-010  0.4778727E+02  0.7816164E-02  0.1312668E+00
        -11   -1    0    0    0    0  0.00000000000E+00  0.00000000000E+00  0.45593999997E+02  0.45594000000E+02  0.51100000000E-03 0.  1.
         11   -1    0    0    0    0 -0.00000000000E+00 -0.00000000000E+00 -0.45593999997E+02  0.45594000000E+02  0.51100000000E-03 0. -1.
    9900012    2    1    2    0    0  0.28099672762E+02  0.16349196096E+02 -0.28753012600E+02  0.47787267795E+02  0.19999985186E+02 0.  0.
        -12    1    1    2    0    0 -0.28099672762E+02 -0.16349196096E+02  0.28753012600E+02  0.43400732205E+02  0.00000000000E+00 0.  1.
         11    1    3    3    0    0  0.35147831372E+01  0.16193113509E+01 -0.70807883630E+01  0.80692895509E+01  0.51100000000E-03 0. -1.
        -11    1    3    3    0    0  0.87246527691E+01  0.13775372608E+02 -0.16006106011E+02  0.22848979984E+02  0.51100000000E-03 0.  1.
        -12    1    3    3    0    0  0.15860236856E+02  0.95451213697E+00 -0.56661182258E+01  0.16868998260E+02  0.00000000000E+00 0.  1.
</event>
<event>
 7    1  0.2834226E-010  0.4778727E+02  0.7816164E-02  0.1312668E+00
        -11   -1    0    0    0    0  0.00000000000E+00  0.00000000000E+00  0.45593999997E+02  0.45594000000E+02  0.51100000000E-03 0. -1.
         11   -1    0    0    0    0 -0.00000000000E+00 -0.00000000000E+00 -0.45593999997E+02  0.45594000000E+02  0.51100000000E-03 0.  1.
    9900012    2    1    2    0    0  0.18606906463E+02 -0.26151605754E+02  0.29214717730E+02  0.47787272083E+02  0.20000004736E+02 0.  0.
        -12    1    1    2    0    0 -0.18606906463E+02  0.26151605754E+02 -0.29214717730E+02  0.43400727917E+02  0.00000000000E+00 0.  1.
         11    1    3    3    0    0  0.11867838456E+02 -0.95036084121E+01  0.40630710528E+01  0.15737620821E+02  0.51100000000E-03 0. -1.
        -11    1    3    3    0    0  0.57599910114E+00 -0.87983010999E+01  0.17051005996E+02  0.19195798576E+02  0.51100000000E-03 0.  1.
        -12    1    3    3    0    0  0.61630689060E+01 -0.78496962423E+01  0.81006406813E+01  0.12853852686E+02  0.00000000000E+00 0.  1.
</event>
<event>
 7    1  0.2834226E-010  0.4778727E+02  0.7816164E-02  0.1312668E+00
        -11   -1    0    0    0    0  0.00000000000E+00  0.00000000000E+00  0.45593999997E+02  0.45594000000E+02  0.51100000000E-03 0.  1.
         11   -1    0    0    0    0 -0.00000000000E+00 -0.00000000000E+00 -0.45593999997E+02  0.45594000000E+02  0.51100000000E-03 0. -1.
    9900012    2    1    2    0    0  0.21247946253E+02 -0.33128252547E+02 -0.18293902792E+02  0.47787271709E+02  0.20000003032E+02 0.  0.
        -12    1    1    2    0    0 -0.21247946253E+02  0.33128252547E+02  0.18293902792E+02  0.43400728291E+02  0.00000000000E+00 0.  1.
         11    1    3    3    0    0  0.66942862749E+01 -0.12894032337E+02 -0.80319083453E+01  0.16600635246E+02  0.51100000000E-03 0. -1.
        -11    1    3    3    0    0  0.65725452816E+01 -0.17368181451E+01  0.26075060865E+01  0.72810697703E+01  0.51100000000E-03 0.  1.
        -12    1    3    3    0    0  0.79811146969E+01 -0.18497402064E+02 -0.12869500533E+02  0.23905566693E+02  0.00000000000E+00 0.  1.
</event>
<event>
 7    1  0.2834226E-010  0.4778727E+02  0.7816164E-02  0.1312668E+00
        -11   -1    0    0    0    0  0.00000000000E+00  0.00000000000E+00  0.45593999997E+02  0.45594000000E+02  0.51100000000E-03 0.  1.
         11   -1    0    0    0    0 -0.00000000000E+00 -0.00000000000E+00 -0.45593999997E+02  0.45594000000E+02  0.51100000000E-03 0. -1.
    9900012    2    1    2    0    0 -0.32691815771E+02 -0.14352377142E+02 -0.24675445855E+02  0.47787272170E+02  0.20000005134E+02 0.  0.
        -12    1    1    2    0    0  0.32691815771E+02  0.14352377142E+02  0.24675445855E+02  0.43400727830E+02  0.00000000000E+00 0.  1.
         11    1    3    3    0    0 -0.13500258502E+02 -0.15983314803E+02 -0.14230190364E+02  0.25302601640E+02  0.51100000000E-03 0. -1.
        -11    1    3    3    0    0 -0.18522554015E+02  0.42888977193E+00 -0.98818583109E+01  0.20998097000E+02  0.51100000000E-03 0.  1.
         12    1    3    3    0    0 -0.66900325317E+00  0.12020478883E+01 -0.56339717931E+00  0.14865735300E+01  0.00000000000E+00 0. -1.
</event>
<event>
 7    1  0.2834226E-010  0.4778727E+02  0.7816164E-02  0.1312668E+00
        -11   -1    0    0    0    0  0.00000000000E+00  0.00000000000E+00  0.45593999997E+02  0.45594000000E+02  0.51100000000E-03 0.  1.
         11   -1    0    0    0    0 -0.00000000000E+00 -0.00000000000E+00 -0.45593999997E+02  0.45594000000E+02  0.51100000000E-03 0. -1.
    9900012    2    1    2    0    0 -0.12177839008E+01  0.39167969631E+02 -0.18655044860E+02  0.47787267962E+02  0.19999985947E+02 0.  0.
        -12    1    1    2    0    0  0.12177839008E+01 -0.39167969631E+02  0.18655044860E+02  0.43400732038E+02  0.00000000000E+00 0.  1.
         11    1    3    3    0    0 -0.87240066256E+00  0.37237166333E+02 -0.17638406111E+02  0.41212631678E+02  0.51100000000E-03 0. -1.
        -11    1    3    3    0    0 -0.45000090972E+00  0.90273313441E+00  0.26129107902E+01  0.28008446921E+01  0.51100000000E-03 0.  1.
         12    1    3    3    0    0  0.10461767147E+00  0.10280701639E+01 -0.36295495399E+01  0.37737915922E+01  0.00000000000E+00 0. -1.
</event>
<event>
 7    1  0.2834226E-010  0.4778727E+02  0.7816164E-02  0.1312668E+00
        -11   -1    0    0    0    0  0.00000000000E+00  0.00000000000E+00  0.45593999997E+02  0.45594000000E+02  0.51100000000E-03 0.  1.
         11   -1    0    0    0    0 -0.00000000000E+00 -0.00000000000E+00 -0.45593999997E+02  0.45594000000E+02  0.51100000000E-03 0. -1.
    9900012    2    1    2    0    0  0.29056602511E+01  0.15055122083E+01 -0.43277176362E+02  0.47787269333E+02  0.19999992198E+02 0.  0.
        -12    1    1    2    0    0 -0.29056602511E+01 -0.15055122083E+01  0.43277176362E+02  0.43400730667E+02  0.00000000000E+00 0.  1.
         11    1    3    3    0    0 -0.16184964738E+01  0.15917952421E+01 -0.63311663577E+00  0.23567307576E+01  0.51100000000E-03 0. -1.
        -11    1    3    3    0    0  0.58508617324E+01 -0.63199351192E+01 -0.17684985813E+02  0.19670609711E+02  0.51100000000E-03 0.  1.
        -12    1    3    3    0    0 -0.13267050076E+01  0.62336520854E+01 -0.24959073913E+02  0.25759928865E+02  0.00000000000E+00 0.  1.
</event>
<event>
 7    1  0.2834226E-010  0.4778727E+02  0.7816164E-02  0.1312668E+00
        -11   -1    0    0    0    0  0.00000000000E+00  0.00000000000E+00  0.45593999997E+02  0.45594000000E+02  0.51100000000E-03 0.  1.
         11   -1    0    0    0    0 -0.00000000000E+00 -0.00000000000E+00 -0.45593999997E+02  0.45594000000E+02  0.51100000000E-03 0. -1.
    9900012    2    1    2    0    0 -0.15937492529E+02  0.40359390428E+02  0.85982283746E+00  0.47787270062E+02  0.19999995521E+02 0.  0.
        -12    1    1    2    0    0  0.15937492529E+02 -0.40359390428E+02 -0.85982283746E+00  0.43400729938E+02  0.00000000000E+00 0.  1.
         11    1    3    3    0    0 -0.18000849333E+02  0.25283537569E+02 -0.32707399955E+01  0.31208742190E+02  0.51100000000E-03 0. -1.
        -11    1    3    3    0    0  0.30795312844E+01  0.10275497972E+02  0.45537438323E+01  0.11653581194E+02  0.51100000000E-03 0.  1.
         12    1    3    3    0    0 -0.10161744804E+01  0.48003548877E+01 -0.42318099937E+00  0.49249466780E+01  0.00000000000E+00 0. -1.
</event>
<event>
 7    1  0.2834226E-010  0.4778727E+02  0.7816164E-02  0.1312668E+00
        -11   -1    0    0    0    0  0.00000000000E+00  0.00000000000E+00  0.45593999997E+02  0.45594000000E+02  0.51100000000E-03 0.  1.
         11   -1    0    0    0    0 -0.00000000000E+00 -0.00000000000E+00 -0.45593999997E+02  0.45594000000E+02  0.51100000000E-03 0. -1.
    9900012    2    1    2    0    0  0.14477405712E+02 -0.12914008708E+02 -0.38823398533E+02  0.47787272233E+02  0.20000005419E+02 0.  0.
        -12    1    1    2    0    0 -0.14477405712E+02  0.12914008708E+02  0.38823398533E+02  0.43400727767E+02  0.00000000000E+00 0.  1.
         11    1    3    3    0    0  0.13249200444E+02 -0.17060598399E+02 -0.28599949690E+02  0.35840793136E+02  0.51100000000E-03 0. -1.
        -11    1    3    3    0    0 -0.89148673944E+00  0.31315787131E+01 -0.33037457612E+01  0.46385633723E+01  0.51100000000E-03 0.  1.
         12    1    3    3    0    0  0.21196920072E+01  0.10150109773E+01 -0.69197030819E+01  0.73079157242E+01  0.00000000000E+00 0. -1.
</event>
<event>
 7    1  0.2834226E-010  0.4778727E+02  0.7816164E-02  0.1312668E+00
        -11   -1    0    0    0    0  0.00000000000E+00  0.00000000000E+00  0.45593999997E+02  0.45594000000E+02  0.51100000000E-03 0.  1.
         11   -1    0    0    0    0 -0.00000000000E+00 -0.00000000000E+00 -0.45593999997E+02  0.45594000000E+02  0.51100000000E-03 0. -1.
    9900012    2    1    2    0    0 -0.68741560751E+01 -0.23158573832E+02 -0.36056203667E+02  0.47787269747E+02  0.19999994083E+02 0.  0.
        -12    1    1    2    0    0  0.68741560751E+01  0.23158573832E+02  0.36056203667E+02  0.43400730253E+02  0.00000000000E+00 0.  1.
         11    1    3    3    0    0 -0.22048739261E+01 -0.10655451870E+02 -0.28284532430E+02  0.30305360889E+02  0.51100000000E-03 0. -1.
        -11    1    3    3    0    0 -0.31188624749E+01 -0.34845192784E+01  0.10262387439E+01  0.47877284759E+01  0.51100000000E-03 0.  1.
        -12    1    3    3    0    0 -0.15504196742E+01 -0.90186026834E+01 -0.87979099806E+01  0.12694180381E+02  0.00000000000E+00 0.  1.
</event>
<event>
 7    1  0.2834226E-010  0.4778727E+02  0.7816164E-02  0.1312668E+00
        -11   -1    0    0    0    0  0.00000000000E+00  0.00000000000E+00  0.45593999997E+02  0.45594000000E+02  0.51100000000E-03 0.  1.
         11   -1    0    0    0    0 -0.00000000000E+00 -0.00000000000E+00 -0.45593999997E+02  0.45594000000E+02  0.51100000000E-03 0. -1.
    9900012    2    1    2    0    0 -0.25422246473E+02 -0.33924246715E+02 -0.92993536335E+01  0.47787272945E+02  0.20000008668E+02 0.  0.
        -12    1    1    2    0    0  0.25422246473E+02  0.33924246715E+02  0.92993536335E+01  0.43400727055E+02  0.00000000000E+00 0.  1.
         11    1    3    3    0    0 -0.73548828593E+01 -0.19511893533E+02 -0.46829949888E+01  0.21371446686E+02  0.51100000000E-03 0. -1.
        -11    1    3    3    0    0 -0.10804603595E+02 -0.69052122558E+01  0.33804887122E+01  0.13260811413E+02  0.51100000000E-03 0.  1.
        -12    1    3    3    0    0 -0.72627600184E+01 -0.75071409257E+01 -0.79968473569E+01  0.13155014847E+02  0.00000000000E+00 0.  1.
</event>
<event>
 7    1  0.2834226E-010  0.4778727E+02  0.7816164E-02  0.1312668E+00
        -11   -1    0    0    0    0  0.00000000000E+00  0.00000000000E+00  0.45593999997E+02  0.45594000000E+02  0.51100000000E-03 0.  1.
         11   -1    0    0    0    0 -0.00000000000E+00 -0.00000000000E+00 -0.45593999997E+02  0.45594000000E+02  0.51100000000E-03 0. -1.
    9900012    2    1    2    0    0 -0.76683626851E+01 -0.48926441126E+01 -0.42436796311E+02  0.47787269202E+02  0.19999991599E+02 0.  0.
        -12    1    1    2    0    0  0.76683626851E+01  0.48926441126E+01  0.42436796311E+02  0.43400730798E+02  0.00000000000E+00 0.  1.
         11    1    3    3    0    0 -0.26344152522E+01  0.16236523929E+01 -0.13613722532E+02  0.13961011147E+02  0.51100000000E-03 0. -1.
        -11    1    3    3    0    0  0.21351023920E+01 -0.30679305924E+00  0.11104711619E+01  0.24260937055E+01  0.51100000000E-03 0.  1.
        -12    1    3    3    0    0 -0.71690498248E+01 -0.62095034462E+01 -0.29933544941E+02  0.31400164349E+02  0.00000000000E+00 0.  1.
</event>
<event>
 7    1  0.2834226E-010  0.4778727E+02  0.7816164E-02  0.1312668E+00
        -11   -1    0    0    0    0  0.00000000000E+00  0.00000000000E+00  0.45593999997E+02  0.45594000000E+02  0.51100000000E-03 0. -1.
         11   -1    0    0    0    0 -0.00000000000E+00 -0.00000000000E+00 -0.45593999997E+02  0.45594000000E+02  0.51100000000E-03 0.  1.
    9900012    2    1    2    0    0 -0.40749273614E+02  0.14370901685E+02  0.40739893008E+01  0.47787268392E+02  0.19999987906E+02 0.  0.
        -12    1    1    2    0    0  0.40749273614E+02 -0.14370901685E+02 -0.40739893008E+01  0.43400731608E+02  0.00000000000E+00 0.  1.
         11    1    3    3    0    0 -0.36232736470E+01  0.36680093584E+01  0.65540789024E+01  0.83389660687E+01  0.51100000000E-03 0. -1.
        -11    1    3    3    0    0 -0.12286573155E+02  0.18036288505E+01 -0.39236250890E+01  0.13023355598E+02  0.51100000000E-03 0.  1.
         12    1    3    3    0    0 -0.24839426812E+02  0.88992634764E+01  0.14435354874E+01  0.26424946726E+02  0.00000000000E+00 0. -1.
</event>
<event>
 7    1  0.2834226E-010  0.4778727E+02  0.7816164E-02  0.1312668E+00
        -11   -1    0    0    0    0  0.00000000000E+00  0.00000000000E+00  0.45593999997E+02  0.45594000000E+02  0.51100000000E-03 0. -1.
         11   -1    0    0    0    0 -0.00000000000E+00 -0.00000000000E+00 -0.45593999997E+02  0.45594000000E+02  0.51100000000E-03 0.  1.
    9900012    2    1    2    0    0  0.37590388542E+02 -0.21055676653E+02 -0.52196094949E+01  0.47787272433E+02  0.20000006332E+02 0.  0.
        -12    1    1    2    0    0 -0.37590388542E+02  0.21055676653E+02  0.52196094949E+01  0.43400727567E+02  0.00000000000E+00 0.  1.
         11    1    3    3    0    0  0.30240975914E+02 -0.14649354829E+02 -0.70960940774E+01  0.34343482243E+02  0.51100000000E-03 0. -1.
        -11    1    3    3    0    0  0.85605573025E+00 -0.54838860837E+01 -0.19111261945E+01  0.58701142735E+01  0.51100000000E-03 0.  1.
        -12    1    3    3    0    0  0.64933568979E+01 -0.92243574018E+00  0.37876107770E+01  0.75736759171E+01  0.00000000000E+00 0.  1.
</event>
<event>
 7    1  0.2834226E-010  0.4778728E+02  0.7816164E-02  0.1312668E+00
        -11   -1    0    0    0    0  0.00000000000E+00  0.00000000000E+00  0.45593999997E+02  0.45594000000E+02  0.51100000000E-03 0.  1.
         11   -1    0    0    0    0 -0.00000000000E+00 -0.00000000000E+00 -0.45593999997E+02  0.45594000000E+02  0.51100000000E-03 0. -1.
    9900012    2    1    2    0    0  0.73632430177E+01  0.12384027458E+02 -0.40939477916E+02  0.47787281851E+02  0.20000049272E+02 0.  0.
        -12    1    1    2    0    0 -0.73632430177E+01 -0.12384027458E+02  0.40939477916E+02  0.43400718149E+02  0.00000000000E+00 0.  1.
         11    1    3    3    0    0  0.54703533126E+01  0.55502264121E+01 -0.22622528077E+02  0.23927151010E+02  0.51100000000E-03 0. -1.
        -11    1    3    3    0    0  0.34548745360E+01 -0.25321859772E+01 -0.14831193322E+01  0.45329644933E+01  0.51100000000E-03 0.  1.
        -12    1    3    3    0    0 -0.15619848310E+01  0.93659870228E+01 -0.16833830506E+02  0.19327166348E+02  0.00000000000E+00 0.  1.
</event>
<event>
 7    1  0.2834226E-010  0.4778727E+02  0.7816164E-02  0.1312668E+00
        -11   -1    0    0    0    0  0.00000000000E+00  0.00000000000E+00  0.45593999997E+02  0.45594000000E+02  0.51100000000E-03 0.  1.
         11   -1    0    0    0    0 -0.00000000000E+00 -0.00000000000E+00 -0.45593999997E+02  0.45594000000E+02  0.51100000000E-03 0. -1.
    9900012    2    1    2    0    0  0.38569733888E+02 -0.12826437407E+02 -0.15214527257E+02  0.47787266039E+02  0.19999977179E+02 0.  0.
        -12    1    1    2    0    0 -0.38569733888E+02  0.12826437407E+02  0.15214527257E+02  0.43400733961E+02  0.00000000000E+00 0.  1.
         11    1    3    3    0    0  0.25360615637E+02 -0.70101432518E+01 -0.84677141529E+01  0.27640642488E+02  0.51100000000E-03 0. -1.
        -11    1    3    3    0    0  0.39105253841E+01 -0.37524705944E+01 -0.88637067403E+01  0.10389347515E+02  0.51100000000E-03 0.  1.
        -12    1    3    3    0    0  0.92985928668E+01 -0.20638235604E+01  0.21168936367E+01  0.97572760368E+01  0.00000000000E+00 0.  1.
</event>
<event>
 7    1  0.2834226E-010  0.4778727E+02  0.7816164E-02  0.1312668E+00
        -11   -1    0    0    0    0  0.00000000000E+00  0.00000000000E+00  0.45593999997E+02  0.45594000000E+02  0.51100000000E-03 0. -1.
         11   -1    0    0    0    0 -0.00000000000E+00 -0.00000000000E+00 -0.45593999997E+02  0.45594000000E+02  0.51100000000E-03 0.  1.
    9900012    2    1    2    0    0 -0.29906252196E+02  0.20829775165E+02  0.23566073344E+02  0.47787271127E+02  0.20000000377E+02 0.  0.
        -12    1    1    2    0    0  0.29906252196E+02 -0.20829775165E+02 -0.23566073344E+02  0.43400728873E+02  0.00000000000E+00 0.  1.
         11    1    3    3    0    0 -0.81333532282E+01  0.53586753569E+01  0.36527116300E+01  0.10402362175E+02  0.51100000000E-03 0. -1.
        -11    1    3    3    0    0 -0.87638826619E+01  0.16069795621E+02  0.90162452169E+01  0.20404329165E+02  0.51100000000E-03 0.  1.
        -12    1    3    3    0    0 -0.13009016306E+02 -0.59869581282E+00  0.10897116498E+02  0.16980579786E+02  0.00000000000E+00 0.  1.
</event>
<event>
 7    1  0.2834226E-010  0.4778727E+02  0.7816164E-02  0.1312668E+00
        -11   -1    0    0    0    0  0.00000000000E+00  0.00000000000E+00  0.45593999997E+02  0.45594000000E+02  0.51100000000E-03 0.  1.
         11   -1    0    0    0    0 -0.00000000000E+00 -0.00000000000E+00 -0.45593999997E+02  0.45594000000E+02  0.51100000000E-03 0. -1.
    9900012    2    1    2    0    0  0.23809154635E+02  0.33243222405E+02 -0.14547706241E+02  0.47787269163E+02  0.19999991420E+02 0.  0.
        -12    1    1    2    0    0 -0.23809154635E+02 -0.33243222405E+02  0.14547706241E+02  0.43400730837E+02  0.00000000000E+00 0.  1.
         11    1    3    3    0    0  0.37470121766E+01  0.64875064555E+01 -0.11633573538E+02  0.13837191687E+02  0.51100000000E-03 0. -1.
        -11    1    3    3    0    0  0.15780811045E+02  0.17378564401E+02 -0.28031276776E+01  0.23641193348E+02  0.51100000000E-03 0.  1.
         12    1    3    3    0    0  0.42813314138E+01  0.93771515490E+01 -0.11100502577E+00  0.10308884128E+02  0.00000000000E+00 0. -1.
</event>
<event>
 7    1  0.2834226E-010  0.4778727E+02  0.7816164E-02  0.1312668E+00
        -11   -1    0    0    0    0  0.00000000000E+00  0.00000000000E+00  0.45593999997E+02  0.45594000000E+02  0.51100000000E-03 0.  1.
         11   -1    0    0    0    0 -0.00000000000E+00 -0.00000000000E+00 -0.45593999997E+02  0.45594000000E+02  0.51100000000E-03 0. -1.
    9900012    2    1    2    0    0  0.40077176598E+02 -0.12786937665E+02  0.10674148894E+02  0.47787270587E+02  0.19999997916E+02 0.  0.
        -12    1    1    2    0    0 -0.40077176598E+02  0.12786937665E+02 -0.10674148894E+02  0.43400729413E+02  0.00000000000E+00 0.  1.
         11    1    3    3    0    0  0.23880964133E+02 -0.23153838627E+00  0.44600786219E+01  0.24294986304E+02  0.51100000000E-03 0. -1.
        -11    1    3    3    0    0  0.10426623267E+02 -0.37923411478E+01  0.67497611237E+01  0.12986747076E+02  0.51100000000E-03 0.  1.
         12    1    3    3    0    0  0.57695891984E+01 -0.87630581306E+01 -0.53569085168E+00  0.10505537207E+02  0.00000000000E+00 0. -1.
</event>
<event>
 7    1  0.2834226E-010  0.4778727E+02  0.7816164E-02  0.1312668E+00
        -11   -1    0    0    0    0  0.00000000000E+00  0.00000000000E+00  0.45593999997E+02  0.45594000000E+02  0.51100000000E-03 0. -1.
         11   -1    0    0    0    0 -0.00000000000E+00 -0.00000000000E+00 -0.45593999997E+02  0.45594000000E+02  0.51100000000E-03 0.  1.
    9900012    2    1    2    0    0 -0.23309420441E+02  0.36562485912E+02  0.18651280380E+01  0.47787272357E+02  0.20000005985E+02 0.  0.
        -12    1    1    2    0    0  0.23309420441E+02 -0.36562485912E+02 -0.18651280380E+01  0.43400727643E+02  0.00000000000E+00 0.  1.
         11    1    3    3    0    0 -0.84306490115E+00  0.12505365845E+02 -0.38580205045E+01  0.13114086160E+02  0.51100000000E-03 0. -1.
        -11    1    3    3    0    0 -0.11254392271E+02  0.17279378062E+02  0.67332650527E+00  0.20632295569E+02  0.51100000000E-03 0.  1.
         12    1    3    3    0    0 -0.11211963269E+02  0.67777420049E+01  0.50498220372E+01  0.14040890628E+02  0.00000000000E+00 0. -1.
</event>
<event>
 7    1  0.2834226E-010  0.4778727E+02  0.7816164E-02  0.1312668E+00
        -11   -1    0    0    0    0  0.00000000000E+00  0.00000000000E+00  0.45593999997E+02  0.45594000000E+02  0.51100000000E-03 0.  1.
         11   -1    0    0    0    0 -0.00000000000E+00 -0.00000000000E+00 -0.45593999997E+02  0.45594000000E+02  0.51100000000E-03 0. -1.
    9900012    2    1    2    0    0  0.33800781682E+02  0.79467226867E+01 -0.26038048969E+02  0.47787271459E+02  0.20000001890E+02 0.  0.
        -12    1    1    2    0    0 -0.33800781682E+02 -0.79467226867E+01  0.26038048969E+02  0.43400728541E+02  0.00000000000E+00 0.  1.
         11    1    3    3    0    0  0.36783215711E+01  0.74719641825E+01 -0.71301819783E+01  0.10963566647E+02  0.51100000000E-03 0.  1.
        -11    1    3    3    0    0  0.27747773253E+02  0.23003420621E+01 -0.14228790056E+02  0.31268018178E+02  0.51100000000E-03 0. -1.
        -12    1    3    3    0    0  0.23746868580E+01 -0.18255835579E+01 -0.46790769354E+01  0.55556866333E+01  0.00000000000E+00 0.  1.
</event>
<event>
 7    1  0.2834226E-010  0.4778727E+02  0.7816164E-02  0.1312668E+00
        -11   -1    0    0    0    0  0.00000000000E+00  0.00000000000E+00  0.45593999997E+02  0.45594000000E+02  0.51100000000E-03 0.  1.
         11   -1    0    0    0    0 -0.00000000000E+00 -0.00000000000E+00 -0.45593999997E+02  0.45594000000E+02  0.51100000000E-03 0. -1.
    9900012    2    1    2    0    0  0.20607276791E+01 -0.29139334025E+02 -0.32097912963E+02  0.47787269561E+02  0.19999993238E+02 0.  0.
        -12    1    1    2    0    0 -0.20607276791E+01  0.29139334025E+02  0.32097912963E+02  0.43400730439E+02  0.00000000000E+00 0.  1.
         11    1    3    3    0    0  0.20971807995E+00 -0.28648357215E+02 -0.33344374501E+02  0.43961570307E+02  0.51100000000E-03 0. -1.
        -11    1    3    3    0    0 -0.72327398991E+00  0.20352381859E+00 -0.21973980151E+00  0.78283654149E+00  0.51100000000E-03 0.  1.
         12    1    3    3    0    0  0.25742835891E+01 -0.69450062903E+00  0.14662013390E+01  0.30428627126E+01  0.00000000000E+00 0. -1.
</event>
<event>
 7    1  0.2834226E-010  0.4778727E+02  0.7816164E-02  0.1312668E+00
        -11   -1    0    0    0    0  0.00000000000E+00  0.00000000000E+00  0.45593999997E+02  0.45594000000E+02  0.51100000000E-03 0.  1.
         11   -1    0    0    0    0 -0.00000000000E+00 -0.00000000000E+00 -0.45593999997E+02  0.45594000000E+02  0.51100000000E-03 0. -1.
    9900012    2    1    2    0    0  0.33407578520E+02 -0.70730564432E+01  0.26786725896E+02  0.47787272883E+02  0.20000008384E+02 0.  0.
        -12    1    1    2    0    0 -0.33407578520E+02  0.70730564432E+01 -0.26786725896E+02  0.43400727117E+02  0.00000000000E+00 0.  1.
         11    1    3    3    0    0  0.31275881444E+02 -0.57558474681E+01  0.20450151387E+02  0.37808983485E+02  0.51100000000E-03 0. -1.
        -11    1    3    3    0    0 -0.12794920930E+01 -0.15917413318E+01  0.62280636029E+01  0.65543509966E+01  0.51100000000E-03 0.  1.
         12    1    3    3    0    0  0.34111891690E+01  0.27453235664E+00  0.10851090674E+00  0.34239384017E+01  0.00000000000E+00 0. -1.
</event>
<event>
 7    1  0.2834226E-010  0.4778727E+02  0.7816164E-02  0.1312668E+00
        -11   -1    0    0    0    0  0.00000000000E+00  0.00000000000E+00  0.45593999997E+02  0.45594000000E+02  0.51100000000E-03 0.  1.
         11   -1    0    0    0    0 -0.00000000000E+00 -0.00000000000E+00 -0.45593999997E+02  0.45594000000E+02  0.51100000000E-03 0. -1.
    9900012    2    1    2    0    0 -0.72258614631E+01 -0.96114738071E+01 -0.41701678840E+02  0.47787268201E+02  0.19999987034E+02 0.  0.
        -12    1    1    2    0    0  0.72258614631E+01  0.96114738071E+01  0.41701678840E+02  0.43400731799E+02  0.00000000000E+00 0.  1.
         11    1    3    3    0    0  0.17793663546E+01 -0.67289934532E+01 -0.21240688104E+02  0.22352009505E+02  0.51100000000E-03 0. -1.
        -11    1    3    3    0    0 -0.11404263747E+02 -0.19207592680E+01 -0.19512208757E+02  0.22681993709E+02  0.51100000000E-03 0.  1.
        -12    1    3    3    0    0  0.23990359298E+01 -0.96172108589E+00 -0.94878197878E+00  0.27532649859E+01  0.00000000000E+00 0.  1.
</event>
<event>
 7    1  0.2834226E-010  0.4778730E+02  0.7816164E-02  0.1312668E+00
        -11   -1    0    0    0    0  0.00000000000E+00  0.00000000000E+00  0.45593999997E+02  0.45594000000E+02  0.51100000000E-03 0. -1.
         11   -1    0    0    0    0 -0.00000000000E+00 -0.00000000000E+00 -0.45593999997E+02  0.45594000000E+02  0.51100000000E-03 0.  1.
    9900012    2    1    2    0    0  0.27712106563E+02 -0.15745786967E+02  0.29457257530E+02  0.47787300944E+02  0.20000136324E+02 0.  0.
        -12    1    1    2    0    0 -0.27712106563E+02  0.15745786967E+02 -0.29457257530E+02  0.43400699056E+02  0.00000000000E+00 0.  1.
         11    1    3    3    0    0  0.43454110213E+01 -0.36475763907E+01  0.23037075379E+01  0.61232735649E+01  0.51100000000E-03 0. -1.
        -11    1    3    3    0    0  0.50408923780E+01 -0.89320584485E+01  0.21111073077E+01  0.10471343678E+02  0.51100000000E-03 0.  1.
        -12    1    3    3    0    0  0.18325803164E+02 -0.31661521275E+01  0.25042442684E+02  0.31192683701E+02  0.00000000000E+00 0.  1.
</event>
<event>
 7    1  0.2834226E-010  0.4778728E+02  0.7816164E-02  0.1312668E+00
        -11   -1    0    0    0    0  0.00000000000E+00  0.00000000000E+00  0.45593999997E+02  0.45594000000E+02  0.51100000000E-03 0. -1.
         11   -1    0    0    0    0 -0.00000000000E+00 -0.00000000000E+00 -0.45593999997E+02  0.45594000000E+02  0.51100000000E-03 0.  1.
    9900012    2    1    2    0    0  0.27091547864E+02 -0.22676876979E+02  0.25207735813E+02  0.47787278116E+02  0.20000032242E+02 0.  0.
        -12    1    1    2    0    0 -0.27091547864E+02  0.22676876979E+02 -0.25207735813E+02  0.43400721884E+02  0.00000000000E+00 0.  1.
         11    1    3    3    0    0  0.64765171879E+01 -0.91501351735E+01  0.59911565456E+01  0.12710790911E+02  0.51100000000E-03 0. -1.
        -11    1    3    3    0    0  0.10638185331E+02 -0.47476510552E+01 -0.75947622586E-01  0.11649761627E+02  0.51100000000E-03 0.  1.
        -12    1    3    3    0    0  0.99768453457E+01 -0.87790907504E+01  0.19292526891E+02  0.23426725577E+02  0.00000000000E+00 0.  1.
</event>
<event>
 7    1  0.2834226E-010  0.4778727E+02  0.7816164E-02  0.1312668E+00
        -11   -1    0    0    0    0  0.00000000000E+00  0.00000000000E+00  0.45593999997E+02  0.45594000000E+02  0.51100000000E-03 0. -1.
         11   -1    0    0    0    0 -0.00000000000E+00 -0.00000000000E+00 -0.45593999997E+02  0.45594000000E+02  0.51100000000E-03 0.  1.
    9900012    2    1    2    0    0 -0.21261935044E+02 -0.31283289700E+02  0.21281660623E+02  0.47787272182E+02  0.20000005186E+02 0.  0.
        -12    1    1    2    0    0  0.21261935044E+02  0.31283289700E+02 -0.21281660623E+02  0.43400727818E+02  0.00000000000E+00 0.  1.
         11    1    3    3    0    0 -0.24085135497E+01  0.14622661223E+00  0.41554343092E+01  0.48052007554E+01  0.51100000000E-03 0. -1.
        -11    1    3    3    0    0 -0.19872773876E+02 -0.21220952130E+02  0.11364259421E+02  0.31215418359E+02  0.51100000000E-03 0.  1.
        -12    1    3    3    0    0  0.10193523822E+01 -0.10208564182E+02  0.57619668929E+01  0.11766653068E+02  0.00000000000E+00 0.  1.
</event>
<event>
 7    1  0.2834226E-010  0.4778727E+02  0.7816164E-02  0.1312668E+00
        -11   -1    0    0    0    0  0.00000000000E+00  0.00000000000E+00  0.45593999997E+02  0.45594000000E+02  0.51100000000E-03 0.  1.
         11   -1    0    0    0    0 -0.00000000000E+00 -0.00000000000E+00 -0.45593999997E+02  0.45594000000E+02  0.51100000000E-03 0. -1.
    9900012    2    1    2    0    0 -0.32875089639E+02 -0.28266231098E+02  0.19677125668E+01  0.47787271527E+02  0.20000002199E+02 0.  0.
        -12    1    1    2    0    0  0.32875089639E+02  0.28266231098E+02 -0.19677125668E+01  0.43400728473E+02  0.00000000000E+00 0.  1.
         11    1    3    3    0    0 -0.10311929026E+02 -0.17044394384E+02 -0.52961701621E+01  0.20613022069E+02  0.51100000000E-03 0. -1.
        -11    1    3    3    0    0 -0.12918864955E+02 -0.79842993825E+01  0.76268821831E+01  0.16994570911E+02  0.51100000000E-03 0.  1.
         12    1    3    3    0    0 -0.96442956585E+01 -0.32375373312E+01 -0.36299945426E+00  0.10179678547E+02  0.00000000000E+00 0. -1.
</event>
<event>
 7    1  0.2834226E-010  0.4778727E+02  0.7816164E-02  0.1312668E+00
        -11   -1    0    0    0    0  0.00000000000E+00  0.00000000000E+00  0.45593999997E+02  0.45594000000E+02  0.51100000000E-03 0.  1.
         11   -1    0    0    0    0 -0.00000000000E+00 -0.00000000000E+00 -0.45593999997E+02  0.45594000000E+02  0.51100000000E-03 0. -1.
    9900012    2    1    2    0    0 -0.30547512613E+02  0.87413649331E+01 -0.29564528447E+02  0.47787270398E+02  0.19999997051E+02 0.  0.
        -12    1    1    2    0    0  0.30547512613E+02 -0.87413649331E+01  0.29564528447E+02  0.43400729602E+02  0.00000000000E+00 0.  1.
         11    1    3    3    0    0 -0.27868994751E+02  0.83816721372E+01 -0.21272060724E+02  0.36047661006E+02  0.51100000000E-03 0. -1.
        -11    1    3    3    0    0  0.79401636950E+00  0.34015446929E+01 -0.23295717952E+01  0.41985560974E+01  0.51100000000E-03 0.  1.
         12    1    3    3    0    0 -0.34725342311E+01 -0.30418518971E+01 -0.59628959273E+01  0.75410532944E+01  0.00000000000E+00 0. -1.
</event>
<event>
 7    1  0.2834226E-010  0.4778727E+02  0.7816164E-02  0.1312668E+00
        -11   -1    0    0    0    0  0.00000000000E+00  0.00000000000E+00  0.45593999997E+02  0.45594000000E+02  0.51100000000E-03 0.  1.
         11   -1    0    0    0    0 -0.00000000000E+00 -0.00000000000E+00 -0.45593999997E+02  0.45594000000E+02  0.51100000000E-03 0. -1.
    9900012    2    1    2    0    0 -0.16721133205E+02 -0.63629943632E+01 -0.39541613754E+02  0.47787271767E+02  0.20000003294E+02 0.  0.
        -12    1    1    2    0    0  0.16721133205E+02  0.63629943632E+01  0.39541613754E+02  0.43400728233E+02  0.00000000000E+00 0.  1.
         11    1    3    3    0    0  0.35130838141E+01 -0.26803719159E+01 -0.77651296449E+01  0.89343936647E+01  0.51100000000E-03 0. -1.
        -11    1    3    3    0    0 -0.11719663420E+02 -0.64571881041E+01 -0.18220866670E+02  0.22606321491E+02  0.51100000000E-03 0.  1.
         12    1    3    3    0    0 -0.85145535987E+01  0.27745656568E+01 -0.13555617439E+02  0.16246556611E+02  0.00000000000E+00 0. -1.
</event>
<event>
 7    1  0.2834226E-010  0.4778727E+02  0.7816164E-02  0.1312668E+00
        -11   -1    0    0    0    0  0.00000000000E+00  0.00000000000E+00  0.45593999997E+02  0.45594000000E+02  0.51100000000E-03 0. -1.
         11   -1    0    0    0    0 -0.00000000000E+00 -0.00000000000E+00 -0.45593999997E+02  0.45594000000E+02  0.51100000000E-03 0.  1.
    9900012    2    1    2    0    0  0.50947677696E+01  0.42989725492E+02 -0.30902989825E+01  0.47787272998E+02  0.20000008906E+02 0.  0.
        -12    1    1    2    0    0 -0.50947677696E+01 -0.42989725492E+02  0.30902989825E+01  0.43400727002E+02  0.00000000000E+00 0.  1.
         11    1    3    3    0    0  0.53436560096E+01  0.22228706088E+02 -0.33242457443E+01  0.23102394766E+02  0.51100000000E-03 0. -1.
        -11    1    3    3    0    0 -0.32146131796E+01  0.20654080790E+01 -0.37357505606E+01  0.53437328656E+01  0.51100000000E-03 0.  1.
        -12    1    3    3    0    0  0.29657249396E+01  0.18695611325E+02  0.39696973224E+01  0.19341145366E+02  0.00000000000E+00 0.  1.
</event>
<event>
 7    1  0.2834226E-010  0.4778727E+02  0.7816164E-02  0.1312668E+00
        -11   -1    0    0    0    0  0.00000000000E+00  0.00000000000E+00  0.45593999997E+02  0.45594000000E+02  0.51100000000E-03 0. -1.
         11   -1    0    0    0    0 -0.00000000000E+00 -0.00000000000E+00 -0.45593999997E+02  0.45594000000E+02  0.51100000000E-03 0.  1.
    9900012    2    1    2    0    0  0.32408735180E+02  0.28808998006E+02  0.18272793184E+01  0.47787269226E+02  0.19999991707E+02 0.  0.
        -12    1    1    2    0    0 -0.32408735180E+02 -0.28808998006E+02 -0.18272793184E+01  0.43400730774E+02  0.00000000000E+00 0.  1.
         11    1    3    3    0    0  0.29070451608E+02  0.14987530952E+02  0.35617658101E+01  0.32899899949E+02  0.51100000000E-03 0. -1.
        -11    1    3    3    0    0  0.14880210886E+01  0.95612198475E+01  0.58842226455E+00  0.96941927335E+01  0.51100000000E-03 0.  1.
         12    1    3    3    0    0  0.18502624832E+01  0.42602472064E+01 -0.23229087563E+01  0.51931765430E+01  0.00000000000E+00 0. -1.
</event>
<event>
 7    1  0.2834226E-010  0.4778731E+02  0.7816164E-02  0.1312668E+00
        -11   -1    0    0    0    0  0.00000000000E+00  0.00000000000E+00  0.45593999997E+02  0.45594000000E+02  0.51100000000E-03 0.  1.
         11   -1    0    0    0    0 -0.00000000000E+00 -0.00000000000E+00 -0.45593999997E+02  0.45594000000E+02  0.51100000000E-03 0. -1.
    9900012    2    1    2    0    0  0.21252181171E+02 -0.19530694871E+00 -0.37840800669E+02  0.47787314007E+02  0.20000195885E+02 0.  0.
        -12    1    1    2    0    0 -0.21252181171E+02  0.19530694871E+00  0.37840800669E+02  0.43400685993E+02  0.00000000000E+00 0.  1.
         11    1    3    3    0    0  0.11539359377E+02  0.13688215597E+00 -0.32021510370E+02  0.34037518685E+02  0.51100000000E-03 0. -1.
        -11    1    3    3    0    0  0.10616660341E+02 -0.13298794058E+01 -0.61799169064E+01  0.12356108986E+02  0.51100000000E-03 0.  1.
         12    1    3    3    0    0 -0.90383854724E+00  0.99769030111E+00  0.36062660744E+00  0.13936863372E+01  0.00000000000E+00 0. -1.
</event>
<event>
 7    1  0.2834226E-010  0.4778726E+02  0.7816164E-02  0.1312668E+00
        -11   -1    0    0    0    0  0.00000000000E+00  0.00000000000E+00  0.45593999997E+02  0.45594000000E+02  0.51100000000E-03 0.  1.
         11   -1    0    0    0    0 -0.00000000000E+00 -0.00000000000E+00 -0.45593999997E+02  0.45594000000E+02  0.51100000000E-03 0. -1.
    9900012    2    1    2    0    0 -0.54678905265E+01 -0.42257265681E+01 -0.42847053353E+02  0.47787256079E+02  0.19999931767E+02 0.  0.
        -12    1    1    2    0    0  0.54678905265E+01  0.42257265681E+01  0.42847053353E+02  0.43400743921E+02  0.00000000000E+00 0.  1.
         11    1    3    3    0    0 -0.81314510874E+01 -0.13176986887E-01 -0.22891884403E+02  0.24293189215E+02  0.51100000000E-03 0. -1.
        -11    1    3    3    0    0  0.54400802298E+01 -0.67146640554E+01 -0.14539862581E+02  0.16914159465E+02  0.51100000000E-03 0.  1.
        -12    1    3    3    0    0 -0.27765196689E+01  0.25021144742E+01 -0.54153063688E+01  0.65799073992E+01  0.00000000000E+00 0.  1.
</event>
<event>
 7    1  0.2834226E-010  0.4778727E+02  0.7816164E-02  0.1312668E+00
        -11   -1    0    0    0    0  0.00000000000E+00  0.00000000000E+00  0.45593999997E+02  0.45594000000E+02  0.51100000000E-03 0.  1.
         11   -1    0    0    0    0 -0.00000000000E+00 -0.00000000000E+00 -0.45593999997E+02  0.45594000000E+02  0.51100000000E-03 0. -1.
    9900012    2    1    2    0    0 -0.23750030451E+02  0.17898628086E+02 -0.31610103436E+02  0.47787268750E+02  0.19999989539E+02 0.  0.
        -12    1    1    2    0    0  0.23750030451E+02 -0.17898628086E+02  0.31610103436E+02  0.43400731250E+02  0.00000000000E+00 0.  1.
         11    1    3    3    0    0 -0.11937149895E+02  0.60867856390E+01 -0.13682253821E+02  0.19150680847E+02  0.51100000000E-03 0. -1.
        -11    1    3    3    0    0 -0.65620284368E+00  0.10494650346E+02 -0.54393537626E+01  0.11838701689E+02  0.51100000000E-03 0.  1.
        -12    1    3    3    0    0 -0.11156677713E+02  0.13171921013E+01 -0.12488495853E+02  0.16797886215E+02  0.00000000000E+00 0.  1.
</event>
<event>
 7    1  0.2834226E-010  0.4778727E+02  0.7816164E-02  0.1312668E+00
        -11   -1    0    0    0    0  0.00000000000E+00  0.00000000000E+00  0.45593999997E+02  0.45594000000E+02  0.51100000000E-03 0. -1.
         11   -1    0    0    0    0 -0.00000000000E+00 -0.00000000000E+00 -0.45593999997E+02  0.45594000000E+02  0.51100000000E-03 0.  1.
    9900012    2    1    2    0    0  0.41073104673E+02  0.13912036224E+02  0.17546980691E+01  0.47787266772E+02  0.19999980522E+02 0.  0.
        -12    1    1    2    0    0 -0.41073104673E+02 -0.13912036224E+02 -0.17546980691E+01  0.43400733228E+02  0.00000000000E+00 0.  1.
         11    1    3    3    0    0  0.40856631086E+01 -0.21111414265E+00 -0.48082735492E+01  0.63132168506E+01  0.51100000000E-03 0. -1.
        -11    1    3    3    0    0  0.16225504492E+01  0.13212412312E+01 -0.20069494644E+01  0.28993438508E+01  0.51100000000E-03 0.  1.
         12    1    3    3    0    0  0.35364891115E+02  0.12801909135E+02  0.85699210827E+01  0.38574706071E+02  0.00000000000E+00 0. -1.
</event>
<event>
 7    1  0.2834226E-010  0.4778727E+02  0.7816164E-02  0.1312668E+00
        -11   -1    0    0    0    0  0.00000000000E+00  0.00000000000E+00  0.45593999997E+02  0.45594000000E+02  0.51100000000E-03 0.  1.
         11   -1    0    0    0    0 -0.00000000000E+00 -0.00000000000E+00 -0.45593999997E+02  0.45594000000E+02  0.51100000000E-03 0. -1.
    9900012    2    1    2    0    0 -0.17349090733E+02  0.11524477972E+02 -0.38076482025E+02  0.47787273910E+02  0.20000013064E+02 0.  0.
        -12    1    1    2    0    0  0.17349090733E+02 -0.11524477972E+02  0.38076482025E+02  0.43400726090E+02  0.00000000000E+00 0.  1.
         11    1    3    3    0    0 -0.12363251772E+02  0.14326771809E+02 -0.33459079389E+02  0.38439775996E+02  0.51100000000E-03 0. -1.
        -11    1    3    3    0    0 -0.26681074587E-01 -0.30924822724E+01 -0.11968654900E+01  0.33161190792E+01  0.51100000000E-03 0.  1.
        -12    1    3    3    0    0 -0.49591578868E+01  0.29018843465E+00 -0.34205371462E+01  0.60313788342E+01  0.00000000000E+00 0.  1.
</event>
<event>
 7    1  0.2834226E-010  0.4778727E+02  0.7816164E-02  0.1312668E+00
        -11   -1    0    0    0    0  0.00000000000E+00  0.00000000000E+00  0.45593999997E+02  0.45594000000E+02  0.51100000000E-03 0.  1.
         11   -1    0    0    0    0 -0.00000000000E+00 -0.00000000000E+00 -0.45593999997E+02  0.45594000000E+02  0.51100000000E-03 0. -1.
    9900012    2    1    2    0    0  0.26625938843E+01  0.35214955910E+02 -0.25227770964E+02  0.47787274732E+02  0.20000016813E+02 0.  0.
        -12    1    1    2    0    0 -0.26625938843E+01 -0.35214955910E+02  0.25227770964E+02  0.43400725268E+02  0.00000000000E+00 0.  1.
         11    1    3    3    0    0 -0.80530572091E+01  0.99675636629E+01 -0.98902126196E+01  0.16187043019E+02  0.51100000000E-03 0. -1.
        -11    1    3    3    0    0  0.67754611030E+01  0.13644383797E+02 -0.69086356043E+01  0.16727382596E+02  0.51100000000E-03 0.  1.
         12    1    3    3    0    0  0.39401899904E+01  0.11603008451E+02 -0.84289227405E+01  0.14872849116E+02  0.00000000000E+00 0. -1.
</event>
<event>
 7    1  0.2834226E-010  0.4778727E+02  0.7816164E-02  0.1312668E+00
        -11   -1    0    0    0    0  0.00000000000E+00  0.00000000000E+00  0.45593999997E+02  0.45594000000E+02  0.51100000000E-03 0. -1.
         11   -1    0    0    0    0 -0.00000000000E+00 -0.00000000000E+00 -0.45593999997E+02  0.45594000000E+02  0.51100000000E-03 0.  1.
    9900012    2    1    2    0    0  0.41045657432E+02 -0.13038542164E+02  0.53734235965E+01  0.47787271239E+02  0.20000000889E+02 0.  0.
        -12    1    1    2    0    0 -0.41045657432E+02  0.13038542164E+02 -0.53734235965E+01  0.43400728761E+02  0.00000000000E+00 0.  1.
         11    1    3    3    0    0  0.20479195746E+02 -0.56324440009E+01 -0.43126273710E+01  0.21673039449E+02  0.51100000000E-03 0. -1.
        -11    1    3    3    0    0  0.10883338710E+02 -0.92264326250E+01  0.70515590813E+01  0.15915357558E+02  0.51100000000E-03 0.  1.
        -12    1    3    3    0    0  0.96831229755E+01  0.18203344617E+01  0.26344918862E+01  0.10198874232E+02  0.00000000000E+00 0.  1.
</event>
<event>
 7    1  0.2834226E-010  0.4778728E+02  0.7816164E-02  0.1312668E+00
        -11   -1    0    0    0    0  0.00000000000E+00  0.00000000000E+00  0.45593999997E+02  0.45594000000E+02  0.51100000000E-03 0.  1.
         11   -1    0    0    0    0 -0.00000000000E+00 -0.00000000000E+00 -0.45593999997E+02  0.45594000000E+02  0.51100000000E-03 0. -1.
    9900012    2    1    2    0    0  0.20378110188E+02  0.20819503185E+02 -0.32169914970E+02  0.47787279765E+02  0.20000039760E+02 0.  0.
        -12    1    1    2    0    0 -0.20378110188E+02 -0.20819503185E+02  0.32169914970E+02  0.43400720235E+02  0.00000000000E+00 0.  1.
         11    1    3    3    0    0  0.16901449705E+02  0.12592914064E+02 -0.14061996817E+02  0.25337329013E+02  0.51100000000E-03 0. -1.
        -11    1    3    3    0    0  0.34357674456E+01 -0.21741562231E+00 -0.10619937209E+02  0.11163997227E+02  0.51100000000E-03 0.  1.
         12    1    3    3    0    0  0.40893037176E-01  0.84440047441E+01 -0.74879809440E+01  0.11285953525E+02  0.00000000000E+00 0. -1.
</event>
<event>
 7    1  0.2834226E-010  0.4778727E+02  0.7816164E-02  0.1312668E+00
        -11   -1    0    0    0    0  0.00000000000E+00  0.00000000000E+00  0.45593999997E+02  0.45594000000E+02  0.51100000000E-03 0.  1.
         11   -1    0    0    0    0 -0.00000000000E+00 -0.00000000000E+00 -0.45593999997E+02  0.45594000000E+02  0.51100000000E-03 0. -1.
    9900012    2    1    2    0    0 -0.19585551343E+02 -0.80442894982E+01 -0.37885604209E+02  0.47787269347E+02  0.19999992259E+02 0.  0.
        -12    1    1    2    0    0  0.19585551343E+02  0.80442894982E+01  0.37885604209E+02  0.43400730653E+02  0.00000000000E+00 0.  1.
         11    1    3    3    0    0 -0.58242971464E+01 -0.66674799013E+01 -0.13616578352E+02  0.16241580334E+02  0.51100000000E-03 0. -1.
        -11    1    3    3    0    0 -0.50665121378E+01  0.60833250185E+01 -0.14362876669E+02  0.16400262650E+02  0.51100000000E-03 0.  1.
        -12    1    3    3    0    0 -0.86947420587E+01 -0.74601346155E+01 -0.99061491883E+01  0.15145426362E+02  0.00000000000E+00 0.  1.
</event>
<event>
 7    1  0.2834226E-010  0.4778727E+02  0.7816164E-02  0.1312668E+00
        -11   -1    0    0    0    0  0.00000000000E+00  0.00000000000E+00  0.45593999997E+02  0.45594000000E+02  0.51100000000E-03 0.  1.
         11   -1    0    0    0    0 -0.00000000000E+00 -0.00000000000E+00 -0.45593999997E+02  0.45594000000E+02  0.51100000000E-03 0. -1.
    9900012    2    1    2    0    0 -0.46146226520E+01 -0.29529911219E+02 -0.31469235933E+02  0.47787271791E+02  0.20000003406E+02 0.  0.
        -12    1    1    2    0    0  0.46146226520E+01  0.29529911219E+02  0.31469235933E+02  0.43400728209E+02  0.00000000000E+00 0.  1.
         11    1    3    3    0    0 -0.34087228263E+01 -0.25090808716E+02 -0.28063655890E+02  0.37798635630E+02  0.51100000000E-03 0. -1.
        -11    1    3    3    0    0 -0.22799695887E+00  0.15774223171E+01 -0.35500839648E+01  0.38914444873E+01  0.51100000000E-03 0.  1.
         12    1    3    3    0    0 -0.97790286686E+00 -0.60165248204E+01  0.14450392128E+00  0.60971916744E+01  0.00000000000E+00 0. -1.
</event>
<event>
 7    1  0.2834226E-010  0.4778728E+02  0.7816164E-02  0.1312668E+00
        -11   -1    0    0    0    0  0.00000000000E+00  0.00000000000E+00  0.45593999997E+02  0.45594000000E+02  0.51100000000E-03 0. -1.
         11   -1    0    0    0    0 -0.00000000000E+00 -0.00000000000E+00 -0.45593999997E+02  0.45594000000E+02  0.51100000000E-03 0.  1.
    9900012    2    1    2    0    0  0.76063622917E+01 -0.35457013437E+02  0.23844627339E+02  0.47787276479E+02  0.20000024778E+02 0.  0.
        -12    1    1    2    0    0 -0.76063622917E+01  0.35457013437E+02 -0.23844627339E+02  0.43400723521E+02  0.00000000000E+00 0.  1.
         11    1    3    3    0    0  0.84749373285E+01 -0.93790125123E+01  0.97477211698E+01  0.15962722409E+02  0.51100000000E-03 0. -1.
        -11    1    3    3    0    0 -0.53048137498E+01 -0.15281656111E+02  0.11553366049E+02  0.19878388509E+02  0.51100000000E-03 0.  1.
         12    1    3    3    0    0  0.44362387130E+01 -0.10796344814E+02  0.25435401211E+01  0.11946165561E+02  0.00000000000E+00 0. -1.
</event>
<event>
 7    1  0.2834226E-010  0.4778727E+02  0.7816164E-02  0.1312668E+00
        -11   -1    0    0    0    0  0.00000000000E+00  0.00000000000E+00  0.45593999997E+02  0.45594000000E+02  0.51100000000E-03 0.  1.
         11   -1    0    0    0    0 -0.00000000000E+00 -0.00000000000E+00 -0.45593999997E+02  0.45594000000E+02  0.51100000000E-03 0. -1.
    9900012    2    1    2    0    0  0.22084979824E+02  0.18202710547E+02 -0.32627263040E+02  0.47787270760E+02  0.19999998705E+02 0.  0.
        -12    1    1    2    0    0 -0.22084979824E+02 -0.18202710547E+02  0.32627263040E+02  0.43400729240E+02  0.00000000000E+00 0.  1.
         11    1    3    3    0    0  0.50043790117E+01  0.49590778446E+01 -0.13322410813E+02  0.15070596952E+02  0.51100000000E-03 0. -1.
        -11    1    3    3    0    0  0.17679735744E+02  0.15831687576E+02 -0.17779118324E+02  0.29653202797E+02  0.51100000000E-03 0.  1.
        -12    1    3    3    0    0 -0.59913493221E+00 -0.25880548734E+01 -0.15257339028E+01  0.30634710113E+01  0.00000000000E+00 0.  1.
</event>
<event>
 7    1  0.2834226E-010  0.4778727E+02  0.7816164E-02  0.1312668E+00
        -11   -1    0    0    0    0  0.00000000000E+00  0.00000000000E+00  0.45593999997E+02  0.45594000000E+02  0.51100000000E-03 0.  1.
         11   -1    0    0    0    0 -0.00000000000E+00 -0.00000000000E+00 -0.45593999997E+02  0.45594000000E+02  0.51100000000E-03 0. -1.
    9900012    2    1    2    0    0  0.20494637211E+01 -0.37557134148E+02 -0.21653745536E+02  0.47787270482E+02  0.19999997436E+02 0.  0.
        -12    1    1    2    0    0 -0.20494637211E+01  0.37557134148E+02  0.21653745536E+02  0.43400729518E+02  0.00000000000E+00 0.  1.
         11    1    3    3    0    0 -0.22941792113E+01 -0.10429282404E+02 -0.74391445937E+01  0.13014379058E+02  0.51100000000E-03 0. -1.
        -11    1    3    3    0    0  0.53057975755E+01 -0.29040846688E+02 -0.13816985827E+02  0.32594959149E+02  0.51100000000E-03 0.  1.
        -12    1    3    3    0    0 -0.96215464311E+00  0.19129949447E+01 -0.39761511504E+00  0.21779322752E+01  0.00000000000E+00 0.  1.
</event>
<event>
 7    1  0.2834226E-010  0.4778727E+02  0.7816164E-02  0.1312668E+00
        -11   -1    0    0    0    0  0.00000000000E+00  0.00000000000E+00  0.45593999997E+02  0.45594000000E+02  0.51100000000E-03 0.  1.
         11   -1    0    0    0    0 -0.00000000000E+00 -0.00000000000E+00 -0.45593999997E+02  0.45594000000E+02  0.51100000000E-03 0. -1.
    9900012    2    1    2    0    0 -0.18119777922E+02 -0.21047832762E+02 -0.33350947666E+02  0.47787270442E+02  0.19999997254E+02 0.  0.
        -12    1    1    2    0    0  0.18119777922E+02  0.21047832762E+02  0.33350947666E+02  0.43400729558E+02  0.00000000000E+00 0.  1.
         11    1    3    3    0    0 -0.10969642682E+02 -0.22743029018E+02 -0.19989968016E+02  0.32205236392E+02  0.51100000000E-03 0. -1.
        -11    1    3    3    0    0 -0.58042758362E+01  0.14433624668E+01 -0.76574334475E+01  0.97164397007E+01  0.51100000000E-03 0.  1.
         12    1    3    3    0    0 -0.13458594048E+01  0.25183378976E+00 -0.57035462021E+01  0.58655943496E+01  0.00000000000E+00 0. -1.
</event>
<event>
 7    1  0.2834226E-010  0.4778728E+02  0.7816164E-02  0.1312668E+00
        -11   -1    0    0    0    0  0.00000000000E+00  0.00000000000E+00  0.45593999997E+02  0.45594000000E+02  0.51100000000E-03 0.  1.
         11   -1    0    0    0    0 -0.00000000000E+00 -0.00000000000E+00 -0.45593999997E+02  0.45594000000E+02  0.51100000000E-03 0. -1.
    9900012    2    1    2    0    0 -0.33071219311E+02 -0.16994852544E+02 -0.22385091170E+02  0.47787275739E+02  0.20000021402E+02 0.  0.
        -12    1    1    2    0    0  0.33071219311E+02  0.16994852544E+02  0.22385091170E+02  0.43400724261E+02  0.00000000000E+00 0.  1.
         11    1    3    3    0    0 -0.24178182662E+01 -0.76642590444E+01 -0.81493347656E+01  0.11445451902E+02  0.51100000000E-03 0.  1.
        -11    1    3    3    0    0 -0.23072347064E+02 -0.29423355395E+01 -0.12028230780E+02  0.26185279709E+02  0.51100000000E-03 0. -1.
         12    1    3    3    0    0 -0.75810539805E+01 -0.63882579602E+01 -0.22075256249E+01  0.10156544127E+02  0.00000000000E+00 0. -1.
</event>
<event>
 7    1  0.2834226E-010  0.4778726E+02  0.7816164E-02  0.1312668E+00
        -11   -1    0    0    0    0  0.00000000000E+00  0.00000000000E+00  0.45593999997E+02  0.45594000000E+02  0.51100000000E-03 0. -1.
         11   -1    0    0    0    0 -0.00000000000E+00 -0.00000000000E+00 -0.45593999997E+02  0.45594000000E+02  0.51100000000E-03 0.  1.
    9900012    2    1    2    0    0  0.25290611645E+02  0.69609894273E+01  0.34576786224E+02  0.47787256264E+02  0.19999932611E+02 0.  0.
        -12    1    1    2    0    0 -0.25290611645E+02 -0.69609894273E+01 -0.34576786224E+02  0.43400743736E+02  0.00000000000E+00 0.  1.
         11    1    3    3    0    0  0.21276054172E+02  0.69918586966E+01  0.26777157219E+02  0.34908060933E+02  0.51100000000E-03 0. -1.
        -11    1    3    3    0    0  0.25636516010E+01  0.33788414190E+01 -0.30273435969E-02  0.42413309576E+01  0.51100000000E-03 0.  1.
         12    1    3    3    0    0  0.14509058728E+01 -0.34097106883E+01  0.78026563490E+01  0.86378643732E+01  0.00000000000E+00 0. -1.
</event>
<event>
 7    1  0.2834226E-010  0.4778727E+02  0.7816164E-02  0.1312668E+00
        -11   -1    0    0    0    0  0.00000000000E+00  0.00000000000E+00  0.45593999997E+02  0.45594000000E+02  0.51100000000E-03 0. -1.
         11   -1    0    0    0    0 -0.00000000000E+00 -0.00000000000E+00 -0.45593999997E+02  0.45594000000E+02  0.51100000000E-03 0.  1.
    9900012    2    1    2    0    0 -0.18751234381E+02  0.39065927743E+02 -0.24224010961E+01  0.47787268114E+02  0.19999986638E+02 0.  0.
        -12    1    1    2    0    0  0.18751234381E+02 -0.39065927743E+02  0.24224010961E+01  0.43400731886E+02  0.00000000000E+00 0.  1.
         11    1    3    3    0    0 -0.15666515182E+02  0.16925733804E+02 -0.13543604427E+01  0.23103126525E+02  0.51100000000E-03 0. -1.
        -11    1    3    3    0    0 -0.43600565536E+01  0.78995124924E+01 -0.43467971884E+01  0.10015340075E+02  0.51100000000E-03 0.  1.
         12    1    3    3    0    0  0.12753373551E+01  0.14240681446E+02  0.32787565349E+01  0.14668801513E+02  0.00000000000E+00 0. -1.
</event>
<event>
 7    1  0.2834226E-010  0.4778727E+02  0.7816164E-02  0.1312668E+00
        -11   -1    0    0    0    0  0.00000000000E+00  0.00000000000E+00  0.45593999997E+02  0.45594000000E+02  0.51100000000E-03 0. -1.
         11   -1    0    0    0    0 -0.00000000000E+00 -0.00000000000E+00 -0.45593999997E+02  0.45594000000E+02  0.51100000000E-03 0.  1.
    9900012    2    1    2    0    0 -0.40116772588E+02 -0.85740123919E+01  0.14168771677E+02  0.47787271639E+02  0.20000002712E+02 0.  0.
        -12    1    1    2    0    0  0.40116772588E+02  0.85740123919E+01 -0.14168771677E+02  0.43400728361E+02  0.00000000000E+00 0.  1.
         11    1    3    3    0    0 -0.59511980660E+01 -0.15716036662E+01  0.38047763324E+00  0.61669652176E+01  0.51100000000E-03 0. -1.
        -11    1    3    3    0    0 -0.13223741640E+02 -0.99547295702E+01  0.33540509751E+00  0.16555255377E+02  0.51100000000E-03 0.  1.
        -12    1    3    3    0    0 -0.20941832883E+02  0.29523208444E+01  0.13452888946E+02  0.25065051044E+02  0.00000000000E+00 0.  1.
</event>
<event>
 7    1  0.2834226E-010  0.4778727E+02  0.7816164E-02  0.1312668E+00
        -11   -1    0    0    0    0  0.00000000000E+00  0.00000000000E+00  0.45593999997E+02  0.45594000000E+02  0.51100000000E-03 0.  1.
         11   -1    0    0    0    0 -0.00000000000E+00 -0.00000000000E+00 -0.45593999997E+02  0.45594000000E+02  0.51100000000E-03 0. -1.
    9900012    2    1    2    0    0  0.23061650779E+02  0.36544682545E+02 -0.40335453883E+01  0.47787273654E+02  0.20000011898E+02 0.  0.
        -12    1    1    2    0    0 -0.23061650779E+02 -0.36544682545E+02  0.40335453883E+01  0.43400726346E+02  0.00000000000E+00 0.  1.
         11    1    3    3    0    0  0.13329428707E+02  0.15646333129E+02 -0.36387770787E+01  0.20873957673E+02  0.51100000000E-03 0. -1.
        -11    1    3    3    0    0 -0.30971047177E+01  0.12822389757E+01  0.79208595260E+00  0.34443569560E+01  0.51100000000E-03 0.  1.
        -12    1    3    3    0    0  0.12829326790E+02  0.19616110440E+02 -0.11868542622E+01  0.23468959025E+02  0.00000000000E+00 0.  1.
</event>
<event>
 7    1  0.2834226E-010  0.4778727E+02  0.7816164E-02  0.1312668E+00
        -11   -1    0    0    0    0  0.00000000000E+00  0.00000000000E+00  0.45593999997E+02  0.45594000000E+02  0.51100000000E-03 0. -1.
         11   -1    0    0    0    0 -0.00000000000E+00 -0.00000000000E+00 -0.45593999997E+02  0.45594000000E+02  0.51100000000E-03 0.  1.
    9900012    2    1    2    0    0  0.32985143145E+02  0.42435956945E+01  0.27885399609E+02  0.47787270927E+02  0.19999999465E+02 0.  0.
        -12    1    1    2    0    0 -0.32985143145E+02 -0.42435956945E+01 -0.27885399609E+02  0.43400729073E+02  0.00000000000E+00 0.  1.
         11    1    3    3    0    0  0.28393409556E+01 -0.46615386281E+01  0.31230425833E+01  0.62884970130E+01  0.51100000000E-03 0. -1.
        -11    1    3    3    0    0  0.18065764373E+01  0.41874864272E+01  0.30238054145E+01  0.54719430231E+01  0.51100000000E-03 0.  1.
         12    1    3    3    0    0  0.28339225752E+02  0.47176478954E+01  0.21738551611E+02  0.36026830891E+02  0.00000000000E+00 0. -1.
</event>
<event>
 7    1  0.2834226E-010  0.4778728E+02  0.7816164E-02  0.1312668E+00
        -11   -1    0    0    0    0  0.00000000000E+00  0.00000000000E+00  0.45593999997E+02  0.45594000000E+02  0.51100000000E-03 0.  1.
         11   -1    0    0    0    0 -0.00000000000E+00 -0.00000000000E+00 -0.45593999997E+02  0.45594000000E+02  0.51100000000E-03 0. -1.
    9900012    2    1    2    0    0  0.31927188700E+02  0.10181547973E+02 -0.27579222482E+02  0.47787276387E+02  0.20000024358E+02 0.  0.
        -12    1    1    2    0    0 -0.31927188700E+02 -0.10181547973E+02  0.27579222482E+02  0.43400723613E+02  0.00000000000E+00 0.  1.
         11    1    3    3    0    0  0.39945069676E+01 -0.53322129489E+00 -0.21597169412E+01  0.45721754550E+01  0.51100000000E-03 0. -1.
        -11    1    3    3    0    0  0.95051378084E+01 -0.23773340350E+01 -0.15924053967E+02  0.18696921053E+02  0.51100000000E-03 0.  1.
        -12    1    3    3    0    0  0.18427543924E+02  0.13092103303E+02 -0.94954515742E+01  0.24518179879E+02  0.00000000000E+00 0.  1.
</event>
<event>
 7    1  0.2834226E-010  0.4778727E+02  0.7816164E-02  0.1312668E+00
        -11   -1    0    0    0    0  0.00000000000E+00  0.00000000000E+00  0.45593999997E+02  0.45594000000E+02  0.51100000000E-03 0.  1.
         11   -1    0    0    0    0 -0.00000000000E+00 -0.00000000000E+00 -0.45593999997E+02  0.45594000000E+02  0.51100000000E-03 0. -1.
    9900012    2    1    2    0    0 -0.41580354886E+02 -0.92376920701E+01 -0.83284089273E+01  0.47787271175E+02  0.20000000597E+02 0.  0.
        -12    1    1    2    0    0  0.41580354886E+02  0.92376920701E+01  0.83284089273E+01  0.43400728825E+02  0.00000000000E+00 0.  1.
         11    1    3    3    0    0 -0.35773609361E+02 -0.41300344674E+01 -0.84844528776E+01  0.36997219521E+02  0.51100000000E-03 0. -1.
        -11    1    3    3    0    0 -0.58557303409E+01 -0.57626810977E+01  0.23131559901E+01  0.85351486311E+01  0.51100000000E-03 0.  1.
        -12    1    3    3    0    0  0.48984815580E-01  0.65502349496E+00 -0.21571120398E+01  0.22549030231E+01  0.00000000000E+00 0.  1.
</event>
<event>
 7    1  0.2834226E-010  0.4778728E+02  0.7816164E-02  0.1312668E+00
        -11   -1    0    0    0    0  0.00000000000E+00  0.00000000000E+00  0.45593999997E+02  0.45594000000E+02  0.51100000000E-03 0. -1.
         11   -1    0    0    0    0 -0.00000000000E+00 -0.00000000000E+00 -0.45593999997E+02  0.45594000000E+02  0.51100000000E-03 0.  1.
    9900012    2    1    2    0    0 -0.38785738903E+02 -0.14080766604E+02  0.13454398227E+02  0.47787281549E+02  0.20000047895E+02 0.  0.
        -12    1    1    2    0    0  0.38785738903E+02  0.14080766604E+02 -0.13454398227E+02  0.43400718451E+02  0.00000000000E+00 0.  1.
         11    1    3    3    0    0 -0.19219731964E+02 -0.25152358026E+00  0.62971668375E+01  0.20226608003E+02  0.51100000000E-03 0. -1.
        -11    1    3    3    0    0 -0.45011970454E+01 -0.10060305905E+02  0.39199683936E+01  0.11697721241E+02  0.51100000000E-03 0.  1.
        -12    1    3    3    0    0 -0.15064809894E+02 -0.37689371184E+01  0.32372629957E+01  0.15862952306E+02  0.00000000000E+00 0.  1.
</event>
<event>
 7    1  0.2834226E-010  0.4778727E+02  0.7816164E-02  0.1312668E+00
        -11   -1    0    0    0    0  0.00000000000E+00  0.00000000000E+00  0.45593999997E+02  0.45594000000E+02  0.51100000000E-03 0.  1.
         11   -1    0    0    0    0 -0.00000000000E+00 -0.00000000000E+00 -0.45593999997E+02  0.45594000000E+02  0.51100000000E-03 0. -1.
    9900012    2    1    2    0    0 -0.19236537010E+02  0.15742187828E+02 -0.35577557745E+02  0.47787269028E+02  0.19999990808E+02 0.  0.
        -12    1    1    2    0    0  0.19236537010E+02 -0.15742187828E+02  0.35577557745E+02  0.43400730972E+02  0.00000000000E+00 0.  1.
         11    1    3    3    0    0 -0.10835426589E+02 -0.13836721024E+01 -0.13932732807E+02  0.17704295004E+02  0.51100000000E-03 0. -1.
        -11    1    3    3    0    0 -0.89952391691E+00  0.10189758483E+02 -0.13920383355E+02  0.17274761771E+02  0.51100000000E-03 0.  1.
        -12    1    3    3    0    0 -0.75015865036E+01  0.69361014476E+01 -0.77244415827E+01  0.12808212253E+02  0.00000000000E+00 0.  1.
</event>
<event>
 7    1  0.2834226E-010  0.4778727E+02  0.7816164E-02  0.1312668E+00
        -11   -1    0    0    0    0  0.00000000000E+00  0.00000000000E+00  0.45593999997E+02  0.45594000000E+02  0.51100000000E-03 0. -1.
         11   -1    0    0    0    0 -0.00000000000E+00 -0.00000000000E+00 -0.45593999997E+02  0.45594000000E+02  0.51100000000E-03 0.  1.
    9900012    2    1    2    0    0 -0.32672494863E+01  0.40003144279E+02  0.16513534415E+02  0.47787270855E+02  0.19999999136E+02 0.  0.
        -12    1    1    2    0    0  0.32672494863E+01 -0.40003144279E+02 -0.16513534415E+02  0.43400729145E+02  0.00000000000E+00 0.  1.
         11    1    3    3    0    0 -0.22469139212E+01  0.10045351495E+02  0.12300539657E+01  0.10366809628E+02  0.51100000000E-03 0. -1.
        -11    1    3    3    0    0  0.89771167448E+00  0.45732808899E+01 -0.34626293571E+01  0.58060818693E+01  0.51100000000E-03 0.  1.
        -12    1    3    3    0    0 -0.19180472396E+01  0.25384511894E+02  0.18746109806E+02  0.31614379358E+02  0.00000000000E+00 0.  1.
</event>
<event>
 7    1  0.2834226E-010  0.4778728E+02  0.7816164E-02  0.1312668E+00
        -11   -1    0    0    0    0  0.00000000000E+00  0.00000000000E+00  0.45593999997E+02  0.45594000000E+02  0.51100000000E-03 0.  1.
         11   -1    0    0    0    0 -0.00000000000E+00 -0.00000000000E+00 -0.45593999997E+02  0.45594000000E+02  0.51100000000E-03 0. -1.
    9900012    2    1    2    0    0 -0.40815696976E+02 -0.12438644656E+02 -0.79361062767E+01  0.47787276695E+02  0.20000025764E+02 0.  0.
        -12    1    1    2    0    0  0.40815696976E+02  0.12438644656E+02  0.79361062767E+01  0.43400723305E+02  0.00000000000E+00 0.  1.
         11    1    3    3    0    0 -0.23420534825E+02  0.15494116528E+00 -0.69835855163E+01  0.24440047569E+02  0.51100000000E-03 0. -1.
        -11    1    3    3    0    0 -0.89513255278E-01 -0.37087249542E+01  0.86503846285E+00  0.38093234586E+01  0.51100000000E-03 0.  1.
         12    1    3    3    0    0 -0.17305648897E+02 -0.88848608670E+01 -0.18175592233E+01  0.19537905668E+02  0.00000000000E+00 0. -1.
</event>
<event>
 7    1  0.2834226E-010  0.4778727E+02  0.7816164E-02  0.1312668E+00
        -11   -1    0    0    0    0  0.00000000000E+00  0.00000000000E+00  0.45593999997E+02  0.45594000000E+02  0.51100000000E-03 0.  1.
         11   -1    0    0    0    0 -0.00000000000E+00 -0.00000000000E+00 -0.45593999997E+02  0.45594000000E+02  0.51100000000E-03 0. -1.
    9900012    2    1    2    0    0  0.68350157947E+01 -0.25525611767E+02 -0.34428901426E+02  0.47787267859E+02  0.19999985474E+02 0.  0.
        -12    1    1    2    0    0 -0.68350157947E+01  0.25525611767E+02  0.34428901426E+02  0.43400732141E+02  0.00000000000E+00 0.  1.
         11    1    3    3    0    0  0.40840133833E+01 -0.10530295157E+02 -0.13614912343E+02  0.17689887501E+02  0.51100000000E-03 0. -1.
        -11    1    3    3    0    0 -0.53922834800E+01 -0.13174496463E+01 -0.34249158427E+01  0.65224568599E+01  0.51100000000E-03 0.  1.
        -12    1    3    3    0    0  0.81432858914E+01 -0.13677866963E+02 -0.17389073240E+02  0.23574923498E+02  0.00000000000E+00 0.  1.
</event>
<event>
 7    1  0.2834226E-010  0.4778727E+02  0.7816164E-02  0.1312668E+00
        -11   -1    0    0    0    0  0.00000000000E+00  0.00000000000E+00  0.45593999997E+02  0.45594000000E+02  0.51100000000E-03 0. -1.
         11   -1    0    0    0    0 -0.00000000000E+00 -0.00000000000E+00 -0.45593999997E+02  0.45594000000E+02  0.51100000000E-03 0.  1.
    9900012    2    1    2    0    0  0.85409873183E+01  0.17915858773E+02  0.38596590201E+02  0.47787271491E+02  0.20000002037E+02 0.  0.
        -12    1    1    2    0    0 -0.85409873183E+01 -0.17915858773E+02 -0.38596590201E+02  0.43400728509E+02  0.00000000000E+00 0.  1.
         11    1    3    3    0    0 -0.29910669715E+01  0.31018710802E+01  0.12969116571E+02  0.13666238353E+02  0.51100000000E-03 0. -1.
        -11    1    3    3    0    0  0.10379395282E+02  0.16086750252E+02  0.26073211711E+02  0.32346989802E+02  0.51100000000E-03 0.  1.
        -12    1    3    3    0    0  0.11526590081E+01 -0.12727625584E+01 -0.44573808164E+00  0.17740433356E+01  0.00000000000E+00 0.  1.
</event>
<event>
 7    1  0.2834226E-010  0.4778727E+02  0.7816164E-02  0.1312668E+00
        -11   -1    0    0    0    0  0.00000000000E+00  0.00000000000E+00  0.45593999997E+02  0.45594000000E+02  0.51100000000E-03 0.  1.
         11   -1    0    0    0    0 -0.00000000000E+00 -0.00000000000E+00 -0.45593999997E+02  0.45594000000E+02  0.51100000000E-03 0. -1.
    9900012    2    1    2    0    0  0.24651927250E+02 -0.70333345891E+00 -0.35712899336E+02  0.47787269890E+02  0.19999994736E+02 0.  0.
        -12    1    1    2    0    0 -0.24651927250E+02  0.70333345891E+00  0.35712899336E+02  0.43400730110E+02  0.00000000000E+00 0.  1.
         11    1    3    3    0    0  0.15081424386E+02  0.30808409280E+01 -0.23917542909E+02  0.28442746025E+02  0.51100000000E-03 0. -1.
        -11    1    3    3    0    0  0.47559377824E+01 -0.72838671065E+01 -0.97120990476E+01  0.13038348530E+02  0.51100000000E-03 0.  1.
        -12    1    3    3    0    0  0.48145650811E+01  0.34996927195E+01 -0.20832573793E+01  0.63061753353E+01  0.00000000000E+00 0.  1.
</event>
<event>
 7    1  0.2834226E-010  0.4778726E+02  0.7816164E-02  0.1312668E+00
        -11   -1    0    0    0    0  0.00000000000E+00  0.00000000000E+00  0.45593999997E+02  0.45594000000E+02  0.51100000000E-03 0.  1.
         11   -1    0    0    0    0 -0.00000000000E+00 -0.00000000000E+00 -0.45593999997E+02  0.45594000000E+02  0.51100000000E-03 0. -1.
    9900012    2    1    2    0    0 -0.40207852093E+01  0.31775542784E+02 -0.29287744302E+02  0.47787264992E+02  0.19999972405E+02 0.  0.
        -12    1    1    2    0    0  0.40207852093E+01 -0.31775542784E+02  0.29287744302E+02  0.43400735008E+02  0.00000000000E+00 0.  1.
         11    1    3    3    0    0  0.89302541729E+00 -0.15478241806E+01 -0.49315995824E+01  0.52453721310E+01  0.51100000000E-03 0. -1.
        -11    1    3    3    0    0 -0.72415231897E+01  0.19860190792E+02 -0.16166995003E+02  0.26612751907E+02  0.51100000000E-03 0.  1.
        -12    1    3    3    0    0  0.23277125631E+01  0.13463176173E+02 -0.81891497163E+01  0.15929140954E+02  0.00000000000E+00 0.  1.
</event>
<event>
 7    1  0.2834226E-010  0.4778727E+02  0.7816164E-02  0.1312668E+00
        -11   -1    0    0    0    0  0.00000000000E+00  0.00000000000E+00  0.45593999997E+02  0.45594000000E+02  0.51100000000E-03 0.  1.
         11   -1    0    0    0    0 -0.00000000000E+00 -0.00000000000E+00 -0.45593999997E+02  0.45594000000E+02  0.51100000000E-03 0. -1.
    9900012    2    1    2    0    0 -0.20131793623E+02 -0.27617863247E+02 -0.26750479125E+02  0.47787267077E+02  0.19999981912E+02 0.  0.
        -12    1    1    2    0    0  0.20131793623E+02  0.27617863247E+02  0.26750479125E+02  0.43400732923E+02  0.00000000000E+00 0.  1.
         11    1    3    3    0    0 -0.13688203046E+02 -0.26331907566E+02 -0.26637922864E+02  0.39878756167E+02  0.51100000000E-03 0. -1.
        -11    1    3    3    0    0 -0.53095630266E+00  0.12540076517E+01 -0.52669248876E+00  0.14600873346E+01  0.51100000000E-03 0.  1.
        -12    1    3    3    0    0 -0.59126342743E+01 -0.25399633329E+01  0.41413622727E+00  0.64484235755E+01  0.00000000000E+00 0.  1.
</event>
<event>
 7    1  0.2834226E-010  0.4778729E+02  0.7816164E-02  0.1312668E+00
        -11   -1    0    0    0    0  0.00000000000E+00  0.00000000000E+00  0.45593999997E+02  0.45594000000E+02  0.51100000000E-03 0.  1.
         11   -1    0    0    0    0 -0.00000000000E+00 -0.00000000000E+00 -0.45593999997E+02  0.45594000000E+02  0.51100000000E-03 0. -1.
    9900012    2    1    2    0    0  0.19959926505E+02  0.31924157517E+02 -0.21588682432E+02  0.47787289079E+02  0.20000082228E+02 0.  0.
        -12    1    1    2    0    0 -0.19959926505E+02 -0.31924157517E+02  0.21588682432E+02  0.43400710921E+02  0.00000000000E+00 0.  1.
         11    1    3    3    0    0  0.40727560453E+01 -0.12403070491E+01 -0.63215892996E+01  0.76215611861E+01  0.51100000000E-03 0. -1.
        -11    1    3    3    0    0  0.28763091688E+00  0.28777037459E+01 -0.15464425554E+00  0.28961742870E+01  0.51100000000E-03 0.  1.
         12    1    3    3    0    0  0.15599539542E+02  0.30286760821E+02 -0.15112448877E+02  0.37269553606E+02  0.00000000000E+00 0. -1.
</event>
<event>
 7    1  0.2834226E-010  0.4778727E+02  0.7816164E-02  0.1312668E+00
        -11   -1    0    0    0    0  0.00000000000E+00  0.00000000000E+00  0.45593999997E+02  0.45594000000E+02  0.51100000000E-03 0. -1.
         11   -1    0    0    0    0 -0.00000000000E+00 -0.00000000000E+00 -0.45593999997E+02  0.45594000000E+02  0.51100000000E-03 0.  1.
    9900012    2    1    2    0    0 -0.22584216069E+02  0.35468635273E+02  0.10749527817E+02  0.47787271298E+02  0.20000001155E+02 0.  0.
        -12    1    1    2    0    0  0.22584216069E+02 -0.35468635273E+02 -0.10749527817E+02  0.43400728702E+02  0.00000000000E+00 0.  1.
         11    1    3    3    0    0  0.46425194579E+00  0.49128495922E+01  0.97436713469E-01  0.49356980417E+01  0.51100000000E-03 0. -1.
        -11    1    3    3    0    0 -0.14156089827E+02  0.24564226563E+02  0.91251958488E+00  0.28365979589E+02  0.51100000000E-03 0.  1.
        -12    1    3    3    0    0 -0.88923781875E+01  0.59915591186E+01  0.97395715191E+01  0.14485593667E+02  0.00000000000E+00 0.  1.
</event>
<event>
 7    1  0.2834226E-010  0.4778727E+02  0.7816164E-02  0.1312668E+00
        -11   -1    0    0    0    0  0.00000000000E+00  0.00000000000E+00  0.45593999997E+02  0.45594000000E+02  0.51100000000E-03 0.  1.
         11   -1    0    0    0    0 -0.00000000000E+00 -0.00000000000E+00 -0.45593999997E+02  0.45594000000E+02  0.51100000000E-03 0. -1.
    9900012    2    1    2    0    0 -0.40998627803E+02  0.13709592114E+02  0.38448795738E+01  0.47787268479E+02  0.19999988302E+02 0.  0.
        -12    1    1    2    0    0  0.40998627803E+02 -0.13709592114E+02 -0.38448795738E+01  0.43400731521E+02  0.00000000000E+00 0.  1.
         11    1    3    3    0    0 -0.62042213718E+01  0.35948125577E+01 -0.20132848053E+01  0.74477081121E+01  0.51100000000E-03 0. -1.
        -11    1    3    3    0    0 -0.13964268736E+02 -0.23171816285E+01 -0.30815754510E+01  0.14486760838E+02  0.51100000000E-03 0.  1.
        -12    1    3    3    0    0 -0.20830137695E+02  0.12431961184E+02  0.89397398301E+01  0.25852799529E+02  0.00000000000E+00 0.  1.
</event>
<event>
 7    1  0.2834226E-010  0.4778727E+02  0.7816164E-02  0.1312668E+00
        -11   -1    0    0    0    0  0.00000000000E+00  0.00000000000E+00  0.45593999997E+02  0.45594000000E+02  0.51100000000E-03 0. -1.
         11   -1    0    0    0    0 -0.00000000000E+00 -0.00000000000E+00 -0.45593999997E+02  0.45594000000E+02  0.51100000000E-03 0.  1.
    9900012    2    1    2    0    0 -0.22715709718E+02  0.15611314998E+02  0.33524715832E+02  0.47787271947E+02  0.20000004115E+02 0.  0.
        -12    1    1    2    0    0  0.22715709718E+02 -0.15611314998E+02 -0.33524715832E+02  0.43400728053E+02  0.00000000000E+00 0.  1.
         11    1    3    3    0    0 -0.12693200133E+02  0.23115919058E+01  0.25913929290E+02  0.28948100426E+02  0.51100000000E-03 0. -1.
        -11    1    3    3    0    0 -0.67491425912E+01  0.70193854352E+01  0.23511065802E+01  0.10017504680E+02  0.51100000000E-03 0.  1.
         12    1    3    3    0    0 -0.32733669935E+01  0.62803376566E+01  0.52596799612E+01  0.88216668408E+01  0.00000000000E+00 0. -1.
</event>
<event>
 7    1  0.2834226E-010  0.4778727E+02  0.7816164E-02  0.1312668E+00
        -11   -1    0    0    0    0  0.00000000000E+00  0.00000000000E+00  0.45593999997E+02  0.45594000000E+02  0.51100000000E-03 0.  1.
         11   -1    0    0    0    0 -0.00000000000E+00 -0.00000000000E+00 -0.45593999997E+02  0.45594000000E+02  0.51100000000E-03 0. -1.
    9900012    2    1    2    0    0 -0.19403122762E+02  0.34529467300E+02 -0.17744230590E+02  0.47787274152E+02  0.20000014168E+02 0.  0.
        -12    1    1    2    0    0  0.19403122762E+02 -0.34529467300E+02  0.17744230590E+02  0.43400725848E+02  0.00000000000E+00 0.  1.
         11    1    3    3    0    0 -0.14728054767E+01  0.14728942769E+02 -0.60928989050E+01  0.16007321087E+02  0.51100000000E-03 0. -1.
        -11    1    3    3    0    0 -0.18939859545E+02  0.18966622403E+02 -0.13094338749E+02  0.29831405473E+02  0.51100000000E-03 0.  1.
        -12    1    3    3    0    0  0.10095422594E+01  0.83390212713E+00  0.14430070634E+01  0.19485475915E+01  0.00000000000E+00 0.  1.
</event>
<event>
 7    1  0.2834226E-010  0.4778727E+02  0.7816164E-02  0.1312668E+00
        -11   -1    0    0    0    0  0.00000000000E+00  0.00000000000E+00  0.45593999997E+02  0.45594000000E+02  0.51100000000E-03 0.  1.
         11   -1    0    0    0    0 -0.00000000000E+00 -0.00000000000E+00 -0.45593999997E+02  0.45594000000E+02  0.51100000000E-03 0. -1.
    9900012    2    1    2    0    0  0.10449666474E+02  0.19983012992E+02 -0.37082433167E+02  0.47787272043E+02  0.20000004551E+02 0.  0.
        -12    1    1    2    0    0 -0.10449666474E+02 -0.19983012992E+02  0.37082433167E+02  0.43400727957E+02  0.00000000000E+00 0.  1.
         11    1    3    3    0    0 -0.98669239027E+00  0.70903783304E+00 -0.31182665041E+01  0.33466225920E+01  0.51100000000E-03 0. -1.
        -11    1    3    3    0    0  0.20321499118E+01  0.42023359178E+01 -0.23208823329E+02  0.23673587413E+02  0.51100000000E-03 0.  1.
        -12    1    3    3    0    0  0.94042089523E+01  0.15071639241E+02 -0.10755343334E+02  0.20767062037E+02  0.00000000000E+00 0.  1.
</event>
<event>
 7    1  0.2834226E-010  0.4778727E+02  0.7816164E-02  0.1312668E+00
        -11   -1    0    0    0    0  0.00000000000E+00  0.00000000000E+00  0.45593999997E+02  0.45594000000E+02  0.51100000000E-03 0.  1.
         11   -1    0    0    0    0 -0.00000000000E+00 -0.00000000000E+00 -0.45593999997E+02  0.45594000000E+02  0.51100000000E-03 0. -1.
    9900012    2    1    2    0    0 -0.50000878924E+01 -0.16638296993E+02 -0.39771714628E+02  0.47787273161E+02  0.20000009648E+02 0.  0.
        -12    1    1    2    0    0  0.50000878924E+01  0.16638296993E+02  0.39771714628E+02  0.43400726839E+02  0.00000000000E+00 0.  1.
         11    1    3    3    0    0 -0.31783719070E+00 -0.14067386006E+02 -0.20482544175E+02  0.24850090255E+02  0.51100000000E-03 0. -1.
        -11    1    3    3    0    0 -0.60073536613E+01 -0.51179535581E+00 -0.35249980931E+01  0.69839705265E+01  0.51100000000E-03 0.  1.
        -12    1    3    3    0    0  0.13251029595E+01 -0.20591156311E+01 -0.15764172359E+02  0.15953212379E+02  0.00000000000E+00 0.  1.
</event>
<event>
 7    1  0.2834226E-010  0.4778728E+02  0.7816164E-02  0.1312668E+00
        -11   -1    0    0    0    0  0.00000000000E+00  0.00000000000E+00  0.45593999997E+02  0.45594000000E+02  0.51100000000E-03 0. -1.
         11   -1    0    0    0    0 -0.00000000000E+00 -0.00000000000E+00 -0.45593999997E+02  0.45594000000E+02  0.51100000000E-03 0.  1.
    9900012    2    1    2    0    0  0.27078372705E+02  0.29368327560E+01  0.33789924287E+02  0.47787282975E+02  0.20000054398E+02 0.  0.
        -12    1    1    2    0    0 -0.27078372705E+02 -0.29368327560E+01 -0.33789924287E+02  0.43400717025E+02  0.00000000000E+00 0.  1.
         11    1    3    3    0    0  0.17753755267E+02  0.10657389070E+02  0.18131575323E+02  0.27523259106E+02  0.51100000000E-03 0. -1.
        -11    1    3    3    0    0  0.69860565426E+01 -0.31876515198E+01  0.10514764606E+02  0.13020229768E+02  0.51100000000E-03 0.  1.
         12    1    3    3    0    0  0.23385608951E+01 -0.45329047946E+01  0.51435843574E+01  0.72437941011E+01  0.00000000000E+00 0. -1.
</event>
<event>
 7    1  0.2834226E-010  0.4778727E+02  0.7816164E-02  0.1312668E+00
        -11   -1    0    0    0    0  0.00000000000E+00  0.00000000000E+00  0.45593999997E+02  0.45594000000E+02  0.51100000000E-03 0. -1.
         11   -1    0    0    0    0 -0.00000000000E+00 -0.00000000000E+00 -0.45593999997E+02  0.45594000000E+02  0.51100000000E-03 0.  1.
    9900012    2    1    2    0    0 -0.40853437879E+02  0.20137564269E+01  0.14510844979E+02  0.47787271625E+02  0.20000002648E+02 0.  0.
        -12    1    1    2    0    0  0.40853437879E+02 -0.20137564269E+01 -0.14510844979E+02  0.43400728375E+02  0.00000000000E+00 0.  1.
         11    1    3    3    0    0 -0.31650363290E+02 -0.30228808403E+01  0.13548273195E+02  0.34560656994E+02  0.51100000000E-03 0. -1.
        -11    1    3    3    0    0  0.11377469279E+01  0.14131998252E+01  0.13516657216E+01  0.22624328282E+01  0.51100000000E-03 0.  1.
         12    1    3    3    0    0 -0.10340821516E+02  0.36234374420E+01 -0.38909393775E+00  0.10964181803E+02  0.00000000000E+00 0. -1.
</event>
<event>
 7    1  0.2834226E-010  0.4778727E+02  0.7816164E-02  0.1312668E+00
        -11   -1    0    0    0    0  0.00000000000E+00  0.00000000000E+00  0.45593999997E+02  0.45594000000E+02  0.51100000000E-03 0.  1.
         11   -1    0    0    0    0 -0.00000000000E+00 -0.00000000000E+00 -0.45593999997E+02  0.45594000000E+02  0.51100000000E-03 0. -1.
    9900012    2    1    2    0    0  0.20230035369E+02 -0.63217843786E+01 -0.37873528955E+02  0.47787268621E+02  0.19999988949E+02 0.  0.
        -12    1    1    2    0    0 -0.20230035369E+02  0.63217843786E+01  0.37873528955E+02  0.43400731379E+02  0.00000000000E+00 0.  1.
         11    1    3    3    0    0  0.18917970872E+02 -0.72168494836E+01 -0.23203487980E+02  0.30795687898E+02  0.51100000000E-03 0.  1.
        -11    1    3    3    0    0 -0.12440777486E+01 -0.16187756494E+01 -0.16300089998E+00  0.20481048806E+01  0.51100000000E-03 0. -1.
         12    1    3    3    0    0  0.25561422454E+01  0.25138407544E+01 -0.14507040075E+02  0.14943475842E+02  0.00000000000E+00 0. -1.
</event>
<event>
 7    1  0.2834226E-010  0.4778727E+02  0.7816164E-02  0.1312668E+00
        -11   -1    0    0    0    0  0.00000000000E+00  0.00000000000E+00  0.45593999997E+02  0.45594000000E+02  0.51100000000E-03 0.  1.
         11   -1    0    0    0    0 -0.00000000000E+00 -0.00000000000E+00 -0.45593999997E+02  0.45594000000E+02  0.51100000000E-03 0. -1.
    9900012    2    1    2    0    0  0.19154733486E+02  0.15910369399E+01 -0.38912568039E+02  0.47787272300E+02  0.20000005726E+02 0.  0.
        -12    1    1    2    0    0 -0.19154733486E+02 -0.15910369399E+01  0.38912568039E+02  0.43400727700E+02  0.00000000000E+00 0.  1.
         11    1    3    3    0    0  0.33336164646E+01  0.55597008132E+01 -0.18723787977E+02  0.19814224899E+02  0.51100000000E-03 0. -1.
        -11    1    3    3    0    0  0.32147610289E+01 -0.77389960251E+00  0.68758089474E+00  0.33773327961E+01  0.51100000000E-03 0.  1.
         12    1    3    3    0    0  0.12606355992E+02 -0.31947642708E+01 -0.20876360956E+02  0.24595714605E+02  0.00000000000E+00 0. -1.
</event>
<event>
 7    1  0.2834226E-010  0.4778727E+02  0.7816164E-02  0.1312668E+00
        -11   -1    0    0    0    0  0.00000000000E+00  0.00000000000E+00  0.45593999997E+02  0.45594000000E+02  0.51100000000E-03 0. -1.
         11   -1    0    0    0    0 -0.00000000000E+00 -0.00000000000E+00 -0.45593999997E+02  0.45594000000E+02  0.51100000000E-03 0.  1.
    9900012    2    1    2    0    0 -0.22177748003E+02 -0.37213859899E+02  0.26266432650E+01  0.47787272703E+02  0.20000007562E+02 0.  0.
        -12    1    1    2    0    0  0.22177748003E+02  0.37213859899E+02 -0.26266432650E+01  0.43400727297E+02  0.00000000000E+00 0.  1.
         11    1    3    3    0    0 -0.19190098389E+02 -0.31271007046E+02 -0.34825685350E+01  0.36854633925E+02  0.51100000000E-03 0. -1.
        -11    1    3    3    0    0 -0.20116065312E+01 -0.65881086021E+01  0.67108893174E+01  0.96169522969E+01  0.51100000000E-03 0.  1.
         12    1    3    3    0    0 -0.97604308323E+00  0.64525574961E+00 -0.60167751734E+00  0.13156864815E+01  0.00000000000E+00 0. -1.
</event>
<event>
 7    1  0.2834226E-010  0.4778727E+02  0.7816164E-02  0.1312668E+00
        -11   -1    0    0    0    0  0.00000000000E+00  0.00000000000E+00  0.45593999997E+02  0.45594000000E+02  0.51100000000E-03 0.  1.
         11   -1    0    0    0    0 -0.00000000000E+00 -0.00000000000E+00 -0.45593999997E+02  0.45594000000E+02  0.51100000000E-03 0. -1.
    9900012    2    1    2    0    0  0.20456808507E+02 -0.32574499516E+02 -0.20100856636E+02  0.47787268779E+02  0.19999989673E+02 0.  0.
        -12    1    1    2    0    0 -0.20456808507E+02  0.32574499516E+02  0.20100856636E+02  0.43400731221E+02  0.00000000000E+00 0.  1.
         11    1    3    3    0    0  0.13655724614E+02 -0.30904945019E+02 -0.16950263715E+02  0.37800871440E+02  0.51100000000E-03 0. -1.
        -11    1    3    3    0    0  0.68309717795E+01 -0.11770303964E+01 -0.46904185513E+01  0.83694445726E+01  0.51100000000E-03 0.  1.
         12    1    3    3    0    0 -0.29887887261E-01 -0.49252410110E+00  0.15398256310E+01  0.16169527667E+01  0.00000000000E+00 0. -1.
</event>
<event>
 7    1  0.2834226E-010  0.4778727E+02  0.7816164E-02  0.1312668E+00
        -11   -1    0    0    0    0  0.00000000000E+00  0.00000000000E+00  0.45593999997E+02  0.45594000000E+02  0.51100000000E-03 0.  1.
         11   -1    0    0    0    0 -0.00000000000E+00 -0.00000000000E+00 -0.45593999997E+02  0.45594000000E+02  0.51100000000E-03 0. -1.
    9900012    2    1    2    0    0  0.76291790682E+00 -0.29377908142E+02  0.31937119931E+02  0.47787272356E+02  0.20000005980E+02 0.  0.
        -12    1    1    2    0    0 -0.76291790682E+00  0.29377908142E+02 -0.31937119931E+02  0.43400727644E+02  0.00000000000E+00 0.  1.
         11    1    3    3    0    0  0.54481049909E+01 -0.25868105529E+02  0.23719316899E+02  0.35516851297E+02  0.51100000000E-03 0. -1.
        -11    1    3    3    0    0 -0.59543019820E+01 -0.28332208462E+01  0.37694813743E+01  0.75953829758E+01  0.51100000000E-03 0.  1.
         12    1    3    3    0    0  0.12691148979E+01 -0.67658176708E+00  0.44483216570E+01  0.46750380828E+01  0.00000000000E+00 0. -1.
</event>
<event>
 7    1  0.2834226E-010  0.4778728E+02  0.7816164E-02  0.1312668E+00
        -11   -1    0    0    0    0  0.00000000000E+00  0.00000000000E+00  0.45593999997E+02  0.45594000000E+02  0.51100000000E-03 0.  1.
         11   -1    0    0    0    0 -0.00000000000E+00 -0.00000000000E+00 -0.45593999997E+02  0.45594000000E+02  0.51100000000E-03 0. -1.
    9900012    2    1    2    0    0  0.11787626860E+01 -0.22094964824E+02 -0.37336924805E+02  0.47787275283E+02  0.20000019327E+02 0.  0.
        -12    1    1    2    0    0 -0.11787626860E+01  0.22094964824E+02  0.37336924805E+02  0.43400724717E+02  0.00000000000E+00 0.  1.
         11    1    3    3    0    0  0.16996777172E+01 -0.72874079810E+01 -0.14443649511E+01  0.76211160466E+01  0.51100000000E-03 0.  1.
        -11    1    3    3    0    0 -0.21679945116E+01 -0.10509640954E+02 -0.33068690454E+02  0.34766234219E+02  0.51100000000E-03 0. -1.
         12    1    3    3    0    0  0.16470794804E+01 -0.42979158893E+01 -0.28238693998E+01  0.53999250173E+01  0.00000000000E+00 0. -1.
</event>
<event>
 7    1  0.2834226E-010  0.4778727E+02  0.7816164E-02  0.1312668E+00
        -11   -1    0    0    0    0  0.00000000000E+00  0.00000000000E+00  0.45593999997E+02  0.45594000000E+02  0.51100000000E-03 0.  1.
         11   -1    0    0    0    0 -0.00000000000E+00 -0.00000000000E+00 -0.45593999997E+02  0.45594000000E+02  0.51100000000E-03 0. -1.
    9900012    2    1    2    0    0 -0.22819749846E+02 -0.24316031774E+02 -0.27777919357E+02  0.47787272033E+02  0.20000004507E+02 0.  0.
        -12    1    1    2    0    0  0.22819749846E+02  0.24316031774E+02  0.27777919357E+02  0.43400727967E+02  0.00000000000E+00 0.  1.
         11    1    3    3    0    0 -0.40677759466E+01 -0.12066675422E+02 -0.40235898898E+01  0.13354427459E+02  0.51100000000E-03 0. -1.
        -11    1    3    3    0    0 -0.18174058272E+02 -0.67601859731E+01 -0.17956797222E+02  0.26428073619E+02  0.51100000000E-03 0.  1.
        -12    1    3    3    0    0 -0.57791562821E+00 -0.54891703784E+01 -0.57975322450E+01  0.80047709554E+01  0.00000000000E+00 0.  1.
</event>
<event>
 7    1  0.2834226E-010  0.4778727E+02  0.7816164E-02  0.1312668E+00
        -11   -1    0    0    0    0  0.00000000000E+00  0.00000000000E+00  0.45593999997E+02  0.45594000000E+02  0.51100000000E-03 0.  1.
         11   -1    0    0    0    0 -0.00000000000E+00 -0.00000000000E+00 -0.45593999997E+02  0.45594000000E+02  0.51100000000E-03 0. -1.
    9900012    2    1    2    0    0  0.28231662563E+01 -0.18709275177E+01 -0.43268381408E+02  0.47787268817E+02  0.19999989845E+02 0.  0.
        -12    1    1    2    0    0 -0.28231662563E+01  0.18709275177E+01  0.43268381408E+02  0.43400731183E+02  0.00000000000E+00 0.  1.
         11    1    3    3    0    0  0.37252420608E+01  0.17714426036E-03 -0.40951929450E+02  0.41121015970E+02  0.51100000000E-03 0. -1.
        -11    1    3    3    0    0  0.23664218978E+01 -0.44162387716E+00  0.99623808921E-02  0.24072980201E+01  0.51100000000E-03 0.  1.
         12    1    3    3    0    0 -0.32684977023E+01 -0.14294807848E+01 -0.23264143394E+01  0.42589548275E+01  0.00000000000E+00 0. -1.
</event>
<event>
 7    1  0.2834226E-010  0.4778727E+02  0.7816164E-02  0.1312668E+00
        -11   -1    0    0    0    0  0.00000000000E+00  0.00000000000E+00  0.45593999997E+02  0.45594000000E+02  0.51100000000E-03 0. -1.
         11   -1    0    0    0    0 -0.00000000000E+00 -0.00000000000E+00 -0.45593999997E+02  0.45594000000E+02  0.51100000000E-03 0.  1.
    9900012    2    1    2    0    0  0.12009896431E+02 -0.51991856238E+00  0.41702701874E+02  0.47787271075E+02  0.20000000139E+02 0.  0.
        -12    1    1    2    0    0 -0.12009896431E+02  0.51991856238E+00 -0.41702701874E+02  0.43400728925E+02  0.00000000000E+00 0.  1.
         11    1    3    3    0    0  0.49360852158E+00 -0.77301666893E+01  0.73764431984E+01  0.10696309688E+02  0.51100000000E-03 0. -1.
        -11    1    3    3    0    0  0.80830749699E+01  0.67922452782E+01  0.26942868612E+02  0.28937672094E+02  0.51100000000E-03 0.  1.
         12    1    3    3    0    0  0.34332129395E+01  0.41800284865E+00  0.73833900639E+01  0.81532892937E+01  0.00000000000E+00 0. -1.
</event>
<event>
 7    1  0.2834226E-010  0.4778726E+02  0.7816164E-02  0.1312668E+00
        -11   -1    0    0    0    0  0.00000000000E+00  0.00000000000E+00  0.45593999997E+02  0.45594000000E+02  0.51100000000E-03 0.  1.
         11   -1    0    0    0    0 -0.00000000000E+00 -0.00000000000E+00 -0.45593999997E+02  0.45594000000E+02  0.51100000000E-03 0. -1.
    9900012    2    1    2    0    0 -0.43604262104E+01  0.20125474804E+02 -0.38204400745E+02  0.47787259349E+02  0.19999946674E+02 0.  0.
        -12    1    1    2    0    0  0.43604262104E+01 -0.20125474804E+02  0.38204400745E+02  0.43400740651E+02  0.00000000000E+00 0.  1.
         11    1    3    3    0    0 -0.48284955883E+01  0.18162330138E+02 -0.35493257342E+02  0.40161622510E+02  0.51100000000E-03 0. -1.
        -11    1    3    3    0    0 -0.30243569685E+00 -0.24349795803E+01 -0.18627290046E+01  0.30806415748E+01  0.51100000000E-03 0.  1.
         12    1    3    3    0    0  0.77050507473E+00  0.43981242460E+01 -0.84841439869E+00  0.45449952635E+01  0.00000000000E+00 0. -1.
</event>
<event>
 7    1  0.2834226E-010  0.4778726E+02  0.7816164E-02  0.1312668E+00
        -11   -1    0    0    0    0  0.00000000000E+00  0.00000000000E+00  0.45593999997E+02  0.45594000000E+02  0.51100000000E-03 0. -1.
         11   -1    0    0    0    0 -0.00000000000E+00 -0.00000000000E+00 -0.45593999997E+02  0.45594000000E+02  0.51100000000E-03 0.  1.
    9900012    2    1    2    0    0  0.24178025883E+02  0.21020053053E+01  0.35980946823E+02  0.47787263875E+02  0.19999967310E+02 0.  0.
        -12    1    1    2    0    0 -0.24178025883E+02 -0.21020053053E+01 -0.35980946823E+02  0.43400736125E+02  0.00000000000E+00 0.  1.
         11    1    3    3    0    0  0.14002760467E+02  0.74741993496E+01  0.26875392834E+02  0.31212620795E+02  0.51100000000E-03 0. -1.
        -11    1    3    3    0    0  0.10813660800E+02 -0.29100811433E+01  0.65710947314E+01  0.12983956192E+02  0.51100000000E-03 0.  1.
         12    1    3    3    0    0 -0.63839538361E+00 -0.24621129009E+01  0.25344592575E+01  0.35906868884E+01  0.00000000000E+00 0. -1.
</event>
<event>
 7    1  0.2834226E-010  0.4778728E+02  0.7816164E-02  0.1312668E+00
        -11   -1    0    0    0    0  0.00000000000E+00  0.00000000000E+00  0.45593999997E+02  0.45594000000E+02  0.51100000000E-03 0.  1.
         11   -1    0    0    0    0 -0.00000000000E+00 -0.00000000000E+00 -0.45593999997E+02  0.45594000000E+02  0.51100000000E-03 0. -1.
    9900012    2    1    2    0    0  0.66833954150E+01 -0.27025535159E+02 -0.33295273758E+02  0.47787279044E+02  0.20000036471E+02 0.  0.
        -12    1    1    2    0    0 -0.66833954150E+01  0.27025535159E+02  0.33295273758E+02  0.43400720956E+02  0.00000000000E+00 0.  1.
         11    1    3    3    0    0 -0.32227930445E+01 -0.35944032056E+01 -0.88298191014E+01  0.10063390832E+02  0.51100000000E-03 0. -1.
        -11    1    3    3    0    0  0.79625393249E+01 -0.44555392034E+01 -0.47324073146E+01  0.10278596273E+02  0.51100000000E-03 0.  1.
        -12    1    3    3    0    0  0.19436491346E+01 -0.18975592750E+02 -0.19733047342E+02  0.27445291938E+02  0.00000000000E+00 0.  1.
</event>
<event>
 7    1  0.2834226E-010  0.4778727E+02  0.7816164E-02  0.1312668E+00
        -11   -1    0    0    0    0  0.00000000000E+00  0.00000000000E+00  0.45593999997E+02  0.45594000000E+02  0.51100000000E-03 0.  1.
         11   -1    0    0    0    0 -0.00000000000E+00 -0.00000000000E+00 -0.45593999997E+02  0.45594000000E+02  0.51100000000E-03 0. -1.
    9900012    2    1    2    0    0  0.10260256905E+02  0.59170015255E+01 -0.41753321356E+02  0.47787267022E+02  0.19999981660E+02 0.  0.
        -12    1    1    2    0    0 -0.10260256905E+02 -0.59170015255E+01  0.41753321356E+02  0.43400732978E+02  0.00000000000E+00 0.  1.
         11    1    3    3    0    0  0.69335698661E+01  0.73790780803E+01 -0.36826654680E+02  0.38193293647E+02  0.51100000000E-03 0. -1.
        -11    1    3    3    0    0 -0.19931474612E+01  0.56096460233E+00 -0.65144460317E-02  0.20705943075E+01  0.51100000000E-03 0.  1.
         12    1    3    3    0    0  0.53198345004E+01 -0.20230411571E+01 -0.49201522293E+01  0.75233790676E+01  0.00000000000E+00 0. -1.
</event>
<event>
 7    1  0.2834226E-010  0.4778726E+02  0.7816164E-02  0.1312668E+00
        -11   -1    0    0    0    0  0.00000000000E+00  0.00000000000E+00  0.45593999997E+02  0.45594000000E+02  0.51100000000E-03 0.  1.
         11   -1    0    0    0    0 -0.00000000000E+00 -0.00000000000E+00 -0.45593999997E+02  0.45594000000E+02  0.51100000000E-03 0. -1.
    9900012    2    1    2    0    0 -0.59065838972E+00 -0.14039197007E+02 -0.41063074598E+02  0.47787262387E+02  0.19999960529E+02 0.  0.
        -12    1    1    2    0    0  0.59065838972E+00  0.14039197007E+02  0.41063074598E+02  0.43400737613E+02  0.00000000000E+00 0.  1.
         11    1    3    3    0    0 -0.16454723530E+01  0.14551577689E+01 -0.12330063011E+02  0.12524197280E+02  0.51100000000E-03 0. -1.
        -11    1    3    3    0    0 -0.58343308380E+01 -0.10061239493E+02 -0.17438595326E+02  0.20961215701E+02  0.51100000000E-03 0.  1.
        -12    1    3    3    0    0  0.68891448013E+01 -0.54331152826E+01 -0.11294416260E+02  0.14301849406E+02  0.00000000000E+00 0.  1.
</event>
<event>
 7    1  0.2834226E-010  0.4778727E+02  0.7816164E-02  0.1312668E+00
        -11   -1    0    0    0    0  0.00000000000E+00  0.00000000000E+00  0.45593999997E+02  0.45594000000E+02  0.51100000000E-03 0.  1.
         11   -1    0    0    0    0 -0.00000000000E+00 -0.00000000000E+00 -0.45593999997E+02  0.45594000000E+02  0.51100000000E-03 0. -1.
    9900012    2    1    2    0    0 -0.20703930753E+02 -0.36267503811E+02 -0.11816867604E+02  0.47787274876E+02  0.20000017470E+02 0.  0.
        -12    1    1    2    0    0  0.20703930753E+02  0.36267503811E+02  0.11816867604E+02  0.43400725124E+02  0.00000000000E+00 0.  1.
         11    1    3    3    0    0 -0.38721232044E+01 -0.21351205450E+02 -0.41215856886E+01  0.22087434915E+02  0.51100000000E-03 0. -1.
        -11    1    3    3    0    0 -0.90761625554E+01 -0.17588352304E+01 -0.30811343086E+01  0.97449277569E+01  0.51100000000E-03 0.  1.
        -12    1    3    3    0    0 -0.77556449932E+01 -0.13157463131E+02 -0.46141476072E+01  0.15954912204E+02  0.00000000000E+00 0.  1.
</event>
<event>
 7    1  0.2834226E-010  0.4778727E+02  0.7816164E-02  0.1312668E+00
        -11   -1    0    0    0    0  0.00000000000E+00  0.00000000000E+00  0.45593999997E+02  0.45594000000E+02  0.51100000000E-03 0. -1.
         11   -1    0    0    0    0 -0.00000000000E+00 -0.00000000000E+00 -0.45593999997E+02  0.45594000000E+02  0.51100000000E-03 0.  1.
    9900012    2    1    2    0    0  0.29201517561E+02  0.28360543016E+02  0.15052376887E+02  0.47787273301E+02  0.20000010288E+02 0.  0.
        -12    1    1    2    0    0 -0.29201517561E+02 -0.28360543016E+02 -0.15052376887E+02  0.43400726699E+02  0.00000000000E+00 0.  1.
         11    1    3    3    0    0  0.18795909178E+01  0.32096722449E+01 -0.17281891149E+01  0.41014016892E+01  0.51100000000E-03 0. -1.
        -11    1    3    3    0    0  0.24130892143E+02  0.19678298775E+02  0.19556453606E+02  0.36769420395E+02  0.51100000000E-03 0.  1.
        -12    1    3    3    0    0  0.31910345008E+01  0.54725719961E+01 -0.27758876043E+01  0.69164512164E+01  0.00000000000E+00 0.  1.
</event>
<event>
 7    1  0.2834226E-010  0.4778727E+02  0.7816164E-02  0.1312668E+00
        -11   -1    0    0    0    0  0.00000000000E+00  0.00000000000E+00  0.45593999997E+02  0.45594000000E+02  0.51100000000E-03 0.  1.
         11   -1    0    0    0    0 -0.00000000000E+00 -0.00000000000E+00 -0.45593999997E+02  0.45594000000E+02  0.51100000000E-03 0. -1.
    9900012    2    1    2    0    0 -0.11628470007E+02  0.36292472564E+02 -0.20766766149E+02  0.47787268948E+02  0.19999990442E+02 0.  0.
        -12    1    1    2    0    0  0.11628470007E+02 -0.36292472564E+02  0.20766766149E+02  0.43400731052E+02  0.00000000000E+00 0.  1.
         11    1    3    3    0    0  0.32622890445E+01  0.74225493184E+01  0.16464392558E+01  0.82733022837E+01  0.51100000000E-03 0. -1.
        -11    1    3    3    0    0 -0.99303945060E+01  0.18678550865E+02 -0.15663910065E+02  0.26322216401E+02  0.51100000000E-03 0.  1.
         12    1    3    3    0    0 -0.49603645457E+01  0.10191372381E+02 -0.67492953405E+01  0.13191750264E+02  0.00000000000E+00 0. -1.
</event>
<event>
 7    1  0.2834226E-010  0.4778727E+02  0.7816164E-02  0.1312668E+00
        -11   -1    0    0    0    0  0.00000000000E+00  0.00000000000E+00  0.45593999997E+02  0.45594000000E+02  0.51100000000E-03 0. -1.
         11   -1    0    0    0    0 -0.00000000000E+00 -0.00000000000E+00 -0.45593999997E+02  0.45594000000E+02  0.51100000000E-03 0.  1.
    9900012    2    1    2    0    0 -0.15120410838E+02  0.30194024571E+02  0.27263847705E+02  0.47787270336E+02  0.19999996771E+02 0.  0.
        -12    1    1    2    0    0  0.15120410838E+02 -0.30194024571E+02 -0.27263847705E+02  0.43400729664E+02  0.00000000000E+00 0.  1.
         11    1    3    3    0    0 -0.34848732777E+00  0.12338990858E+02  0.15414937066E+01  0.12439788661E+02  0.51100000000E-03 0.  1.
        -11    1    3    3    0    0 -0.12955536776E+02  0.12832351179E+02  0.16021599830E+02  0.24273582993E+02  0.51100000000E-03 0. -1.
         12    1    3    3    0    0 -0.18163867339E+01  0.50226825328E+01  0.97007541679E+01  0.11073898682E+02  0.00000000000E+00 0. -1.
</event>
<event>
 7    1  0.2834226E-010  0.4778727E+02  0.7816164E-02  0.1312668E+00
        -11   -1    0    0    0    0  0.00000000000E+00  0.00000000000E+00  0.45593999997E+02  0.45594000000E+02  0.51100000000E-03 0. -1.
         11   -1    0    0    0    0 -0.00000000000E+00 -0.00000000000E+00 -0.45593999997E+02  0.45594000000E+02  0.51100000000E-03 0.  1.
    9900012    2    1    2    0    0  0.25583650424E+02 -0.34210490102E+02 -0.76643670082E+01  0.47787270471E+02  0.19999997384E+02 0.  0.
        -12    1    1    2    0    0 -0.25583650424E+02  0.34210490102E+02  0.76643670082E+01  0.43400729529E+02  0.00000000000E+00 0.  1.
         11    1    3    3    0    0  0.89281376397E+01 -0.20202284836E+02 -0.96147453144E+01  0.24089152787E+02  0.51100000000E-03 0. -1.
        -11    1    3    3    0    0  0.14739951522E+02 -0.15280813443E+02  0.11477996647E+01  0.21262334648E+02  0.51100000000E-03 0.  1.
        -12    1    3    3    0    0  0.19155612620E+01  0.12726081763E+01  0.80257864153E+00  0.24357830352E+01  0.00000000000E+00 0.  1.
</event>
<event>
 7    1  0.2834226E-010  0.4778727E+02  0.7816164E-02  0.1312668E+00
        -11   -1    0    0    0    0  0.00000000000E+00  0.00000000000E+00  0.45593999997E+02  0.45594000000E+02  0.51100000000E-03 0. -1.
         11   -1    0    0    0    0 -0.00000000000E+00 -0.00000000000E+00 -0.45593999997E+02  0.45594000000E+02  0.51100000000E-03 0.  1.
    9900012    2    1    2    0    0  0.11266853649E+02 -0.41878915609E+02 -0.16845126379E+01  0.47787272511E+02  0.20000006685E+02 0.  0.
        -12    1    1    2    0    0 -0.11266853649E+02  0.41878915609E+02  0.16845126379E+01  0.43400727489E+02  0.00000000000E+00 0.  1.
         11    1    3    3    0    0  0.99988818657E+01 -0.28408479634E+02  0.54700262565E+01  0.30609484497E+02  0.51100000000E-03 0. -1.
        -11    1    3    3    0    0 -0.29158309026E+01 -0.79020270961E+01 -0.53656863167E+01  0.99867257893E+01  0.51100000000E-03 0.  1.
        -12    1    3    3    0    0  0.41838026862E+01 -0.55684088795E+01 -0.17888525777E+01  0.71910622241E+01  0.00000000000E+00 0.  1.
</event>
<event>
 7    1  0.2834226E-010  0.4778727E+02  0.7816164E-02  0.1312668E+00
        -11   -1    0    0    0    0  0.00000000000E+00  0.00000000000E+00  0.45593999997E+02  0.45594000000E+02  0.51100000000E-03 0.  1.
         11   -1    0    0    0    0 -0.00000000000E+00 -0.00000000000E+00 -0.45593999997E+02  0.45594000000E+02  0.51100000000E-03 0. -1.
    9900012    2    1    2    0    0  0.39134909440E+02  0.16584509568E+02 -0.87770257142E+01  0.47787271033E+02  0.19999999947E+02 0.  0.
        -12    1    1    2    0    0 -0.39134909440E+02 -0.16584509568E+02  0.87770257142E+01  0.43400728967E+02  0.00000000000E+00 0.  1.
         11    1    3    3    0    0  0.31989209591E+02  0.11565563309E+02 -0.98795182535E+01  0.35421415360E+02  0.51100000000E-03 0. -1.
        -11    1    3    3    0    0 -0.11509183207E+01 -0.13870342875E+01 -0.15391810441E+00  0.18089135246E+01  0.51100000000E-03 0.  1.
        -12    1    3    3    0    0  0.82966181697E+01  0.64059805463E+01  0.12564106437E+01  0.10556942148E+02  0.00000000000E+00 0.  1.
</event>
<event>
 7    1  0.2834226E-010  0.4778727E+02  0.7816164E-02  0.1312668E+00
        -11   -1    0    0    0    0  0.00000000000E+00  0.00000000000E+00  0.45593999997E+02  0.45594000000E+02  0.51100000000E-03 0.  1.
         11   -1    0    0    0    0 -0.00000000000E+00 -0.00000000000E+00 -0.45593999997E+02  0.45594000000E+02  0.51100000000E-03 0. -1.
    9900012    2    1    2    0    0  0.19478764971E+02  0.38744873297E+02 -0.17423141548E+01  0.47787272469E+02  0.20000006494E+02 0.  0.
        -12    1    1    2    0    0 -0.19478764971E+02 -0.38744873297E+02  0.17423141548E+01  0.43400727531E+02  0.00000000000E+00 0.  1.
         11    1    3    3    0    0  0.64344938334E+01  0.31479018683E+02 -0.12118972192E+01  0.32152760741E+02  0.51100000000E-03 0. -1.
        -11    1    3    3    0    0  0.43179384831E+01  0.55128756338E+00 -0.14434605616E+01  0.45860755963E+01  0.51100000000E-03 0.  1.
         12    1    3    3    0    0  0.87263326547E+01  0.67145670506E+01  0.91304362596E+00  0.11048436131E+02  0.00000000000E+00 0. -1.
</event>
<event>
 7    1  0.2834226E-010  0.4778727E+02  0.7816164E-02  0.1312668E+00
        -11   -1    0    0    0    0  0.00000000000E+00  0.00000000000E+00  0.45593999997E+02  0.45594000000E+02  0.51100000000E-03 0.  1.
         11   -1    0    0    0    0 -0.00000000000E+00 -0.00000000000E+00 -0.45593999997E+02  0.45594000000E+02  0.51100000000E-03 0. -1.
    9900012    2    1    2    0    0 -0.37038762589E+02 -0.21016188803E+02 -0.83709514383E+01  0.47787274731E+02  0.20000016808E+02 0.  0.
        -12    1    1    2    0    0  0.37038762589E+02  0.21016188803E+02  0.83709514383E+01  0.43400725269E+02  0.00000000000E+00 0.  1.
         11    1    3    3    0    0 -0.30520216093E+02 -0.11893026269E+02 -0.11750733136E+02  0.34799531516E+02  0.51100000000E-03 0. -1.
        -11    1    3    3    0    0 -0.34959402292E-01 -0.76107932259E+00 -0.12293369547E+01  0.14462826503E+01  0.51100000000E-03 0.  1.
         12    1    3    3    0    0 -0.64835870935E+01 -0.83620832109E+01  0.46091186521E+01  0.11541460565E+02  0.00000000000E+00 0. -1.
</event>
<event>
 7    1  0.2834226E-010  0.4778727E+02  0.7816164E-02  0.1312668E+00
        -11   -1    0    0    0    0  0.00000000000E+00  0.00000000000E+00  0.45593999997E+02  0.45594000000E+02  0.51100000000E-03 0.  1.
         11   -1    0    0    0    0 -0.00000000000E+00 -0.00000000000E+00 -0.45593999997E+02  0.45594000000E+02  0.51100000000E-03 0. -1.
    9900012    2    1    2    0    0 -0.26327346339E+01  0.33671016904E+02  0.27257193606E+02  0.47787271040E+02  0.19999999979E+02 0.  0.
        -12    1    1    2    0    0  0.26327346339E+01 -0.33671016904E+02 -0.27257193606E+02  0.43400728960E+02  0.00000000000E+00 0.  1.
         11    1    3    3    0    0  0.68408975714E+01  0.84441077237E+01  0.10134775158E+02  0.14859828485E+02  0.51100000000E-03 0. -1.
        -11    1    3    3    0    0 -0.90295856302E+01  0.15549023915E+02  0.82210807154E+01  0.19770982013E+02  0.51100000000E-03 0.  1.
        -12    1    3    3    0    0 -0.44404657505E+00  0.96778852659E+01  0.89013377325E+01  0.13156460543E+02  0.00000000000E+00 0.  1.
</event>
<event>
 7    1  0.2834226E-010  0.4778727E+02  0.7816164E-02  0.1312668E+00
        -11   -1    0    0    0    0  0.00000000000E+00  0.00000000000E+00  0.45593999997E+02  0.45594000000E+02  0.51100000000E-03 0.  1.
         11   -1    0    0    0    0 -0.00000000000E+00 -0.00000000000E+00 -0.45593999997E+02  0.45594000000E+02  0.51100000000E-03 0. -1.
    9900012    2    1    2    0    0  0.31645550297E+02 -0.29492816743E+02  0.35150979522E+01  0.47787274124E+02  0.20000014039E+02 0.  0.
        -12    1    1    2    0    0 -0.31645550297E+02  0.29492816743E+02 -0.35150979522E+01  0.43400725876E+02  0.00000000000E+00 0.  1.
         11    1    3    3    0    0  0.21551597086E+02 -0.25100898660E+02 -0.19664832475E+01  0.33142020263E+02  0.51100000000E-03 0. -1.
        -11    1    3    3    0    0  0.19851855951E+01 -0.13186245913E+01 -0.20621621132E+01  0.31515465254E+01  0.51100000000E-03 0.  1.
         12    1    3    3    0    0  0.81087676158E+01 -0.30732934911E+01  0.75437433129E+01  0.11493707335E+02  0.00000000000E+00 0. -1.
</event>
<event>
 7    1  0.2834226E-010  0.4778727E+02  0.7816164E-02  0.1312668E+00
        -11   -1    0    0    0    0  0.00000000000E+00  0.00000000000E+00  0.45593999997E+02  0.45594000000E+02  0.51100000000E-03 0.  1.
         11   -1    0    0    0    0 -0.00000000000E+00 -0.00000000000E+00 -0.45593999997E+02  0.45594000000E+02  0.51100000000E-03 0. -1.
    9900012    2    1    2    0    0  0.18925567562E+02 -0.35688289404E+02 -0.15867966325E+02  0.47787268860E+02  0.19999990042E+02 0.  0.
        -12    1    1    2    0    0 -0.18925567562E+02  0.35688289404E+02  0.15867966325E+02  0.43400731140E+02  0.00000000000E+00 0.  1.
         11    1    3    3    0    0  0.90959498898E+01 -0.19035233171E+02  0.21966258974E+01  0.21210883335E+02  0.51100000000E-03 0. -1.
        -11    1    3    3    0    0  0.46411974540E+01 -0.96756369466E+01 -0.88803777802E+01  0.13929098101E+02  0.51100000000E-03 0.  1.
         12    1    3    3    0    0  0.51884202185E+01 -0.69774192870E+01 -0.91842144424E+01  0.12647287424E+02  0.00000000000E+00 0. -1.
</event>
<event>
 7    1  0.2834226E-010  0.4778725E+02  0.7816164E-02  0.1312668E+00
        -11   -1    0    0    0    0  0.00000000000E+00  0.00000000000E+00  0.45593999997E+02  0.45594000000E+02  0.51100000000E-03 0. -1.
         11   -1    0    0    0    0 -0.00000000000E+00 -0.00000000000E+00 -0.45593999997E+02  0.45594000000E+02  0.51100000000E-03 0.  1.
    9900012    2    1    2    0    0 -0.22003878701E+02  0.29445841748E+02  0.23073727961E+02  0.47787248899E+02  0.19999899028E+02 0.  0.
        -12    1    1    2    0    0  0.22003878701E+02 -0.29445841748E+02 -0.23073727961E+02  0.43400751101E+02  0.00000000000E+00 0.  1.
         11    1    3    3    0    0 -0.63775269130E+00  0.34568414285E+01  0.23672869308E+01  0.42379864123E+01  0.51100000000E-03 0. -1.
        -11    1    3    3    0    0 -0.21136875668E+02  0.25027914442E+02  0.12155874292E+02  0.34941798671E+02  0.51100000000E-03 0.  1.
        -12    1    3    3    0    0 -0.22925034214E+00  0.96108587767E+00  0.85505667381E+01  0.86074638150E+01  0.00000000000E+00 0.  1.
</event>
<event>
 7    1  0.2834226E-010  0.4778727E+02  0.7816164E-02  0.1312668E+00
        -11   -1    0    0    0    0  0.00000000000E+00  0.00000000000E+00  0.45593999997E+02  0.45594000000E+02  0.51100000000E-03 0.  1.
         11   -1    0    0    0    0 -0.00000000000E+00 -0.00000000000E+00 -0.45593999997E+02  0.45594000000E+02  0.51100000000E-03 0. -1.
    9900012    2    1    2    0    0 -0.13200618295E+00 -0.43046747129E+02 -0.55302125289E+01  0.47787272879E+02  0.20000008363E+02 0.  0.
        -12    1    1    2    0    0  0.13200618295E+00  0.43046747129E+02  0.55302125289E+01  0.43400727121E+02  0.00000000000E+00 0.  1.
         11    1    3    3    0    0  0.49344997577E+01 -0.24528636237E+02 -0.54654443985E+01  0.25610044245E+02  0.51100000000E-03 0. -1.
        -11    1    3    3    0    0 -0.20635735606E+01  0.10720955110E+01  0.36285129253E+00  0.23535900124E+01  0.51100000000E-03 0.  1.
        -12    1    3    3    0    0 -0.30029323800E+01 -0.19590206403E+02 -0.42761942290E+00  0.19823638621E+02  0.00000000000E+00 0.  1.
</event>
<event>
 7    1  0.2834226E-010  0.4778727E+02  0.7816164E-02  0.1312668E+00
        -11   -1    0    0    0    0  0.00000000000E+00  0.00000000000E+00  0.45593999997E+02  0.45594000000E+02  0.51100000000E-03 0.  1.
         11   -1    0    0    0    0 -0.00000000000E+00 -0.00000000000E+00 -0.45593999997E+02  0.45594000000E+02  0.51100000000E-03 0. -1.
    9900012    2    1    2    0    0 -0.41333167330E+02 -0.52274148108E+01  0.12160032326E+02  0.47787274507E+02  0.20000015789E+02 0.  0.
        -12    1    1    2    0    0  0.41333167330E+02  0.52274148108E+01 -0.12160032326E+02  0.43400725493E+02  0.00000000000E+00 0.  1.
         11    1    3    3    0    0 -0.25158247666E+02  0.34774548589E+01  0.41750721440E+01  0.25738324452E+02  0.51100000000E-03 0.  1.
        -11    1    3    3    0    0 -0.58037360152E+01  0.26344154756E+00  0.57183805210E+01  0.81518482092E+01  0.51100000000E-03 0. -1.
         12    1    3    3    0    0 -0.10371183649E+02 -0.89683112173E+01  0.22665796610E+01  0.13897101846E+02  0.00000000000E+00 0. -1.
</event>
<event>
 7    1  0.2834226E-010  0.4778723E+02  0.7816164E-02  0.1312668E+00
        -11   -1    0    0    0    0  0.00000000000E+00  0.00000000000E+00  0.45593999997E+02  0.45594000000E+02  0.51100000000E-03 0. -1.
         11   -1    0    0    0    0 -0.00000000000E+00 -0.00000000000E+00 -0.45593999997E+02  0.45594000000E+02  0.51100000000E-03 0.  1.
    9900012    2    1    2    0    0 -0.35488772240E+01 -0.43120144314E+02  0.34184524288E+01  0.47787225903E+02  0.19999794180E+02 0.  0.
        -12    1    1    2    0    0  0.35488772240E+01  0.43120144314E+02 -0.34184524288E+01  0.43400774097E+02  0.00000000000E+00 0.  1.
         11    1    3    3    0    0  0.19348122379E+01 -0.33563270343E+02 -0.94320136935E+00  0.33632220319E+02  0.51100000000E-03 0. -1.
        -11    1    3    3    0    0 -0.19441164170E+01 -0.24833459808E+01  0.53229380576E+01  0.61871047938E+01  0.51100000000E-03 0.  1.
         12    1    3    3    0    0 -0.35395730449E+01 -0.70735279903E+01 -0.96128425942E+00  0.79679007899E+01  0.00000000000E+00 0. -1.
</event>
<event>
 7    1  0.2834226E-010  0.4778727E+02  0.7816164E-02  0.1312668E+00
        -11   -1    0    0    0    0  0.00000000000E+00  0.00000000000E+00  0.45593999997E+02  0.45594000000E+02  0.51100000000E-03 0.  1.
         11   -1    0    0    0    0 -0.00000000000E+00 -0.00000000000E+00 -0.45593999997E+02  0.45594000000E+02  0.51100000000E-03 0. -1.
    9900012    2    1    2    0    0  0.17969670383E+02  0.87462857214E+01 -0.38525536136E+02  0.47787268415E+02  0.19999988011E+02 0.  0.
        -12    1    1    2    0    0 -0.17969670383E+02 -0.87462857214E+01  0.38525536136E+02  0.43400731585E+02  0.00000000000E+00 0.  1.
         11    1    3    3    0    0 -0.13703815153E-01  0.69207383933E+01 -0.13478194095E+02  0.15151188865E+02  0.51100000000E-03 0. -1.
        -11    1    3    3    0    0  0.12994795987E+02 -0.36015505760E+01 -0.14931130626E+02  0.20119009701E+02  0.51100000000E-03 0.  1.
         12    1    3    3    0    0  0.49885782110E+01  0.54270979041E+01 -0.10116211415E+02  0.12517069849E+02  0.00000000000E+00 0. -1.
</event>
<event>
 7    1  0.2834226E-010  0.4778728E+02  0.7816164E-02  0.1312668E+00
        -11   -1    0    0    0    0  0.00000000000E+00  0.00000000000E+00  0.45593999997E+02  0.45594000000E+02  0.51100000000E-03 0.  1.
         11   -1    0    0    0    0 -0.00000000000E+00 -0.00000000000E+00 -0.45593999997E+02  0.45594000000E+02  0.51100000000E-03 0. -1.
    9900012    2    1    2    0    0  0.24554470089E+02 -0.18297965881E+02 -0.30755247686E+02  0.47787276308E+02  0.20000024000E+02 0.  0.
        -12    1    1    2    0    0 -0.24554470089E+02  0.18297965881E+02  0.30755247686E+02  0.43400723692E+02  0.00000000000E+00 0.  1.
         11    1    3    3    0    0  0.11191026276E+00  0.32777197935E+01 -0.27295652942E+01  0.42669073002E+01  0.51100000000E-03 0. -1.
        -11    1    3    3    0    0  0.10746159304E+02 -0.13811610709E+02 -0.15961245303E+02  0.23685478295E+02  0.51100000000E-03 0.  1.
         12    1    3    3    0    0  0.13696400522E+02 -0.77640749650E+01 -0.12064437089E+02  0.19834890713E+02  0.00000000000E+00 0. -1.
</event>
<event>
 7    1  0.2834226E-010  0.4778727E+02  0.7816164E-02  0.1312668E+00
        -11   -1    0    0    0    0  0.00000000000E+00  0.00000000000E+00  0.45593999997E+02  0.45594000000E+02  0.51100000000E-03 0.  1.
         11   -1    0    0    0    0 -0.00000000000E+00 -0.00000000000E+00 -0.45593999997E+02  0.45594000000E+02  0.51100000000E-03 0. -1.
    9900012    2    1    2    0    0  0.20787533354E+02  0.77687090932E+01 -0.37298109427E+02  0.47787270159E+02  0.19999995962E+02 0.  0.
        -12    1    1    2    0    0 -0.20787533354E+02 -0.77687090932E+01  0.37298109427E+02  0.43400729841E+02  0.00000000000E+00 0.  1.
         11    1    3    3    0    0  0.69031232125E+01  0.80617317099E+01 -0.15880898764E+02  0.19100983589E+02  0.51100000000E-03 0. -1.
        -11    1    3    3    0    0 -0.65148426324E+00 -0.34448373374E+01 -0.76670303608E+01  0.84305806941E+01  0.51100000000E-03 0.  1.
        -12    1    3    3    0    0  0.14535894405E+02  0.31518147208E+01 -0.13750180303E+02  0.20255705876E+02  0.00000000000E+00 0.  1.
</event>
<event>
 7    1  0.2834226E-010  0.4778727E+02  0.7816164E-02  0.1312668E+00
        -11   -1    0    0    0    0  0.00000000000E+00  0.00000000000E+00  0.45593999997E+02  0.45594000000E+02  0.51100000000E-03 0.  1.
         11   -1    0    0    0    0 -0.00000000000E+00 -0.00000000000E+00 -0.45593999997E+02  0.45594000000E+02  0.51100000000E-03 0. -1.
    9900012    2    1    2    0    0 -0.58073898213E+01 -0.42505501147E+02 -0.65711390284E+01  0.47787271061E+02  0.20000000076E+02 0.  0.
        -12    1    1    2    0    0  0.58073898213E+01  0.42505501147E+02  0.65711390284E+01  0.43400728939E+02  0.00000000000E+00 0.  1.
         11    1    3    3    0    0 -0.56291919759E+01 -0.20958259385E+02  0.10232275768E+01  0.21725179716E+02  0.51100000000E-03 0. -1.
        -11    1    3    3    0    0  0.37783471898E+01 -0.83548567679E+01 -0.81642353842E+01  0.12277388923E+02  0.51100000000E-03 0.  1.
        -12    1    3    3    0    0 -0.39565450352E+01 -0.13192384994E+02  0.56986877892E+00  0.13784702422E+02  0.00000000000E+00 0.  1.
</event>
<event>
 7    1  0.2834226E-010  0.4778727E+02  0.7816164E-02  0.1312668E+00
        -11   -1    0    0    0    0  0.00000000000E+00  0.00000000000E+00  0.45593999997E+02  0.45594000000E+02  0.51100000000E-03 0. -1.
         11   -1    0    0    0    0 -0.00000000000E+00 -0.00000000000E+00 -0.45593999997E+02  0.45594000000E+02  0.51100000000E-03 0.  1.
    9900012    2    1    2    0    0 -0.36141695127E+02 -0.23832926636E+02 -0.30647349942E+01  0.47787272825E+02  0.20000008120E+02 0.  0.
        -12    1    1    2    0    0  0.36141695127E+02  0.23832926636E+02  0.30647349942E+01  0.43400727175E+02  0.00000000000E+00 0.  1.
         11    1    3    3    0    0 -0.32721228846E+01 -0.96686040318E+00  0.51184424908E+01  0.61514275582E+01  0.51100000000E-03 0. -1.
        -11    1    3    3    0    0 -0.28093745703E+01 -0.32678315049E+00  0.92524786938E+00  0.29758119203E+01  0.51100000000E-03 0.  1.
         12    1    3    3    0    0 -0.30060197672E+02 -0.22539283083E+02 -0.91084253544E+01  0.38660033347E+02  0.00000000000E+00 0. -1.
</event>
<event>
 7    1  0.2834226E-010  0.4778728E+02  0.7816164E-02  0.1312668E+00
        -11   -1    0    0    0    0  0.00000000000E+00  0.00000000000E+00  0.45593999997E+02  0.45594000000E+02  0.51100000000E-03 0. -1.
         11   -1    0    0    0    0 -0.00000000000E+00 -0.00000000000E+00 -0.45593999997E+02  0.45594000000E+02  0.51100000000E-03 0.  1.
    9900012    2    1    2    0    0  0.14776974038E+02  0.31965010007E+02 -0.25367330902E+02  0.47787282223E+02  0.20000050968E+02 0.  0.
        -12    1    1    2    0    0 -0.14776974038E+02 -0.31965010007E+02  0.25367330902E+02  0.43400717777E+02  0.00000000000E+00 0.  1.
         11    1    3    3    0    0  0.11901679065E+02  0.30119839265E+02 -0.14142389531E+02  0.35339239717E+02  0.51100000000E-03 0. -1.
        -11    1    3    3    0    0  0.33574423407E+01  0.12609906971E+01 -0.48698526196E+01  0.60479733306E+01  0.51100000000E-03 0.  1.
         12    1    3    3    0    0 -0.48214736776E+00  0.58418004534E+00 -0.63550887513E+01  0.64000691751E+01  0.00000000000E+00 0. -1.
</event>
<event>
 7    1  0.2834226E-010  0.4778727E+02  0.7816164E-02  0.1312668E+00
        -11   -1    0    0    0    0  0.00000000000E+00  0.00000000000E+00  0.45593999997E+02  0.45594000000E+02  0.51100000000E-03 0. -1.
         11   -1    0    0    0    0 -0.00000000000E+00 -0.00000000000E+00 -0.45593999997E+02  0.45594000000E+02  0.51100000000E-03 0.  1.
    9900012    2    1    2    0    0  0.55496226539E+00 -0.42040441009E+02  0.10766459492E+02  0.47787270590E+02  0.19999997926E+02 0.  0.
        -12    1    1    2    0    0 -0.55496226539E+00  0.42040441009E+02 -0.10766459492E+02  0.43400729410E+02  0.00000000000E+00 0.  1.
         11    1    3    3    0    0  0.99188562981E+01 -0.19182993051E+02  0.70695064680E+01  0.22723310820E+02  0.51100000000E-03 0. -1.
        -11    1    3    3    0    0 -0.46669137937E+01 -0.13811877607E+02  0.26508879102E+01  0.14818071884E+02  0.51100000000E-03 0.  1.
        -12    1    3    3    0    0 -0.46969802390E+01 -0.90455703503E+01  0.10460651140E+01  0.10245887885E+02  0.00000000000E+00 0.  1.
</event>
<event>
 7    1  0.2834226E-010  0.4778726E+02  0.7816164E-02  0.1312668E+00
        -11   -1    0    0    0    0  0.00000000000E+00  0.00000000000E+00  0.45593999997E+02  0.45594000000E+02  0.51100000000E-03 0. -1.
         11   -1    0    0    0    0 -0.00000000000E+00 -0.00000000000E+00 -0.45593999997E+02  0.45594000000E+02  0.51100000000E-03 0.  1.
    9900012    2    1    2    0    0  0.42675503915E+02 -0.12060133962E+01 -0.78083801908E+01  0.47787263786E+02  0.19999966905E+02 0.  0.
        -12    1    1    2    0    0 -0.42675503915E+02  0.12060133962E+01  0.78083801908E+01  0.43400736214E+02  0.00000000000E+00 0.  1.
         11    1    3    3    0    0  0.28525654659E+02 -0.13507899210E+01 -0.11417931189E+02  0.30755597214E+02  0.51100000000E-03 0. -1.
        -11    1    3    3    0    0  0.63577989755E+01  0.35274802138E+01 -0.10448131414E+01  0.73454992501E+01  0.51100000000E-03 0.  1.
         12    1    3    3    0    0  0.77920502810E+01 -0.33827036890E+01  0.46543641396E+01  0.96861673212E+01  0.00000000000E+00 0. -1.
</event>
<event>
 7    1  0.2834226E-010  0.4778728E+02  0.7816164E-02  0.1312668E+00
        -11   -1    0    0    0    0  0.00000000000E+00  0.00000000000E+00  0.45593999997E+02  0.45594000000E+02  0.51100000000E-03 0.  1.
         11   -1    0    0    0    0 -0.00000000000E+00 -0.00000000000E+00 -0.45593999997E+02  0.45594000000E+02  0.51100000000E-03 0. -1.
    9900012    2    1    2    0    0  0.15226650656E+02 -0.13988046524E+01 -0.40617918438E+02  0.47787276010E+02  0.20000022640E+02 0.  0.
        -12    1    1    2    0    0 -0.15226650656E+02  0.13988046524E+01  0.40617918438E+02  0.43400723990E+02  0.00000000000E+00 0.  1.
         11    1    3    3    0    0  0.11561297109E+02 -0.83267672649E+00 -0.15641600424E+02  0.19468348812E+02  0.51100000000E-03 0. -1.
        -11    1    3    3    0    0 -0.18577349306E+01 -0.49721827145E+01 -0.16227305091E+02  0.17073347967E+02  0.51100000000E-03 0.  1.
        -12    1    3    3    0    0  0.55230884774E+01  0.44060547886E+01 -0.87490129227E+01  0.11245579231E+02  0.00000000000E+00 0.  1.
</event>
<event>
 7    1  0.2834226E-010  0.4778728E+02  0.7816164E-02  0.1312668E+00
        -11   -1    0    0    0    0  0.00000000000E+00  0.00000000000E+00  0.45593999997E+02  0.45594000000E+02  0.51100000000E-03 0. -1.
         11   -1    0    0    0    0 -0.00000000000E+00 -0.00000000000E+00 -0.45593999997E+02  0.45594000000E+02  0.51100000000E-03 0.  1.
    9900012    2    1    2    0    0 -0.35842740868E+02  0.24022877736E+02 -0.46714231509E+01  0.47787275099E+02  0.20000018488E+02 0.  0.
        -12    1    1    2    0    0  0.35842740868E+02 -0.24022877736E+02  0.46714231509E+01  0.43400724901E+02  0.00000000000E+00 0.  1.
         11    1    3    3    0    0 -0.10477814496E+02  0.70237510011E+01 -0.58884175961E+01  0.13920888505E+02  0.51100000000E-03 0. -1.
        -11    1    3    3    0    0 -0.13053257259E+02  0.89016184219E+01  0.79247386644E+01  0.17675627818E+02  0.51100000000E-03 0.  1.
        -12    1    3    3    0    0 -0.12311669113E+02  0.80975083134E+01 -0.67077442191E+01  0.16190758776E+02  0.00000000000E+00 0.  1.
</event>
<event>
 7    1  0.2834226E-010  0.4778728E+02  0.7816164E-02  0.1312668E+00
        -11   -1    0    0    0    0  0.00000000000E+00  0.00000000000E+00  0.45593999997E+02  0.45594000000E+02  0.51100000000E-03 0. -1.
         11   -1    0    0    0    0 -0.00000000000E+00 -0.00000000000E+00 -0.45593999997E+02  0.45594000000E+02  0.51100000000E-03 0.  1.
    9900012    2    1    2    0    0  0.29546761385E+02  0.29520202167E+02  0.11797005005E+02  0.47787276833E+02  0.20000026392E+02 0.  0.
        -12    1    1    2    0    0 -0.29546761385E+02 -0.29520202167E+02 -0.11797005005E+02  0.43400723167E+02  0.00000000000E+00 0.  1.
         11    1    3    3    0    0  0.91964083347E+01  0.55753565986E+01  0.10643337048E+02  0.15130735317E+02  0.51100000000E-03 0. -1.
        -11    1    3    3    0    0 -0.61915225670E+00  0.22248796844E+01 -0.68804710108E+00  0.24097402768E+01  0.51100000000E-03 0.  1.
         12    1    3    3    0    0  0.20969505307E+02  0.21719965884E+02  0.18417150583E+01  0.30246801239E+02  0.00000000000E+00 0. -1.
</event>
<event>
 7    1  0.2834226E-010  0.4778727E+02  0.7816164E-02  0.1312668E+00
        -11   -1    0    0    0    0  0.00000000000E+00  0.00000000000E+00  0.45593999997E+02  0.45594000000E+02  0.51100000000E-03 0.  1.
         11   -1    0    0    0    0 -0.00000000000E+00 -0.00000000000E+00 -0.45593999997E+02  0.45594000000E+02  0.51100000000E-03 0. -1.
    9900012    2    1    2    0    0 -0.11424521706E+01  0.18592412258E+02 -0.39200001271E+02  0.47787273161E+02  0.20000009649E+02 0.  0.
        -12    1    1    2    0    0  0.11424521706E+01 -0.18592412258E+02  0.39200001271E+02  0.43400726839E+02  0.00000000000E+00 0.  1.
         11    1    3    3    0    0 -0.62917815779E+01  0.23954817606E+01 -0.20360196554E+02  0.21444403752E+02  0.51100000000E-03 0. -1.
        -11    1    3    3    0    0  0.14612134152E+01  0.10775258025E+02 -0.73867345922E+01  0.13145538344E+02  0.51100000000E-03 0.  1.
         12    1    3    3    0    0  0.36881159921E+01  0.54216724728E+01 -0.11453070124E+02  0.13197331065E+02  0.00000000000E+00 0. -1.
</event>
<event>
 7    1  0.2834226E-010  0.4778727E+02  0.7816164E-02  0.1312668E+00
        -11   -1    0    0    0    0  0.00000000000E+00  0.00000000000E+00  0.45593999997E+02  0.45594000000E+02  0.51100000000E-03 0.  1.
         11   -1    0    0    0    0 -0.00000000000E+00 -0.00000000000E+00 -0.45593999997E+02  0.45594000000E+02  0.51100000000E-03 0. -1.
    9900012    2    1    2    0    0  0.42517024380E+02 -0.87021672830E+01 -0.44498202506E+00  0.47787273202E+02  0.20000009838E+02 0.  0.
        -12    1    1    2    0    0 -0.42517024380E+02  0.87021672830E+01  0.44498202506E+00  0.43400726798E+02  0.00000000000E+00 0.  1.
         11    1    3    3    0    0  0.19294691435E+02 -0.74508633935E+01  0.47503619731E+00  0.20688792680E+02  0.51100000000E-03 0. -1.
        -11    1    3    3    0    0  0.14405971207E+01  0.65586697457E+00 -0.46549478459E+01  0.49167083767E+01  0.51100000000E-03 0.  1.
        -12    1    3    3    0    0  0.21781735824E+02 -0.19071708640E+01  0.37349296236E+01  0.22181772146E+02  0.00000000000E+00 0.  1.
</event>
<event>
 7    1  0.2834226E-010  0.4778727E+02  0.7816164E-02  0.1312668E+00
        -11   -1    0    0    0    0  0.00000000000E+00  0.00000000000E+00  0.45593999997E+02  0.45594000000E+02  0.51100000000E-03 0.  1.
         11   -1    0    0    0    0 -0.00000000000E+00 -0.00000000000E+00 -0.45593999997E+02  0.45594000000E+02  0.51100000000E-03 0. -1.
    9900012    2    1    2    0    0 -0.38201590263E+02  0.17670153120E+02 -0.10584302079E+02  0.47787271200E+02  0.20000000707E+02 0.  0.
        -12    1    1    2    0    0  0.38201590263E+02 -0.17670153120E+02  0.10584302079E+02  0.43400728800E+02  0.00000000000E+00 0.  1.
         11    1    3    3    0    0 -0.29790917891E+02  0.14489452732E+02 -0.23324739530E+01  0.33209689313E+02  0.51100000000E-03 0.  1.
        -11    1    3    3    0    0 -0.26194024267E+01  0.31167456265E+01  0.48014087826E+00  0.40995009327E+01  0.51100000000E-03 0. -1.
         12    1    3    3    0    0 -0.57912699457E+01  0.63954761401E-01 -0.87319690039E+01  0.10478080954E+02  0.00000000000E+00 0. -1.
</event>
<event>
 7    1  0.2834226E-010  0.4778727E+02  0.7816164E-02  0.1312668E+00
        -11   -1    0    0    0    0  0.00000000000E+00  0.00000000000E+00  0.45593999997E+02  0.45594000000E+02  0.51100000000E-03 0. -1.
         11   -1    0    0    0    0 -0.00000000000E+00 -0.00000000000E+00 -0.45593999997E+02  0.45594000000E+02  0.51100000000E-03 0.  1.
    9900012    2    1    2    0    0 -0.20870016881E+02  0.38044576594E+02  0.82207592308E+00  0.47787271647E+02  0.20000002745E+02 0.  0.
        -12    1    1    2    0    0  0.20870016881E+02 -0.38044576594E+02 -0.82207592308E+00  0.43400728353E+02  0.00000000000E+00 0.  1.
         11    1    3    3    0    0 -0.17094302533E+02  0.33483720733E+02 -0.27536384586E+01  0.37695586721E+02  0.51100000000E-03 0. -1.
        -11    1    3    3    0    0 -0.53796323564E+01  0.97438456899E+00  0.16143514834E+01  0.57005263399E+01  0.51100000000E-03 0.  1.
         12    1    3    3    0    0  0.16039180090E+01  0.35864712913E+01  0.19613628982E+01  0.43911585854E+01  0.00000000000E+00 0. -1.
</event>
<event>
 7    1  0.2834226E-010  0.4778727E+02  0.7816164E-02  0.1312668E+00
        -11   -1    0    0    0    0  0.00000000000E+00  0.00000000000E+00  0.45593999997E+02  0.45594000000E+02  0.51100000000E-03 0. -1.
         11   -1    0    0    0    0 -0.00000000000E+00 -0.00000000000E+00 -0.45593999997E+02  0.45594000000E+02  0.51100000000E-03 0.  1.
    9900012    2    1    2    0    0  0.19797197678E+02  0.38186561617E+02  0.57862524334E+01  0.47787271420E+02  0.20000001713E+02 0.  0.
        -12    1    1    2    0    0 -0.19797197678E+02 -0.38186561617E+02 -0.57862524334E+01  0.43400728580E+02  0.00000000000E+00 0.  1.
         11    1    3    3    0    0  0.74406390442E+01  0.24041931155E+02  0.11269809951E+02  0.27575100718E+02  0.51100000000E-03 0. -1.
        -11    1    3    3    0    0  0.10628933754E+02  0.87434640647E+01 -0.34614531529E+01  0.14191689638E+02  0.51100000000E-03 0.  1.
         12    1    3    3    0    0  0.17276248808E+01  0.54011663972E+01 -0.20221043646E+01  0.60204810639E+01  0.00000000000E+00 0. -1.
</event>
<event>
 7    1  0.2834226E-010  0.4778729E+02  0.7816164E-02  0.1312668E+00
        -11   -1    0    0    0    0  0.00000000000E+00  0.00000000000E+00  0.45593999997E+02  0.45594000000E+02  0.51100000000E-03 0.  1.
         11   -1    0    0    0    0 -0.00000000000E+00 -0.00000000000E+00 -0.45593999997E+02  0.45594000000E+02  0.51100000000E-03 0. -1.
    9900012    2    1    2    0    0 -0.52111242436E+01  0.14891315724E+02 -0.40431600371E+02  0.47787292536E+02  0.20000097987E+02 0.  0.
        -12    1    1    2    0    0  0.52111242436E+01 -0.14891315724E+02  0.40431600371E+02  0.43400707464E+02  0.00000000000E+00 0.  1.
         11    1    3    3    0    0 -0.22234257710E+01  0.90549124757E+01 -0.20548225371E+02  0.22564676560E+02  0.51100000000E-03 0. -1.
        -11    1    3    3    0    0 -0.49512219838E+01 -0.34151100817E+01 -0.67926279222E+01  0.90728920612E+01  0.51100000000E-03 0.  1.
        -12    1    3    3    0    0  0.19635235112E+01  0.92515133296E+01 -0.13090747077E+02  0.16149723914E+02  0.00000000000E+00 0.  1.
</event>
<event>
 7    1  0.2834226E-010  0.4778727E+02  0.7816164E-02  0.1312668E+00
        -11   -1    0    0    0    0  0.00000000000E+00  0.00000000000E+00  0.45593999997E+02  0.45594000000E+02  0.51100000000E-03 0.  1.
         11   -1    0    0    0    0 -0.00000000000E+00 -0.00000000000E+00 -0.45593999997E+02  0.45594000000E+02  0.51100000000E-03 0. -1.
    9900012    2    1    2    0    0  0.40723959378E+01  0.34706934398E+02 -0.25738445205E+02  0.47787271140E+02  0.20000000437E+02 0.  0.
        -12    1    1    2    0    0 -0.40723959378E+01 -0.34706934398E+02  0.25738445205E+02  0.43400728860E+02  0.00000000000E+00 0.  1.
         11    1    3    3    0    0  0.11416136095E+02  0.25254577182E+02 -0.17619110748E+02  0.32841359530E+02  0.51100000000E-03 0. -1.
        -11    1    3    3    0    0 -0.58884202246E+01  0.93658896827E+01 -0.74765635891E+01  0.13352617184E+02  0.51100000000E-03 0.  1.
         12    1    3    3    0    0 -0.14553199328E+01  0.86467534001E-01 -0.64277086789E+00  0.15932944266E+01  0.00000000000E+00 0. -1.
</event>
<event>
 7    1  0.2834226E-010  0.4778728E+02  0.7816164E-02  0.1312668E+00
        -11   -1    0    0    0    0  0.00000000000E+00  0.00000000000E+00  0.45593999997E+02  0.45594000000E+02  0.51100000000E-03 0. -1.
         11   -1    0    0    0    0 -0.00000000000E+00 -0.00000000000E+00 -0.45593999997E+02  0.45594000000E+02  0.51100000000E-03 0.  1.
    9900012    2    1    2    0    0  0.24952138851E+02 -0.35248610357E+02 -0.43068368469E+01  0.47787278704E+02  0.20000034923E+02 0.  0.
        -12    1    1    2    0    0 -0.24952138851E+02  0.35248610357E+02  0.43068368469E+01  0.43400721296E+02  0.00000000000E+00 0.  1.
         11    1    3    3    0    0  0.15120153627E+02 -0.22818322095E+02  0.14733963426E+01  0.27412875915E+02  0.51100000000E-03 0. -1.
        -11    1    3    3    0    0 -0.11053958749E+01  0.11197985498E+01  0.79241171290E+00  0.17617506680E+01  0.51100000000E-03 0.  1.
        -12    1    3    3    0    0  0.10937381100E+02 -0.13550086813E+02 -0.65726449024E+01  0.18612652121E+02  0.00000000000E+00 0.  1.
</event>
<event>
 7    1  0.2834226E-010  0.4778727E+02  0.7816164E-02  0.1312668E+00
        -11   -1    0    0    0    0  0.00000000000E+00  0.00000000000E+00  0.45593999997E+02  0.45594000000E+02  0.51100000000E-03 0.  1.
         11   -1    0    0    0    0 -0.00000000000E+00 -0.00000000000E+00 -0.45593999997E+02  0.45594000000E+02  0.51100000000E-03 0. -1.
    9900012    2    1    2    0    0 -0.36787589191E+02 -0.22975444805E+02 -0.15573875557E+01  0.47787271452E+02  0.20000001860E+02 0.  0.
        -12    1    1    2    0    0  0.36787589191E+02  0.22975444805E+02  0.15573875557E+01  0.43400728548E+02  0.00000000000E+00 0.  1.
         11    1    3    3    0    0 -0.68765131276E+01 -0.93866096200E+00 -0.14541265893E+00  0.69418054063E+01  0.51100000000E-03 0. -1.
        -11    1    3    3    0    0 -0.31164663655E+02 -0.19072970208E+02 -0.39448795088E+01  0.36750190855E+02  0.51100000000E-03 0.  1.
        -12    1    3    3    0    0  0.12535875919E+01 -0.29638136357E+01  0.25329046120E+01  0.40952751911E+01  0.00000000000E+00 0.  1.
</event>
<event>
 7    1  0.2834226E-010  0.4778727E+02  0.7816164E-02  0.1312668E+00
        -11   -1    0    0    0    0  0.00000000000E+00  0.00000000000E+00  0.45593999997E+02  0.45594000000E+02  0.51100000000E-03 0.  1.
         11   -1    0    0    0    0 -0.00000000000E+00 -0.00000000000E+00 -0.45593999997E+02  0.45594000000E+02  0.51100000000E-03 0. -1.
    9900012    2    1    2    0    0 -0.26316613874E+02 -0.18074652411E+02 -0.29400102536E+02  0.47787271265E+02  0.20000001006E+02 0.  0.
        -12    1    1    2    0    0  0.26316613874E+02  0.18074652411E+02  0.29400102536E+02  0.43400728735E+02  0.00000000000E+00 0.  1.
         11    1    3    3    0    0 -0.14850261519E+02 -0.16011312536E+02 -0.22786938840E+02  0.31561637763E+02  0.51100000000E-03 0. -1.
        -11    1    3    3    0    0 -0.64952354773E+01  0.11151685980E+01  0.92278140701E+00  0.66545631482E+01  0.51100000000E-03 0.  1.
        -12    1    3    3    0    0 -0.49711168771E+01 -0.31785084731E+01 -0.75359451032E+01  0.95710703538E+01  0.00000000000E+00 0.  1.
</event>
<event>
 7    1  0.2834226E-010  0.4778727E+02  0.7816164E-02  0.1312668E+00
        -11   -1    0    0    0    0  0.00000000000E+00  0.00000000000E+00  0.45593999997E+02  0.45594000000E+02  0.51100000000E-03 0.  1.
         11   -1    0    0    0    0 -0.00000000000E+00 -0.00000000000E+00 -0.45593999997E+02  0.45594000000E+02  0.51100000000E-03 0. -1.
    9900012    2    1    2    0    0  0.17498186356E+02  0.27674264250E+02 -0.28488100695E+02  0.47787270643E+02  0.19999998169E+02 0.  0.
        -12    1    1    2    0    0 -0.17498186356E+02 -0.27674264250E+02  0.28488100695E+02  0.43400729357E+02  0.00000000000E+00 0.  1.
         11    1    3    3    0    0  0.15478003582E+02  0.12363829624E+02 -0.73503875911E+01  0.21129625550E+02  0.51100000000E-03 0. -1.
        -11    1    3    3    0    0  0.10294929640E+01  0.10876383416E+02 -0.10783842092E+02  0.15350792243E+02  0.51100000000E-03 0.  1.
         12    1    3    3    0    0  0.99068980940E+00  0.44340512099E+01 -0.10353871012E+02  0.11306852850E+02  0.00000000000E+00 0. -1.
</event>
<event>
 7    1  0.2834226E-010  0.4778727E+02  0.7816164E-02  0.1312668E+00
        -11   -1    0    0    0    0  0.00000000000E+00  0.00000000000E+00  0.45593999997E+02  0.45594000000E+02  0.51100000000E-03 0.  1.
         11   -1    0    0    0    0 -0.00000000000E+00 -0.00000000000E+00 -0.45593999997E+02  0.45594000000E+02  0.51100000000E-03 0. -1.
    9900012    2    1    2    0    0  0.12552385984E+02  0.18718374883E+02 -0.37090204339E+02  0.47787271779E+02  0.20000003351E+02 0.  0.
        -12    1    1    2    0    0 -0.12552385984E+02 -0.18718374883E+02  0.37090204339E+02  0.43400728221E+02  0.00000000000E+00 0.  1.
         11    1    3    3    0    0  0.35832940648E+01  0.13201990422E+02 -0.24005228042E+02  0.27629395959E+02  0.51100000000E-03 0. -1.
        -11    1    3    3    0    0 -0.24444139129E+00  0.23943224275E+01  0.13433981846E+01  0.27563110173E+01  0.51100000000E-03 0.  1.
         12    1    3    3    0    0  0.92135333109E+01  0.31220620341E+01 -0.14428374481E+02  0.17401564803E+02  0.00000000000E+00 0. -1.
</event>
<event>
 7    1  0.2834226E-010  0.4778727E+02  0.7816164E-02  0.1312668E+00
        -11   -1    0    0    0    0  0.00000000000E+00  0.00000000000E+00  0.45593999997E+02  0.45594000000E+02  0.51100000000E-03 0.  1.
         11   -1    0    0    0    0 -0.00000000000E+00 -0.00000000000E+00 -0.45593999997E+02  0.45594000000E+02  0.51100000000E-03 0. -1.
    9900012    2    1    2    0    0 -0.12741768467E+02  0.27595416783E+02 -0.30980051784E+02  0.47787270747E+02  0.19999998646E+02 0.  0.
        -12    1    1    2    0    0  0.12741768467E+02 -0.27595416783E+02  0.30980051784E+02  0.43400729253E+02  0.00000000000E+00 0.  1.
         11    1    3    3    0    0  0.30263719228E+01  0.12671073233E+02 -0.10077185383E+02  0.16470115039E+02  0.51100000000E-03 0. -1.
        -11    1    3    3    0    0 -0.73238352425E+01  0.66221067544E+01 -0.15317425605E+02  0.18224005815E+02  0.51100000000E-03 0.  1.
         12    1    3    3    0    0 -0.84443051478E+01  0.83022367963E+01 -0.55854407955E+01  0.13093149893E+02  0.00000000000E+00 0. -1.
</event>
<event>
 7    1  0.2834226E-010  0.4778727E+02  0.7816164E-02  0.1312668E+00
        -11   -1    0    0    0    0  0.00000000000E+00  0.00000000000E+00  0.45593999997E+02  0.45594000000E+02  0.51100000000E-03 0.  1.
         11   -1    0    0    0    0 -0.00000000000E+00 -0.00000000000E+00 -0.45593999997E+02  0.45594000000E+02  0.51100000000E-03 0. -1.
    9900012    2    1    2    0    0 -0.36136576674E+02  0.23311606878E+02 -0.58600141653E+01  0.47787274718E+02  0.20000016751E+02 0.  0.
        -12    1    1    2    0    0  0.36136576674E+02 -0.23311606878E+02  0.58600141653E+01  0.43400725282E+02  0.00000000000E+00 0.  1.
         11    1    3    3    0    0 -0.79922799818E+01  0.40856437135E+01 -0.15073334523E+01  0.91017074365E+01  0.51100000000E-03 0.  1.
        -11    1    3    3    0    0 -0.15075879742E+02  0.93002355433E+01 -0.11141509922E+02  0.20926293861E+02  0.51100000000E-03 0. -1.
        -12    1    3    3    0    0 -0.13068416950E+02  0.99257276213E+01  0.67888292094E+01  0.17759273421E+02  0.00000000000E+00 0.  1.
</event>
<event>
 7    1  0.2834226E-010  0.4778727E+02  0.7816164E-02  0.1312668E+00
        -11   -1    0    0    0    0  0.00000000000E+00  0.00000000000E+00  0.45593999997E+02  0.45594000000E+02  0.51100000000E-03 0.  1.
         11   -1    0    0    0    0 -0.00000000000E+00 -0.00000000000E+00 -0.45593999997E+02  0.45594000000E+02  0.51100000000E-03 0. -1.
    9900012    2    1    2    0    0  0.24441355419E+02 -0.56639538417E+01 -0.35414167216E+02  0.47787268814E+02  0.19999989831E+02 0.  0.
        -12    1    1    2    0    0 -0.24441355419E+02  0.56639538417E+01  0.35414167216E+02  0.43400731186E+02  0.00000000000E+00 0.  1.
         11    1    3    3    0    0  0.56495704454E+01 -0.76501783837E+01 -0.87942883173E+01  0.12953083910E+02  0.51100000000E-03 0. -1.
        -11    1    3    3    0    0  0.11853379886E+02  0.52131564352E+01 -0.22941879761E+02  0.26344059329E+02  0.51100000000E-03 0.  1.
        -12    1    3    3    0    0  0.69384050881E+01 -0.32269318932E+01 -0.36779991381E+01  0.84901255745E+01  0.00000000000E+00 0.  1.
</event>
<event>
 7    1  0.2834226E-010  0.4778727E+02  0.7816164E-02  0.1312668E+00
        -11   -1    0    0    0    0  0.00000000000E+00  0.00000000000E+00  0.45593999997E+02  0.45594000000E+02  0.51100000000E-03 0.  1.
         11   -1    0    0    0    0 -0.00000000000E+00 -0.00000000000E+00 -0.45593999997E+02  0.45594000000E+02  0.51100000000E-03 0. -1.
    9900012    2    1    2    0    0  0.24320717545E+02  0.29115695204E+02 -0.21080859769E+02  0.47787266622E+02  0.19999979838E+02 0.  0.
        -12    1    1    2    0    0 -0.24320717545E+02 -0.29115695204E+02  0.21080859769E+02  0.43400733378E+02  0.00000000000E+00 0.  1.
         11    1    3    3    0    0  0.14480740964E+02  0.22299232256E+02 -0.14208856999E+02  0.30146960635E+02  0.51100000000E-03 0. -1.
        -11    1    3    3    0    0  0.96075403551E+01  0.73691064724E+00 -0.19885149905E+01  0.98388038452E+01  0.51100000000E-03 0.  1.
        -12    1    3    3    0    0  0.23243622586E+00  0.60795523012E+01 -0.48834877796E+01  0.78015021422E+01  0.00000000000E+00 0.  1.
</event>
<event>
 7    1  0.2834226E-010  0.4778727E+02  0.7816164E-02  0.1312668E+00
        -11   -1    0    0    0    0  0.00000000000E+00  0.00000000000E+00  0.45593999997E+02  0.45594000000E+02  0.51100000000E-03 0.  1.
         11   -1    0    0    0    0 -0.00000000000E+00 -0.00000000000E+00 -0.45593999997E+02  0.45594000000E+02  0.51100000000E-03 0. -1.
    9900012    2    1    2    0    0 -0.33803679530E+02  0.26001427863E+02  0.80535983272E+01  0.47787269053E+02  0.19999990921E+02 0.  0.
        -12    1    1    2    0    0  0.33803679530E+02 -0.26001427863E+02 -0.80535983272E+01  0.43400730947E+02  0.00000000000E+00 0.  1.
         11    1    3    3    0    0 -0.10965908443E+02  0.84252991082E+01  0.38030538473E+01  0.14342246402E+02  0.51100000000E-03 0. -1.
        -11    1    3    3    0    0 -0.95228003379E+01  0.33582883658E+01  0.88536752252E+01  0.13429422634E+02  0.51100000000E-03 0.  1.
        -12    1    3    3    0    0 -0.13314970750E+02  0.14217840389E+02 -0.46031307453E+01  0.20015600017E+02  0.00000000000E+00 0.  1.
</event>
<event>
 7    1  0.2834226E-010  0.4778727E+02  0.7816164E-02  0.1312668E+00
        -11   -1    0    0    0    0  0.00000000000E+00  0.00000000000E+00  0.45593999997E+02  0.45594000000E+02  0.51100000000E-03 0. -1.
         11   -1    0    0    0    0 -0.00000000000E+00 -0.00000000000E+00 -0.45593999997E+02  0.45594000000E+02  0.51100000000E-03 0.  1.
    9900012    2    1    2    0    0 -0.86350785547E+01 -0.94652339131E+00  0.42522499150E+02  0.47787269337E+02  0.19999992214E+02 0.  0.
        -12    1    1    2    0    0  0.86350785547E+01  0.94652339131E+00 -0.42522499150E+02  0.43400730663E+02  0.00000000000E+00 0.  1.
         11    1    3    3    0    0 -0.54033665803E+01 -0.68066931039E+01  0.19042648153E+02  0.20932030249E+02  0.51100000000E-03 0. -1.
        -11    1    3    3    0    0  0.72077489552E+00  0.36520229765E+01  0.90505497624E+00  0.38309154314E+01  0.51100000000E-03 0.  1.
        -12    1    3    3    0    0 -0.39524868700E+01  0.22081467360E+01  0.22574796020E+02  0.23024323656E+02  0.00000000000E+00 0.  1.
</event>
<event>
 7    1  0.2834226E-010  0.4778727E+02  0.7816164E-02  0.1312668E+00
        -11   -1    0    0    0    0  0.00000000000E+00  0.00000000000E+00  0.45593999997E+02  0.45594000000E+02  0.51100000000E-03 0.  1.
         11   -1    0    0    0    0 -0.00000000000E+00 -0.00000000000E+00 -0.45593999997E+02  0.45594000000E+02  0.51100000000E-03 0. -1.
    9900012    2    1    2    0    0  0.97518954360E+00  0.21069445874E+02 -0.37930871686E+02  0.47787267622E+02  0.19999984393E+02 0.  0.
        -12    1    1    2    0    0 -0.97518954360E+00 -0.21069445874E+02  0.37930871686E+02  0.43400732378E+02  0.00000000000E+00 0.  1.
         11    1    3    3    0    0 -0.44210808150E+01  0.27508699343E+00 -0.18669889462E+01  0.48070028514E+01  0.51100000000E-03 0. -1.
        -11    1    3    3    0    0  0.71989939047E-02 -0.92821216143E+00 -0.86702284498E+00  0.12701805057E+01  0.51100000000E-03 0.  1.
         12    1    3    3    0    0  0.53890713647E+01  0.21722571042E+02 -0.35196859895E+02  0.41710084264E+02  0.00000000000E+00 0. -1.
</event>
<event>
 7    1  0.2834226E-010  0.4778728E+02  0.7816164E-02  0.1312668E+00
        -11   -1    0    0    0    0  0.00000000000E+00  0.00000000000E+00  0.45593999997E+02  0.45594000000E+02  0.51100000000E-03 0. -1.
         11   -1    0    0    0    0 -0.00000000000E+00 -0.00000000000E+00 -0.45593999997E+02  0.45594000000E+02  0.51100000000E-03 0.  1.
    9900012    2    1    2    0    0 -0.71688051052E+01  0.42619401874E+02  0.39771474831E+01  0.47787275527E+02  0.20000020436E+02 0.  0.
        -12    1    1    2    0    0  0.71688051052E+01 -0.42619401874E+02 -0.39771474831E+01  0.43400724473E+02  0.00000000000E+00 0.  1.
         11    1    3    3    0    0 -0.61669896039E+01  0.13135462086E+02  0.98700001090E+01  0.17549616161E+02  0.51100000000E-03 0. -1.
        -11    1    3    3    0    0 -0.90978249552E+00  0.23277553380E+02 -0.58988938642E+01  0.24030587688E+02  0.51100000000E-03 0.  1.
         12    1    3    3    0    0 -0.92033005747E-01  0.62063864079E+01  0.60412383813E-02  0.62070716779E+01  0.00000000000E+00 0. -1.
</event>
<event>
 7    1  0.2834226E-010  0.4778727E+02  0.7816164E-02  0.1312668E+00
        -11   -1    0    0    0    0  0.00000000000E+00  0.00000000000E+00  0.45593999997E+02  0.45594000000E+02  0.51100000000E-03 0.  1.
         11   -1    0    0    0    0 -0.00000000000E+00 -0.00000000000E+00 -0.45593999997E+02  0.45594000000E+02  0.51100000000E-03 0. -1.
    9900012    2    1    2    0    0  0.45721821897E+01 -0.21386715812E+02 -0.37487687462E+02  0.47787272190E+02  0.20000005223E+02 0.  0.
        -12    1    1    2    0    0 -0.45721821897E+01  0.21386715812E+02  0.37487687462E+02  0.43400727810E+02  0.00000000000E+00 0.  1.
         11    1    3    3    0    0  0.38350145511E+01 -0.42139567069E+01 -0.23015865318E+02  0.23710647910E+02  0.51100000000E-03 0. -1.
        -11    1    3    3    0    0 -0.35844442231E+01 -0.11588931033E+02 -0.82970774401E+01  0.14696702255E+02  0.51100000000E-03 0.  1.
         12    1    3    3    0    0  0.43216118617E+01 -0.55838280719E+01 -0.61747447043E+01  0.93799220243E+01  0.00000000000E+00 0. -1.
</event>
<event>
 7    1  0.2834226E-010  0.4778727E+02  0.7816164E-02  0.1312668E+00
        -11   -1    0    0    0    0  0.00000000000E+00  0.00000000000E+00  0.45593999997E+02  0.45594000000E+02  0.51100000000E-03 0.  1.
         11   -1    0    0    0    0 -0.00000000000E+00 -0.00000000000E+00 -0.45593999997E+02  0.45594000000E+02  0.51100000000E-03 0. -1.
    9900012    2    1    2    0    0  0.37340162207E+02  0.12818657857E+02 -0.18028238987E+02  0.47787273003E+02  0.20000008931E+02 0.  0.
        -12    1    1    2    0    0 -0.37340162207E+02 -0.12818657857E+02  0.18028238987E+02  0.43400726997E+02  0.00000000000E+00 0.  1.
         11    1    3    3    0    0  0.12286670604E+02 -0.15465505762E+01 -0.30203023048E+01  0.12746619924E+02  0.51100000000E-03 0. -1.
        -11    1    3    3    0    0  0.17230373443E+02  0.68866931847E+01 -0.28663488734E+01  0.18775736154E+02  0.51100000000E-03 0.  1.
        -12    1    3    3    0    0  0.78231181597E+01  0.74785152490E+01 -0.12141587808E+02  0.16264916925E+02  0.00000000000E+00 0.  1.
</event>
<event>
 7    1  0.2834226E-010  0.4778727E+02  0.7816164E-02  0.1312668E+00
        -11   -1    0    0    0    0  0.00000000000E+00  0.00000000000E+00  0.45593999997E+02  0.45594000000E+02  0.51100000000E-03 0. -1.
         11   -1    0    0    0    0 -0.00000000000E+00 -0.00000000000E+00 -0.45593999997E+02  0.45594000000E+02  0.51100000000E-03 0.  1.
    9900012    2    1    2    0    0 -0.18796014250E+02 -0.28734545723E+02  0.26545415000E+02  0.47787270431E+02  0.19999997204E+02 0.  0.
        -12    1    1    2    0    0  0.18796014250E+02  0.28734545723E+02 -0.26545415000E+02  0.43400729569E+02  0.00000000000E+00 0.  1.
         11    1    3    3    0    0 -0.12014530150E+02 -0.21883972087E+02  0.25785667891E+02  0.35890915812E+02  0.51100000000E-03 0. -1.
        -11    1    3    3    0    0 -0.80531051626E+01 -0.51024293721E+01  0.14140567217E+01  0.96377821582E+01  0.51100000000E-03 0.  1.
         12    1    3    3    0    0  0.12716210621E+01 -0.17481442633E+01 -0.65430961206E+00  0.22585724605E+01  0.00000000000E+00 0. -1.
</event>
<event>
 7    1  0.2834226E-010  0.4778727E+02  0.7816164E-02  0.1312668E+00
        -11   -1    0    0    0    0  0.00000000000E+00  0.00000000000E+00  0.45593999997E+02  0.45594000000E+02  0.51100000000E-03 0. -1.
         11   -1    0    0    0    0 -0.00000000000E+00 -0.00000000000E+00 -0.45593999997E+02  0.45594000000E+02  0.51100000000E-03 0.  1.
    9900012    2    1    2    0    0  0.42456584945E+02  0.78821059483E+01  0.43513442694E+01  0.47787269634E+02  0.19999993570E+02 0.  0.
        -12    1    1    2    0    0 -0.42456584945E+02 -0.78821059483E+01 -0.43513442694E+01  0.43400730366E+02  0.00000000000E+00 0.  1.
         11    1    3    3    0    0  0.17912584521E+02  0.80023377881E+01 -0.21204591786E+01  0.19733079883E+02  0.51100000000E-03 0. -1.
        -11    1    3    3    0    0  0.75260682234E+01 -0.10742143255E+01  0.78825385206E+01  0.10951258061E+02  0.51100000000E-03 0.  1.
        -12    1    3    3    0    0  0.17017932201E+02  0.95398248568E+00 -0.14107350727E+01  0.17102931690E+02  0.00000000000E+00 0.  1.
</event>
<event>
 7    1  0.2834226E-010  0.4778727E+02  0.7816164E-02  0.1312668E+00
        -11   -1    0    0    0    0  0.00000000000E+00  0.00000000000E+00  0.45593999997E+02  0.45594000000E+02  0.51100000000E-03 0. -1.
         11   -1    0    0    0    0 -0.00000000000E+00 -0.00000000000E+00 -0.45593999997E+02  0.45594000000E+02  0.51100000000E-03 0.  1.
    9900012    2    1    2    0    0 -0.45829134915E+01  0.42811656018E+02  0.54573166018E+01  0.47787270841E+02  0.19999999071E+02 0.  0.
        -12    1    1    2    0    0  0.45829134915E+01 -0.42811656018E+02 -0.54573166018E+01  0.43400729159E+02  0.00000000000E+00 0.  1.
         11    1    3    3    0    0 -0.49775718391E+01  0.11943252360E+02  0.48248437988E+01  0.13809294562E+02  0.51100000000E-03 0. -1.
        -11    1    3    3    0    0  0.68937026544E+01  0.10420296386E+02 -0.35408346779E+00  0.12499243514E+02  0.51100000000E-03 0.  1.
        -12    1    3    3    0    0 -0.64990443069E+01  0.20448107272E+02  0.98655627081E+00  0.21478732765E+02  0.00000000000E+00 0.  1.
</event>
<event>
 7    1  0.2834226E-010  0.4778727E+02  0.7816164E-02  0.1312668E+00
        -11   -1    0    0    0    0  0.00000000000E+00  0.00000000000E+00  0.45593999997E+02  0.45594000000E+02  0.51100000000E-03 0.  1.
         11   -1    0    0    0    0 -0.00000000000E+00 -0.00000000000E+00 -0.45593999997E+02  0.45594000000E+02  0.51100000000E-03 0. -1.
    9900012    2    1    2    0    0  0.24297849643E+01 -0.40576569943E+02 -0.15207274229E+02  0.47787273361E+02  0.20000010562E+02 0.  0.
        -12    1    1    2    0    0 -0.24297849643E+01  0.40576569943E+02  0.15207274229E+02  0.43400726639E+02  0.00000000000E+00 0.  1.
         11    1    3    3    0    0  0.22441276583E+01 -0.18125805424E+02  0.13800343988E+01  0.18316261257E+02  0.51100000000E-03 0. -1.
        -11    1    3    3    0    0  0.26792827197E+01 -0.14567700971E+01 -0.33354285519E+01  0.45194932120E+01  0.51100000000E-03 0.  1.
         12    1    3    3    0    0 -0.24936254137E+01 -0.20993994422E+02 -0.13251880076E+02  0.24951518892E+02  0.00000000000E+00 0. -1.
</event>
<event>
 7    1  0.2834226E-010  0.4778727E+02  0.7816164E-02  0.1312668E+00
        -11   -1    0    0    0    0  0.00000000000E+00  0.00000000000E+00  0.45593999997E+02  0.45594000000E+02  0.51100000000E-03 0. -1.
         11   -1    0    0    0    0 -0.00000000000E+00 -0.00000000000E+00 -0.45593999997E+02  0.45594000000E+02  0.51100000000E-03 0.  1.
    9900012    2    1    2    0    0 -0.38043088054E+02  0.11055228809E+02  0.17723684085E+02  0.47787267169E+02  0.19999982332E+02 0.  0.
        -12    1    1    2    0    0  0.38043088054E+02 -0.11055228809E+02 -0.17723684085E+02  0.43400732831E+02  0.00000000000E+00 0.  1.
         11    1    3    3    0    0  0.16458267588E+01  0.17921746430E+01  0.17475944597E+01  0.29957840923E+01  0.51100000000E-03 0. -1.
        -11    1    3    3    0    0 -0.29078131737E+02  0.52438121685E+01  0.71067801977E+01  0.30389827845E+02  0.51100000000E-03 0.  1.
         12    1    3    3    0    0 -0.10610783075E+02  0.40192419979E+01  0.88693094279E+01  0.14401655232E+02  0.00000000000E+00 0. -1.
</event>
<event>
 7    1  0.2834226E-010  0.4778727E+02  0.7816164E-02  0.1312668E+00
        -11   -1    0    0    0    0  0.00000000000E+00  0.00000000000E+00  0.45593999997E+02  0.45594000000E+02  0.51100000000E-03 0.  1.
         11   -1    0    0    0    0 -0.00000000000E+00 -0.00000000000E+00 -0.45593999997E+02  0.45594000000E+02  0.51100000000E-03 0. -1.
    9900012    2    1    2    0    0 -0.23112029919E+02 -0.36382820757E+02 -0.50742181261E+01  0.47787271172E+02  0.20000000582E+02 0.  0.
        -12    1    1    2    0    0  0.23112029919E+02  0.36382820757E+02  0.50742181261E+01  0.43400728828E+02  0.00000000000E+00 0.  1.
         11    1    3    3    0    0 -0.19930861921E+02 -0.25221051820E+02 -0.56228098853E+01  0.32633674373E+02  0.51100000000E-03 0. -1.
        -11    1    3    3    0    0 -0.15472312338E+00  0.17613604616E+01 -0.50562461294E+00  0.18390177897E+01  0.51100000000E-03 0.  1.
         12    1    3    3    0    0 -0.30264448742E+01 -0.12923129399E+02  0.10542163721E+01  0.13314579009E+02  0.00000000000E+00 0. -1.
</event>
<event>
 7    1  0.2834226E-010  0.4778726E+02  0.7816164E-02  0.1312668E+00
        -11   -1    0    0    0    0  0.00000000000E+00  0.00000000000E+00  0.45593999997E+02  0.45594000000E+02  0.51100000000E-03 0.  1.
         11   -1    0    0    0    0 -0.00000000000E+00 -0.00000000000E+00 -0.45593999997E+02  0.45594000000E+02  0.51100000000E-03 0. -1.
    9900012    2    1    2    0    0  0.26340667088E+02 -0.12939670088E+02 -0.31974334344E+02  0.47787264276E+02  0.19999969138E+02 0.  0.
        -12    1    1    2    0    0 -0.26340667088E+02  0.12939670088E+02  0.31974334344E+02  0.43400735724E+02  0.00000000000E+00 0.  1.
         11    1    3    3    0    0  0.29817229177E+01 -0.24466441192E+00 -0.26330785739E+01  0.39854278653E+01  0.51100000000E-03 0. -1.
        -11    1    3    3    0    0  0.18095851073E+02 -0.91078070766E+01 -0.31170167082E+02  0.37175143469E+02  0.51100000000E-03 0.  1.
        -12    1    3    3    0    0  0.52630930978E+01 -0.35871985998E+01  0.18289113113E+01  0.66266929411E+01  0.00000000000E+00 0.  1.
</event>
<event>
 7    1  0.2834226E-010  0.4778727E+02  0.7816164E-02  0.1312668E+00
        -11   -1    0    0    0    0  0.00000000000E+00  0.00000000000E+00  0.45593999997E+02  0.45594000000E+02  0.51100000000E-03 0.  1.
         11   -1    0    0    0    0 -0.00000000000E+00 -0.00000000000E+00 -0.45593999997E+02  0.45594000000E+02  0.51100000000E-03 0. -1.
    9900012    2    1    2    0    0  0.13368707000E+02 -0.26880670590E+02 -0.31342151925E+02  0.47787271141E+02  0.20000000440E+02 0.  0.
        -12    1    1    2    0    0 -0.13368707000E+02  0.26880670590E+02  0.31342151925E+02  0.43400728859E+02  0.00000000000E+00 0.  1.
         11    1    3    3    0    0 -0.10318318839E+01 -0.41029319308E+01 -0.83774983848E+01  0.93851588646E+01  0.51100000000E-03 0. -1.
        -11    1    3    3    0    0  0.57337291569E+01 -0.15277035826E+01  0.30662563848E-02  0.59337625453E+01  0.51100000000E-03 0.  1.
        -12    1    3    3    0    0  0.86668097267E+01 -0.21250035077E+02 -0.22967719796E+02  0.32468349731E+02  0.00000000000E+00 0.  1.
</event>
<event>
 7    1  0.2834226E-010  0.4778727E+02  0.7816164E-02  0.1312668E+00
        -11   -1    0    0    0    0  0.00000000000E+00  0.00000000000E+00  0.45593999997E+02  0.45594000000E+02  0.51100000000E-03 0.  1.
         11   -1    0    0    0    0 -0.00000000000E+00 -0.00000000000E+00 -0.45593999997E+02  0.45594000000E+02  0.51100000000E-03 0. -1.
    9900012    2    1    2    0    0  0.39224448635E+02 -0.26471098444E+01 -0.18386372826E+02  0.47787271125E+02  0.20000000366E+02 0.  0.
        -12    1    1    2    0    0 -0.39224448635E+02  0.26471098444E+01  0.18386372826E+02  0.43400728875E+02  0.00000000000E+00 0.  1.
         11    1    3    3    0    0  0.19460479580E+02  0.53497304550E+01 -0.99511181097E+01  0.22502325064E+02  0.51100000000E-03 0. -1.
        -11    1    3    3    0    0  0.20614688568E+02 -0.63522688823E+01 -0.89636536858E+01  0.23359447604E+02  0.51100000000E-03 0.  1.
        -12    1    3    3    0    0 -0.85071951266E+00 -0.16445714171E+01  0.52839896944E+00  0.19254984565E+01  0.00000000000E+00 0.  1.
</event>
<event>
 7    1  0.2834226E-010  0.4778726E+02  0.7816164E-02  0.1312668E+00
        -11   -1    0    0    0    0  0.00000000000E+00  0.00000000000E+00  0.45593999997E+02  0.45594000000E+02  0.51100000000E-03 0.  1.
         11   -1    0    0    0    0 -0.00000000000E+00 -0.00000000000E+00 -0.45593999997E+02  0.45594000000E+02  0.51100000000E-03 0. -1.
    9900012    2    1    2    0    0 -0.20711930735E+02  0.30528110477E+02 -0.22862073380E+02  0.47787262641E+02  0.19999961686E+02 0.  0.
        -12    1    1    2    0    0  0.20711930735E+02 -0.30528110477E+02  0.22862073380E+02  0.43400737359E+02  0.00000000000E+00 0.  1.
         11    1    3    3    0    0 -0.38208170684E+01  0.95864861719E+01  0.10678973275E+01  0.10374958562E+02  0.51100000000E-03 0. -1.
        -11    1    3    3    0    0 -0.68073724831E+00  0.41072100544E+01 -0.29451854317E+00  0.41736457763E+01  0.51100000000E-03 0.  1.
         12    1    3    3    0    0 -0.16210376418E+02  0.16834414251E+02 -0.23635452165E+02  0.33238658303E+02  0.00000000000E+00 0. -1.
</event>
<event>
 7    1  0.2834226E-010  0.4778727E+02  0.7816164E-02  0.1312668E+00
        -11   -1    0    0    0    0  0.00000000000E+00  0.00000000000E+00  0.45593999997E+02  0.45594000000E+02  0.51100000000E-03 0. -1.
         11   -1    0    0    0    0 -0.00000000000E+00 -0.00000000000E+00 -0.45593999997E+02  0.45594000000E+02  0.51100000000E-03 0.  1.
    9900012    2    1    2    0    0  0.25370531695E+02 -0.30185134802E+02 -0.18133317308E+02  0.47787269152E+02  0.19999991372E+02 0.  0.
        -12    1    1    2    0    0 -0.25370531695E+02  0.30185134802E+02  0.18133317308E+02  0.43400730848E+02  0.00000000000E+00 0.  1.
         11    1    3    3    0    0  0.72621738756E+01 -0.11139148819E+02 -0.57484463554E+01  0.14486698781E+02  0.51100000000E-03 0. -1.
        -11    1    3    3    0    0  0.20674874221E+02 -0.19041293807E+02 -0.10107823830E+02  0.29869539614E+02  0.51100000000E-03 0.  1.
         12    1    3    3    0    0 -0.25665164017E+01 -0.46921761681E-02 -0.22770471227E+01  0.34310307570E+01  0.00000000000E+00 0. -1.
</event>
<event>
 7    1  0.2834226E-010  0.4778727E+02  0.7816164E-02  0.1312668E+00
        -11   -1    0    0    0    0  0.00000000000E+00  0.00000000000E+00  0.45593999997E+02  0.45594000000E+02  0.51100000000E-03 0.  1.
         11   -1    0    0    0    0 -0.00000000000E+00 -0.00000000000E+00 -0.45593999997E+02  0.45594000000E+02  0.51100000000E-03 0. -1.
    9900012    2    1    2    0    0  0.20784580261E+02  0.37034163995E+02  0.89495906163E+01  0.47787271301E+02  0.20000001168E+02 0.  0.
        -12    1    1    2    0    0 -0.20784580261E+02 -0.37034163995E+02 -0.89495906163E+01  0.43400728699E+02  0.00000000000E+00 0.  1.
         11    1    3    3    0    0  0.38531078166E+01  0.15570079671E+02  0.51919109913E+01  0.16859115066E+02  0.51100000000E-03 0. -1.
        -11    1    3    3    0    0  0.18478798271E+02  0.21683782611E+02  0.19756999837E+01  0.28557937680E+02  0.51100000000E-03 0.  1.
        -12    1    3    3    0    0 -0.15473258267E+01 -0.21969828716E+00  0.17819796413E+01  0.23702185539E+01  0.00000000000E+00 0.  1.
</event>
<event>
 7    1  0.2834226E-010  0.4778727E+02  0.7816164E-02  0.1312668E+00
        -11   -1    0    0    0    0  0.00000000000E+00  0.00000000000E+00  0.45593999997E+02  0.45594000000E+02  0.51100000000E-03 0.  1.
         11   -1    0    0    0    0 -0.00000000000E+00 -0.00000000000E+00 -0.45593999997E+02  0.45594000000E+02  0.51100000000E-03 0. -1.
    9900012    2    1    2    0    0  0.19797144208E+02  0.18816182390E+02 -0.33729034406E+02  0.47787269586E+02  0.19999993350E+02 0.  0.
        -12    1    1    2    0    0 -0.19797144208E+02 -0.18816182390E+02  0.33729034406E+02  0.43400730414E+02  0.00000000000E+00 0.  1.
         11    1    3    3    0    0  0.36136731622E+01  0.87144662308E+00 -0.10268562636E+02  0.10920688248E+02  0.51100000000E-03 0. -1.
        -11    1    3    3    0    0  0.11063935758E+02  0.10375608049E+02 -0.45037573051E+01  0.15822381204E+02  0.51100000000E-03 0.  1.
        -12    1    3    3    0    0  0.51195352881E+01  0.75691277177E+01 -0.18956714464E+02  0.21044200133E+02  0.00000000000E+00 0.  1.
</event>
<event>
 7    1  0.2834226E-010  0.4778726E+02  0.7816164E-02  0.1312668E+00
        -11   -1    0    0    0    0  0.00000000000E+00  0.00000000000E+00  0.45593999997E+02  0.45594000000E+02  0.51100000000E-03 0. -1.
         11   -1    0    0    0    0 -0.00000000000E+00 -0.00000000000E+00 -0.45593999997E+02  0.45594000000E+02  0.51100000000E-03 0.  1.
    9900012    2    1    2    0    0  0.15116595282E+02  0.35853375669E+02 -0.19226238787E+02  0.47787259710E+02  0.19999948322E+02 0.  0.
        -12    1    1    2    0    0 -0.15116595282E+02 -0.35853375669E+02  0.19226238787E+02  0.43400740290E+02  0.00000000000E+00 0.  1.
         11    1    3    3    0    0  0.84051170863E+01  0.61635661947E+01  0.17469644923E+01  0.10568227225E+02  0.51100000000E-03 0. -1.
        -11    1    3    3    0    0  0.56513344061E+01  0.18337452273E+02 -0.11313183666E+02  0.22275274664E+02  0.51100000000E-03 0.  1.
         12    1    3    3    0    0  0.10601437896E+01  0.11352357202E+02 -0.96600196136E+01  0.14943757822E+02  0.00000000000E+00 0. -1.
</event>
<event>
 7    1  0.2834226E-010  0.4778727E+02  0.7816164E-02  0.1312668E+00
        -11   -1    0    0    0    0  0.00000000000E+00  0.00000000000E+00  0.45593999997E+02  0.45594000000E+02  0.51100000000E-03 0.  1.
         11   -1    0    0    0    0 -0.00000000000E+00 -0.00000000000E+00 -0.45593999997E+02  0.45594000000E+02  0.51100000000E-03 0. -1.
    9900012    2    1    2    0    0  0.20689720769E+02  0.13978225184E+02 -0.35498846302E+02  0.47787269435E+02  0.19999992660E+02 0.  0.
        -12    1    1    2    0    0 -0.20689720769E+02 -0.13978225184E+02  0.35498846302E+02  0.43400730565E+02  0.00000000000E+00 0.  1.
         11    1    3    3    0    0  0.12271922090E+02  0.14674449797E+02 -0.27926315544E+02  0.33849943113E+02  0.51100000000E-03 0. -1.
        -11    1    3    3    0    0  0.43929117653E+01 -0.20418528800E+01  0.44625132900E+00  0.48647690049E+01  0.51100000000E-03 0.  1.
         12    1    3    3    0    0  0.40248869137E+01  0.13456282674E+01 -0.80187820877E+01  0.90725573171E+01  0.00000000000E+00 0. -1.
</event>
<event>
 7    1  0.2834226E-010  0.4778727E+02  0.7816164E-02  0.1312668E+00
        -11   -1    0    0    0    0  0.00000000000E+00  0.00000000000E+00  0.45593999997E+02  0.45594000000E+02  0.51100000000E-03 0.  1.
         11   -1    0    0    0    0 -0.00000000000E+00 -0.00000000000E+00 -0.45593999997E+02  0.45594000000E+02  0.51100000000E-03 0. -1.
    9900012    2    1    2    0    0 -0.76557435328E+01 -0.53149164547E+01 -0.42388258368E+02  0.47787271971E+02  0.20000004226E+02 0.  0.
        -12    1    1    2    0    0  0.76557435328E+01  0.53149164547E+01  0.42388258368E+02  0.43400728029E+02  0.00000000000E+00 0.  1.
         11    1    3    3    0    0 -0.37259169347E+01  0.28590495216E+00 -0.30464976270E+02  0.30693305101E+02  0.51100000000E-03 0. -1.
        -11    1    3    3    0    0 -0.14276488978E+01  0.57390071097E+00 -0.10058457022E+02  0.10175465657E+02  0.51100000000E-03 0.  1.
         12    1    3    3    0    0 -0.25021777004E+01 -0.61747221178E+01 -0.18648250759E+01  0.69185012135E+01  0.00000000000E+00 0. -1.
</event>
<event>
 7    1  0.2834226E-010  0.4778726E+02  0.7816164E-02  0.1312668E+00
        -11   -1    0    0    0    0  0.00000000000E+00  0.00000000000E+00  0.45593999997E+02  0.45594000000E+02  0.51100000000E-03 0.  1.
         11   -1    0    0    0    0 -0.00000000000E+00 -0.00000000000E+00 -0.45593999997E+02  0.45594000000E+02  0.51100000000E-03 0. -1.
    9900012    2    1    2    0    0 -0.32885175129E+02 -0.23975408130E+02 -0.15078759000E+02  0.47787263702E+02  0.19999966521E+02 0.  0.
        -12    1    1    2    0    0  0.32885175129E+02  0.23975408130E+02  0.15078759000E+02  0.43400736298E+02  0.00000000000E+00 0.  1.
         11    1    3    3    0    0 -0.29057190397E+02 -0.22810620450E+02 -0.71003150383E+01  0.37617272535E+02  0.51100000000E-03 0. -1.
        -11    1    3    3    0    0 -0.37072414883E+00  0.11863120303E+01 -0.46867537280E+01  0.48487558606E+01  0.51100000000E-03 0.  1.
        -12    1    3    3    0    0 -0.34572605830E+01 -0.23510997108E+01 -0.32916902335E+01  0.53212353060E+01  0.00000000000E+00 0.  1.
</event>
<event>
 7    1  0.2834226E-010  0.4778727E+02  0.7816164E-02  0.1312668E+00
        -11   -1    0    0    0    0  0.00000000000E+00  0.00000000000E+00  0.45593999997E+02  0.45594000000E+02  0.51100000000E-03 0.  1.
         11   -1    0    0    0    0 -0.00000000000E+00 -0.00000000000E+00 -0.45593999997E+02  0.45594000000E+02  0.51100000000E-03 0. -1.
    9900012    2    1    2    0    0 -0.65670943404E+01  0.10002457590E+02 -0.41718668946E+02  0.47787271613E+02  0.20000002592E+02 0.  0.
        -12    1    1    2    0    0  0.65670943404E+01 -0.10002457590E+02  0.41718668946E+02  0.43400728387E+02  0.00000000000E+00 0.  1.
         11    1    3    3    0    0 -0.38114980384E+01 -0.10754941109E+01 -0.15169104468E+02  0.15677561529E+02  0.51100000000E-03 0. -1.
        -11    1    3    3    0    0 -0.32595278085E+01  0.59355461461E+01 -0.20557351952E+01  0.70768126328E+01  0.51100000000E-03 0.  1.
        -12    1    3    3    0    0  0.50393150654E+00  0.51424055546E+01 -0.24493829283E+02  0.25032897451E+02  0.00000000000E+00 0.  1.
</event>
<event>
 7    1  0.2834226E-010  0.4778727E+02  0.7816164E-02  0.1312668E+00
        -11   -1    0    0    0    0  0.00000000000E+00  0.00000000000E+00  0.45593999997E+02  0.45594000000E+02  0.51100000000E-03 0.  1.
         11   -1    0    0    0    0 -0.00000000000E+00 -0.00000000000E+00 -0.45593999997E+02  0.45594000000E+02  0.51100000000E-03 0. -1.
    9900012    2    1    2    0    0 -0.40826650138E+02  0.14716911866E+02  0.46928686121E+00  0.47787273203E+02  0.20000009842E+02 0.  0.
        -12    1    1    2    0    0  0.40826650138E+02 -0.14716911866E+02 -0.46928686121E+00  0.43400726797E+02  0.00000000000E+00 0.  1.
         11    1    3    3    0    0 -0.31230912858E+02  0.61236662748E+01  0.48418225179E+01  0.32191807221E+02  0.51100000000E-03 0. -1.
        -11    1    3    3    0    0 -0.13132759933E+01 -0.10254027197E+01  0.84926563550E+00  0.18701328704E+01  0.51100000000E-03 0.  1.
         12    1    3    3    0    0 -0.82824612864E+01  0.96186483106E+01 -0.52218012921E+01  0.13725333111E+02  0.00000000000E+00 0. -1.
</event>
<event>
 7    1  0.2834226E-010  0.4778727E+02  0.7816164E-02  0.1312668E+00
        -11   -1    0    0    0    0  0.00000000000E+00  0.00000000000E+00  0.45593999997E+02  0.45594000000E+02  0.51100000000E-03 0. -1.
         11   -1    0    0    0    0 -0.00000000000E+00 -0.00000000000E+00 -0.45593999997E+02  0.45594000000E+02  0.51100000000E-03 0.  1.
    9900012    2    1    2    0    0  0.40968031101E+02  0.41720839898E-01  0.14326259540E+02  0.47787273908E+02  0.20000013056E+02 0.  0.
        -12    1    1    2    0    0 -0.40968031101E+02 -0.41720839898E-01 -0.14326259540E+02  0.43400726092E+02  0.00000000000E+00 0.  1.
         11    1    3    3    0    0  0.25253087355E+02  0.31202078383E+01  0.47279099346E+01  0.25880634663E+02  0.51100000000E-03 0. -1.
        -11    1    3    3    0    0  0.23545924664E+01 -0.10510796262E+01  0.78719472253E+01  0.82835033314E+01  0.51100000000E-03 0.  1.
        -12    1    3    3    0    0  0.13360351279E+02 -0.20274073721E+01  0.17264023800E+01  0.13623135914E+02  0.00000000000E+00 0.  1.
</event>
<event>
 7    1  0.2834226E-010  0.4778728E+02  0.7816164E-02  0.1312668E+00
        -11   -1    0    0    0    0  0.00000000000E+00  0.00000000000E+00  0.45593999997E+02  0.45594000000E+02  0.51100000000E-03 0. -1.
         11   -1    0    0    0    0 -0.00000000000E+00 -0.00000000000E+00 -0.45593999997E+02  0.45594000000E+02  0.51100000000E-03 0.  1.
    9900012    2    1    2    0    0  0.19015664788E+02  0.37331486509E+02  0.11330818789E+02  0.47787275965E+02  0.20000022435E+02 0.  0.
        -12    1    1    2    0    0 -0.19015664788E+02 -0.37331486509E+02 -0.11330818789E+02  0.43400724035E+02  0.00000000000E+00 0.  1.
         11    1    3    3    0    0  0.14783578334E+02  0.14889107729E+02  0.19812174171E+01  0.21075220996E+02  0.51100000000E-03 0. -1.
        -11    1    3    3    0    0  0.69089293366E+01  0.13703903422E+02  0.31458272794E+01  0.15666094061E+02  0.51100000000E-03 0.  1.
         12    1    3    3    0    0 -0.26768428822E+01  0.87384753575E+01  0.62037740930E+01  0.11045960908E+02  0.00000000000E+00 0. -1.
</event>
<event>
 7    1  0.2834226E-010  0.4778727E+02  0.7816164E-02  0.1312668E+00
        -11   -1    0    0    0    0  0.00000000000E+00  0.00000000000E+00  0.45593999997E+02  0.45594000000E+02  0.51100000000E-03 0. -1.
         11   -1    0    0    0    0 -0.00000000000E+00 -0.00000000000E+00 -0.45593999997E+02  0.45594000000E+02  0.51100000000E-03 0.  1.
    9900012    2    1    2    0    0 -0.32150310463E+02 -0.29021632509E+02  0.27794872986E+01  0.47787272287E+02  0.20000005666E+02 0.  0.
        -12    1    1    2    0    0  0.32150310463E+02  0.29021632509E+02 -0.27794872986E+01  0.43400727713E+02  0.00000000000E+00 0.  1.
         11    1    3    3    0    0 -0.23827470958E+02 -0.18717019423E+02  0.18460816422E+01  0.30355941857E+02  0.51100000000E-03 0. -1.
        -11    1    3    3    0    0  0.15472006203E+01 -0.56515705176E+01 -0.18959545086E+01  0.61586299479E+01  0.51100000000E-03 0.  1.
        -12    1    3    3    0    0 -0.98700401250E+01 -0.46530425688E+01  0.28293601650E+01  0.11272700482E+02  0.00000000000E+00 0.  1.
</event>
<event>
 7    1  0.2834226E-010  0.4778725E+02  0.7816164E-02  0.1312668E+00
        -11   -1    0    0    0    0  0.00000000000E+00  0.00000000000E+00  0.45593999997E+02  0.45594000000E+02  0.51100000000E-03 0. -1.
         11   -1    0    0    0    0 -0.00000000000E+00 -0.00000000000E+00 -0.45593999997E+02  0.45594000000E+02  0.51100000000E-03 0.  1.
    9900012    2    1    2    0    0 -0.26521175529E+02  0.61132373649E+01  0.33806512310E+02  0.47787254648E+02  0.19999925240E+02 0.  0.
        -12    1    1    2    0    0  0.26521175529E+02 -0.61132373649E+01 -0.33806512310E+02  0.43400745352E+02  0.00000000000E+00 0.  1.
         11    1    3    3    0    0 -0.17892934591E+02  0.10764868165E+02  0.16670485439E+02  0.26719741390E+02  0.51100000000E-03 0. -1.
        -11    1    3    3    0    0 -0.54326811275E+01 -0.56760569548E+01  0.74923358682E+01  0.10856645145E+02  0.51100000000E-03 0.  1.
        -12    1    3    3    0    0 -0.31955598107E+01  0.10244261545E+01  0.96436910028E+01  0.10210868112E+02  0.00000000000E+00 0.  1.
</event>
<event>
 7    1  0.2834226E-010  0.4778727E+02  0.7816164E-02  0.1312668E+00
        -11   -1    0    0    0    0  0.00000000000E+00  0.00000000000E+00  0.45593999997E+02  0.45594000000E+02  0.51100000000E-03 0.  1.
         11   -1    0    0    0    0 -0.00000000000E+00 -0.00000000000E+00 -0.45593999997E+02  0.45594000000E+02  0.51100000000E-03 0. -1.
    9900012    2    1    2    0    0 -0.24676269817E+02 -0.82564697432E+01 -0.34735221770E+02  0.47787271709E+02  0.20000003032E+02 0.  0.
        -12    1    1    2    0    0  0.24676269817E+02  0.82564697432E+01  0.34735221770E+02  0.43400728291E+02  0.00000000000E+00 0.  1.
         11    1    3    3    0    0 -0.14309987488E+02 -0.26973391641E+01 -0.30913543875E+02  0.34171604815E+02  0.51100000000E-03 0. -1.
        -11    1    3    3    0    0 -0.98875122871E+01 -0.28759510062E+01 -0.34766668987E+01  0.10868358036E+02  0.51100000000E-03 0.  1.
         12    1    3    3    0    0 -0.47877004287E+00 -0.26831795729E+01 -0.34501099664E+00  0.27473088582E+01  0.00000000000E+00 0. -1.
</event>
<event>
 7    1  0.2834226E-010  0.4778727E+02  0.7816164E-02  0.1312668E+00
        -11   -1    0    0    0    0  0.00000000000E+00  0.00000000000E+00  0.45593999997E+02  0.45594000000E+02  0.51100000000E-03 0.  1.
         11   -1    0    0    0    0 -0.00000000000E+00 -0.00000000000E+00 -0.45593999997E+02  0.45594000000E+02  0.51100000000E-03 0. -1.
    9900012    2    1    2    0    0 -0.46666890163E+00  0.41406816859E+02 -0.12995431084E+02  0.47787268539E+02  0.19999988577E+02 0.  0.
        -12    1    1    2    0    0  0.46666890163E+00 -0.41406816859E+02  0.12995431084E+02  0.43400731461E+02  0.00000000000E+00 0.  1.
         11    1    3    3    0    0  0.78678474766E+01  0.11376745039E+02 -0.72574713281E+01  0.15620635132E+02  0.51100000000E-03 0. -1.
        -11    1    3    3    0    0 -0.58133373202E+01  0.11507942435E+02 -0.33560184472E+01  0.13322555685E+02  0.51100000000E-03 0.  1.
         12    1    3    3    0    0 -0.25211790581E+01  0.18522129385E+02 -0.23819413088E+01  0.18844077722E+02  0.00000000000E+00 0. -1.
</event>
<event>
 7    1  0.2834226E-010  0.4778727E+02  0.7816164E-02  0.1312668E+00
        -11   -1    0    0    0    0  0.00000000000E+00  0.00000000000E+00  0.45593999997E+02  0.45594000000E+02  0.51100000000E-03 0. -1.
         11   -1    0    0    0    0 -0.00000000000E+00 -0.00000000000E+00 -0.45593999997E+02  0.45594000000E+02  0.51100000000E-03 0.  1.
    9900012    2    1    2    0    0 -0.34831905984E+01 -0.21707924728E+02  0.37420003576E+02  0.47787270969E+02  0.19999999658E+02 0.  0.
        -12    1    1    2    0    0  0.34831905984E+01  0.21707924728E+02 -0.37420003576E+02  0.43400729031E+02  0.00000000000E+00 0.  1.
         11    1    3    3    0    0 -0.80016878155E+01 -0.10190128828E+02  0.23538839040E+02  0.26868990994E+02  0.51100000000E-03 0. -1.
        -11    1    3    3    0    0 -0.14589778005E+01 -0.40320591475E+01  0.29974232217E+00  0.42983674706E+01  0.51100000000E-03 0.  1.
         12    1    3    3    0    0  0.59774750176E+01 -0.74857367517E+01  0.13581422214E+02  0.16619912505E+02  0.00000000000E+00 0. -1.
</event>
<event>
 7    1  0.2834226E-010  0.4778727E+02  0.7816164E-02  0.1312668E+00
        -11   -1    0    0    0    0  0.00000000000E+00  0.00000000000E+00  0.45593999997E+02  0.45594000000E+02  0.51100000000E-03 0.  1.
         11   -1    0    0    0    0 -0.00000000000E+00 -0.00000000000E+00 -0.45593999997E+02  0.45594000000E+02  0.51100000000E-03 0. -1.
    9900012    2    1    2    0    0  0.63021232634E+00 -0.59622422232E+01 -0.42984623972E+02  0.47787269615E+02  0.19999993483E+02 0.  0.
        -12    1    1    2    0    0 -0.63021232634E+00  0.59622422232E+01  0.42984623972E+02  0.43400730385E+02  0.00000000000E+00 0.  1.
         11    1    3    3    0    0  0.77638356054E+00 -0.56150738385E+01 -0.41776999575E+02  0.42159809290E+02  0.51100000000E-03 0. -1.
        -11    1    3    3    0    0  0.19724477996E+00  0.10218536601E+01  0.19268056287E+01  0.21899019607E+01  0.51100000000E-03 0.  1.
        -12    1    3    3    0    0 -0.34341601416E+00 -0.13690220448E+01 -0.31344300265E+01  0.34375583644E+01  0.00000000000E+00 0.  1.
</event>
<event>
 7    1  0.2834226E-010  0.4778728E+02  0.7816164E-02  0.1312668E+00
        -11   -1    0    0    0    0  0.00000000000E+00  0.00000000000E+00  0.45593999997E+02  0.45594000000E+02  0.51100000000E-03 0.  1.
         11   -1    0    0    0    0 -0.00000000000E+00 -0.00000000000E+00 -0.45593999997E+02  0.45594000000E+02  0.51100000000E-03 0. -1.
    9900012    2    1    2    0    0  0.10100238855E+02  0.13729447461E+02 -0.39913781777E+02  0.47787279635E+02  0.20000039166E+02 0.  0.
        -12    1    1    2    0    0 -0.10100238855E+02 -0.13729447461E+02  0.39913781777E+02  0.43400720365E+02  0.00000000000E+00 0.  1.
         11    1    3    3    0    0  0.99934352001E+00  0.13110925239E+02 -0.30941735318E+02  0.33619726841E+02  0.51100000000E-03 0. -1.
        -11    1    3    3    0    0 -0.68190066233E+00 -0.77625270538E+00 -0.12797008410E+01  0.16447465700E+01  0.51100000000E-03 0.  1.
         12    1    3    3    0    0  0.97827959970E+01  0.13947749275E+01 -0.76923456177E+01  0.12522806224E+02  0.00000000000E+00 0. -1.
</event>
<event>
 7    1  0.2834226E-010  0.4778722E+02  0.7816164E-02  0.1312668E+00
        -11   -1    0    0    0    0  0.00000000000E+00  0.00000000000E+00  0.45593999997E+02  0.45594000000E+02  0.51100000000E-03 0.  1.
         11   -1    0    0    0    0 -0.00000000000E+00 -0.00000000000E+00 -0.45593999997E+02  0.45594000000E+02  0.51100000000E-03 0. -1.
    9900012    2    1    2    0    0  0.11574971979E+02  0.33018275621E+02 -0.25679580157E+02  0.47787224220E+02  0.19999786507E+02 0.  0.
        -12    1    1    2    0    0 -0.11574971979E+02 -0.33018275621E+02  0.25679580157E+02  0.43400775780E+02  0.00000000000E+00 0.  1.
         11    1    3    3    0    0  0.94767254602E+01  0.26844509571E+02 -0.15347941577E+02  0.32341851068E+02  0.51100000000E-03 0.  1.
        -11    1    3    3    0    0  0.40425943414E+01  0.10148817011E+00 -0.73888192604E+01  0.84230350338E+01  0.51100000000E-03 0. -1.
        -12    1    3    3    0    0 -0.19443478230E+01  0.60722778791E+01 -0.29428193200E+01  0.70223381183E+01  0.00000000000E+00 0.  1.
</event>
<event>
 7    1  0.2834226E-010  0.4778727E+02  0.7816164E-02  0.1312668E+00
        -11   -1    0    0    0    0  0.00000000000E+00  0.00000000000E+00  0.45593999997E+02  0.45594000000E+02  0.51100000000E-03 0.  1.
         11   -1    0    0    0    0 -0.00000000000E+00 -0.00000000000E+00 -0.45593999997E+02  0.45594000000E+02  0.51100000000E-03 0. -1.
    9900012    2    1    2    0    0 -0.39722658793E+02 -0.10395812304E+02 -0.14059197042E+02  0.47787267788E+02  0.19999985151E+02 0.  0.
        -12    1    1    2    0    0  0.39722658793E+02  0.10395812304E+02  0.14059197042E+02  0.43400732212E+02  0.00000000000E+00 0.  1.
         11    1    3    3    0    0 -0.16440353406E+02 -0.57664741012E+01  0.35910778553E+01  0.17788571727E+02  0.51100000000E-03 0. -1.
        -11    1    3    3    0    0 -0.20956670811E+02 -0.25091000814E+01 -0.15525568524E+02  0.26201544094E+02  0.51100000000E-03 0.  1.
         12    1    3    3    0    0 -0.23256345772E+01 -0.21202381218E+01 -0.21247063739E+01  0.37971519663E+01  0.00000000000E+00 0. -1.
</event>
<event>
 7    1  0.2834226E-010  0.4778727E+02  0.7816164E-02  0.1312668E+00
        -11   -1    0    0    0    0  0.00000000000E+00  0.00000000000E+00  0.45593999997E+02  0.45594000000E+02  0.51100000000E-03 0.  1.
         11   -1    0    0    0    0 -0.00000000000E+00 -0.00000000000E+00 -0.45593999997E+02  0.45594000000E+02  0.51100000000E-03 0. -1.
    9900012    2    1    2    0    0 -0.55184851345E+01  0.33387856161E+02 -0.27173904416E+02  0.47787266153E+02  0.19999977699E+02 0.  0.
        -12    1    1    2    0    0  0.55184851345E+01 -0.33387856161E+02  0.27173904416E+02  0.43400733847E+02  0.00000000000E+00 0.  1.
         11    1    3    3    0    0 -0.10587207225E+01  0.16890241522E+01 -0.67999995290E+01  0.70861615851E+01  0.51100000000E-03 0. -1.
        -11    1    3    3    0    0 -0.78270603151E+00  0.27709142521E+02 -0.21595747284E+02  0.35139514922E+02  0.51100000000E-03 0.  1.
        -12    1    3    3    0    0 -0.36770583805E+01  0.39896894884E+01  0.12218423964E+01  0.55615896459E+01  0.00000000000E+00 0.  1.
</event>
<event>
 7    1  0.2834226E-010  0.4778727E+02  0.7816164E-02  0.1312668E+00
        -11   -1    0    0    0    0  0.00000000000E+00  0.00000000000E+00  0.45593999997E+02  0.45594000000E+02  0.51100000000E-03 0.  1.
         11   -1    0    0    0    0 -0.00000000000E+00 -0.00000000000E+00 -0.45593999997E+02  0.45594000000E+02  0.51100000000E-03 0. -1.
    9900012    2    1    2    0    0 -0.29475317992E+02 -0.16991590093E+02 -0.26946521207E+02  0.47787268327E+02  0.19999987609E+02 0.  0.
        -12    1    1    2    0    0  0.29475317992E+02  0.16991590093E+02  0.26946521207E+02  0.43400731673E+02  0.00000000000E+00 0.  1.
         11    1    3    3    0    0 -0.17106925603E+02 -0.30660067141E+01 -0.65816272712E+01  0.18584001683E+02  0.51100000000E-03 0. -1.
        -11    1    3    3    0    0 -0.57571130439E+01 -0.52790887615E+00 -0.39184112049E+01  0.69840521915E+01  0.51100000000E-03 0.  1.
         12    1    3    3    0    0 -0.66112793450E+01 -0.13397674502E+02 -0.16446482731E+02  0.22219214453E+02  0.00000000000E+00 0. -1.
</event>
<event>
 7    1  0.2834226E-010  0.4778727E+02  0.7816164E-02  0.1312668E+00
        -11   -1    0    0    0    0  0.00000000000E+00  0.00000000000E+00  0.45593999997E+02  0.45594000000E+02  0.51100000000E-03 0.  1.
         11   -1    0    0    0    0 -0.00000000000E+00 -0.00000000000E+00 -0.45593999997E+02  0.45594000000E+02  0.51100000000E-03 0. -1.
    9900012    2    1    2    0    0  0.75450372444E+01  0.40297002734E+02 -0.14242449385E+02  0.47787269812E+02  0.19999994381E+02 0.  0.
        -12    1    1    2    0    0 -0.75450372444E+01 -0.40297002734E+02  0.14242449385E+02  0.43400730188E+02  0.00000000000E+00 0.  1.
         11    1    3    3    0    0  0.79403129467E+01  0.22402538561E+02 -0.16701817319E+01  0.23826703737E+02  0.51100000000E-03 0. -1.
        -11    1    3    3    0    0  0.28196615447E+01  0.16162396849E+02 -0.11848756413E+02  0.20237751652E+02  0.51100000000E-03 0.  1.
        -12    1    3    3    0    0 -0.32149372471E+01  0.17320673235E+01 -0.72351124047E+00  0.37228144234E+01  0.00000000000E+00 0.  1.
</event>
<event>
 7    1  0.2834226E-010  0.4778727E+02  0.7816164E-02  0.1312668E+00
        -11   -1    0    0    0    0  0.00000000000E+00  0.00000000000E+00  0.45593999997E+02  0.45594000000E+02  0.51100000000E-03 0.  1.
         11   -1    0    0    0    0 -0.00000000000E+00 -0.00000000000E+00 -0.45593999997E+02  0.45594000000E+02  0.51100000000E-03 0. -1.
    9900012    2    1    2    0    0 -0.20586826120E+02  0.19142216262E+02 -0.33066317803E+02  0.47787271594E+02  0.20000002507E+02 0.  0.
        -12    1    1    2    0    0  0.20586826120E+02 -0.19142216262E+02  0.33066317803E+02  0.43400728406E+02  0.00000000000E+00 0.  1.
         11    1    3    3    0    0 -0.31155187097E-01  0.76983597843E+00 -0.14091144931E+02  0.14112192736E+02  0.51100000000E-03 0. -1.
        -11    1    3    3    0    0 -0.11565194595E+02  0.97064209621E+01 -0.81996450683E+01  0.17181458419E+02  0.51100000000E-03 0.  1.
         12    1    3    3    0    0 -0.89904763382E+01  0.86659593216E+01 -0.10775527803E+02  0.16493620439E+02  0.00000000000E+00 0. -1.
</event>
<event>
 7    1  0.2834226E-010  0.4778727E+02  0.7816164E-02  0.1312668E+00
        -11   -1    0    0    0    0  0.00000000000E+00  0.00000000000E+00  0.45593999997E+02  0.45594000000E+02  0.51100000000E-03 0.  1.
         11   -1    0    0    0    0 -0.00000000000E+00 -0.00000000000E+00 -0.45593999997E+02  0.45594000000E+02  0.51100000000E-03 0. -1.
    9900012    2    1    2    0    0  0.23628109742E+02 -0.25143543479E+02 -0.26327508191E+02  0.47787273783E+02  0.20000012486E+02 0.  0.
        -12    1    1    2    0    0 -0.23628109742E+02  0.25143543479E+02  0.26327508191E+02  0.43400726217E+02  0.00000000000E+00 0.  1.
         11    1    3    3    0    0  0.45526797459E+00 -0.46514908065E+01 -0.13014959914E+02  0.13828695436E+02  0.51100000000E-03 0. -1.
        -11    1    3    3    0    0  0.20667286032E+02 -0.17975423399E+02 -0.13200239463E+02  0.30405573181E+02  0.51100000000E-03 0.  1.
        -12    1    3    3    0    0  0.25055557347E+01 -0.25166292736E+01 -0.11230881408E+00  0.35530051661E+01  0.00000000000E+00 0.  1.
</event>
<event>
 7    1  0.2834226E-010  0.4778727E+02  0.7816164E-02  0.1312668E+00
        -11   -1    0    0    0    0  0.00000000000E+00  0.00000000000E+00  0.45593999997E+02  0.45594000000E+02  0.51100000000E-03 0. -1.
         11   -1    0    0    0    0 -0.00000000000E+00 -0.00000000000E+00 -0.45593999997E+02  0.45594000000E+02  0.51100000000E-03 0.  1.
    9900012    2    1    2    0    0 -0.40640546164E+01  0.27346076531E+02  0.33455922506E+02  0.47787271985E+02  0.20000004287E+02 0.  0.
        -12    1    1    2    0    0  0.40640546164E+01 -0.27346076531E+02 -0.33455922506E+02  0.43400728015E+02  0.00000000000E+00 0.  1.
         11    1    3    3    0    0 -0.37041420024E+01  0.45005382227E+01  0.19045332228E+01  0.61321088808E+01  0.51100000000E-03 0. -1.
        -11    1    3    3    0    0 -0.39574634801E+00  0.89700038695E+01  0.24494272812E+02  0.26088062125E+02  0.51100000000E-03 0.  1.
        -12    1    3    3    0    0  0.35833734059E-01  0.13875534438E+02  0.70571164712E+01  0.15567100979E+02  0.00000000000E+00 0.  1.
</event>
<event>
 7    1  0.2834226E-010  0.4778727E+02  0.7816164E-02  0.1312668E+00
        -11   -1    0    0    0    0  0.00000000000E+00  0.00000000000E+00  0.45593999997E+02  0.45594000000E+02  0.51100000000E-03 0.  1.
         11   -1    0    0    0    0 -0.00000000000E+00 -0.00000000000E+00 -0.45593999997E+02  0.45594000000E+02  0.51100000000E-03 0. -1.
    9900012    2    1    2    0    0 -0.40695348851E+02  0.82912060621E+01 -0.12600314415E+02  0.47787269137E+02  0.19999991302E+02 0.  0.
        -12    1    1    2    0    0  0.40695348851E+02 -0.82912060621E+01  0.12600314415E+02  0.43400730863E+02  0.00000000000E+00 0.  1.
         11    1    3    3    0    0 -0.13551837519E+02 -0.44985323228E+01 -0.87111736378E+00  0.14305521275E+02  0.51100000000E-03 0. -1.
        -11    1    3    3    0    0 -0.16745613067E+02  0.10891157654E+02 -0.11193902298E+02  0.22898391230E+02  0.51100000000E-03 0.  1.
         12    1    3    3    0    0 -0.10397898265E+02  0.18985807313E+01 -0.53529475357E+00  0.10583356632E+02  0.00000000000E+00 0. -1.
</event>
<event>
 7    1  0.2834226E-010  0.4778727E+02  0.7816164E-02  0.1312668E+00
        -11   -1    0    0    0    0  0.00000000000E+00  0.00000000000E+00  0.45593999997E+02  0.45594000000E+02  0.51100000000E-03 0.  1.
         11   -1    0    0    0    0 -0.00000000000E+00 -0.00000000000E+00 -0.45593999997E+02  0.45594000000E+02  0.51100000000E-03 0. -1.
    9900012    2    1    2    0    0  0.24103729833E+02 -0.20506808143E+02 -0.29700245656E+02  0.47787267701E+02  0.19999984755E+02 0.  0.
        -12    1    1    2    0    0 -0.24103729833E+02  0.20506808143E+02  0.29700245656E+02  0.43400732299E+02  0.00000000000E+00 0.  1.
         11    1    3    3    0    0  0.75786628386E+01 -0.13726449112E+02 -0.17312596680E+02  0.23357601326E+02  0.51100000000E-03 0. -1.
        -11    1    3    3    0    0  0.11717981621E+02  0.10678829744E+01 -0.58498688701E+01  0.13140488323E+02  0.51100000000E-03 0.  1.
        -12    1    3    3    0    0  0.48070853734E+01 -0.78482420059E+01 -0.65377801065E+01  0.11289178052E+02  0.00000000000E+00 0.  1.
</event>
<event>
 7    1  0.2834226E-010  0.4778727E+02  0.7816164E-02  0.1312668E+00
        -11   -1    0    0    0    0  0.00000000000E+00  0.00000000000E+00  0.45593999997E+02  0.45594000000E+02  0.51100000000E-03 0. -1.
         11   -1    0    0    0    0 -0.00000000000E+00 -0.00000000000E+00 -0.45593999997E+02  0.45594000000E+02  0.51100000000E-03 0.  1.
    9900012    2    1    2    0    0  0.30055141194E+02 -0.30820215267E+02 -0.55159595356E+01  0.47787274305E+02  0.20000014864E+02 0.  0.
        -12    1    1    2    0    0 -0.30055141194E+02  0.30820215267E+02  0.55159595356E+01  0.43400725695E+02  0.00000000000E+00 0.  1.
         11    1    3    3    0    0  0.10893658363E+02 -0.40892618850E+01  0.44687779090E+01  0.12464502860E+02  0.51100000000E-03 0. -1.
        -11    1    3    3    0    0  0.11981168507E+02 -0.19656821381E+02 -0.33683220986E+01  0.23265524271E+02  0.51100000000E-03 0.  1.
         12    1    3    3    0    0  0.71803143250E+01 -0.70741320005E+01 -0.66164153460E+01  0.12057247173E+02  0.00000000000E+00 0. -1.
</event>
<event>
 7    1  0.2834226E-010  0.4778726E+02  0.7816164E-02  0.1312668E+00
        -11   -1    0    0    0    0  0.00000000000E+00  0.00000000000E+00  0.45593999997E+02  0.45594000000E+02  0.51100000000E-03 0.  1.
         11   -1    0    0    0    0 -0.00000000000E+00 -0.00000000000E+00 -0.45593999997E+02  0.45594000000E+02  0.51100000000E-03 0. -1.
    9900012    2    1    2    0    0  0.19022551137E+02  0.32986013278E+02 -0.20825212773E+02  0.47787262555E+02  0.19999961293E+02 0.  0.
        -12    1    1    2    0    0 -0.19022551137E+02 -0.32986013278E+02  0.20825212773E+02  0.43400737445E+02  0.00000000000E+00 0.  1.
         11    1    3    3    0    0  0.10534739622E+02  0.14745633908E+02 -0.17356419428E+02  0.25093022016E+02  0.51100000000E-03 0. -1.
        -11    1    3    3    0    0  0.14909993205E+01  0.22400178332E+01  0.30377828050E+01  0.40581872183E+01  0.51100000000E-03 0.  1.
        -12    1    3    3    0    0  0.69968121953E+01  0.16000361536E+02 -0.65065761499E+01  0.18636053321E+02  0.00000000000E+00 0.  1.
</event>
<event>
 7    1  0.2834226E-010  0.4778728E+02  0.7816164E-02  0.1312668E+00
        -11   -1    0    0    0    0  0.00000000000E+00  0.00000000000E+00  0.45593999997E+02  0.45594000000E+02  0.51100000000E-03 0.  1.
         11   -1    0    0    0    0 -0.00000000000E+00 -0.00000000000E+00 -0.45593999997E+02  0.45594000000E+02  0.51100000000E-03 0. -1.
    9900012    2    1    2    0    0  0.15671434738E+02  0.38728219947E+02  0.11753884987E+02  0.47787277664E+02  0.20000030181E+02 0.  0.
        -12    1    1    2    0    0 -0.15671434738E+02 -0.38728219947E+02 -0.11753884987E+02  0.43400722336E+02  0.00000000000E+00 0.  1.
         11    1    3    3    0    0  0.34889805540E+01  0.27335968154E+02  0.59449768441E+01  0.28191681222E+02  0.51100000000E-03 0. -1.
        -11    1    3    3    0    0  0.12132620987E+02  0.10277538524E+02  0.24902802235E+01  0.16094402318E+02  0.51100000000E-03 0.  1.
         12    1    3    3    0    0  0.49833196492E-01  0.11147132694E+01  0.33186279195E+01  0.35011941233E+01  0.00000000000E+00 0. -1.
</event>
<event>
 7    1  0.2834226E-010  0.4778727E+02  0.7816164E-02  0.1312668E+00
        -11   -1    0    0    0    0  0.00000000000E+00  0.00000000000E+00  0.45593999997E+02  0.45594000000E+02  0.51100000000E-03 0. -1.
         11   -1    0    0    0    0 -0.00000000000E+00 -0.00000000000E+00 -0.45593999997E+02  0.45594000000E+02  0.51100000000E-03 0.  1.
    9900012    2    1    2    0    0  0.33947795655E+02  0.26537959769E+02  0.51871990789E+01  0.47787272209E+02  0.20000005310E+02 0.  0.
        -12    1    1    2    0    0 -0.33947795655E+02 -0.26537959769E+02 -0.51871990789E+01  0.43400727791E+02  0.00000000000E+00 0.  1.
         11    1    3    3    0    0  0.23342682187E+02  0.96624794521E+01  0.64359195565E+01  0.26070392818E+02  0.51100000000E-03 0. -1.
        -11    1    3    3    0    0  0.92231980556E+01  0.14968615630E+02 -0.40649364669E+01  0.18045790229E+02  0.51100000000E-03 0.  1.
        -12    1    3    3    0    0  0.13819154116E+01  0.19068646866E+01  0.28162159893E+01  0.36710891621E+01  0.00000000000E+00 0.  1.
</event>
<event>
 7    1  0.2834226E-010  0.4778728E+02  0.7816164E-02  0.1312668E+00
        -11   -1    0    0    0    0  0.00000000000E+00  0.00000000000E+00  0.45593999997E+02  0.45594000000E+02  0.51100000000E-03 0.  1.
         11   -1    0    0    0    0 -0.00000000000E+00 -0.00000000000E+00 -0.45593999997E+02  0.45594000000E+02  0.51100000000E-03 0. -1.
    9900012    2    1    2    0    0  0.34788458924E+01  0.23638662307E+02 -0.36231669355E+02  0.47787278939E+02  0.20000035994E+02 0.  0.
        -12    1    1    2    0    0 -0.34788458924E+01 -0.23638662307E+02  0.36231669355E+02  0.43400721061E+02  0.00000000000E+00 0.  1.
         11    1    3    3    0    0  0.15255313885E+01  0.90975273917E+01 -0.11770586442E+01  0.92993396525E+01  0.51100000000E-03 0. -1.
        -11    1    3    3    0    0 -0.13539455440E+01  0.10419297998E+02 -0.21230651475E+02  0.23688298833E+02  0.51100000000E-03 0.  1.
        -12    1    3    3    0    0  0.33072600478E+01  0.41218369169E+01 -0.13823959236E+02  0.14799640453E+02  0.00000000000E+00 0.  1.
</event>
<event>
 7    1  0.2834226E-010  0.4778727E+02  0.7816164E-02  0.1312668E+00
        -11   -1    0    0    0    0  0.00000000000E+00  0.00000000000E+00  0.45593999997E+02  0.45594000000E+02  0.51100000000E-03 0. -1.
         11   -1    0    0    0    0 -0.00000000000E+00 -0.00000000000E+00 -0.45593999997E+02  0.45594000000E+02  0.51100000000E-03 0.  1.
    9900012    2    1    2    0    0 -0.20786384391E+02 -0.34706865559E+02  0.15715698596E+02  0.47787268724E+02  0.19999989419E+02 0.  0.
        -12    1    1    2    0    0  0.20786384391E+02  0.34706865559E+02 -0.15715698596E+02  0.43400731276E+02  0.00000000000E+00 0.  1.
         11    1    3    3    0    0 -0.18965850095E+02 -0.22251144949E+02  0.11222146048E+02  0.31316983947E+02  0.51100000000E-03 0. -1.
        -11    1    3    3    0    0 -0.48941906441E+01 -0.28903405945E+01  0.68286869375E+00  0.57248127242E+01  0.51100000000E-03 0.  1.
         12    1    3    3    0    0  0.30736563488E+01 -0.95653800158E+01  0.38106838538E+01  0.10745472052E+02  0.00000000000E+00 0. -1.
</event>
<event>
 7    1  0.2834226E-010  0.4778727E+02  0.7816164E-02  0.1312668E+00
        -11   -1    0    0    0    0  0.00000000000E+00  0.00000000000E+00  0.45593999997E+02  0.45594000000E+02  0.51100000000E-03 0.  1.
         11   -1    0    0    0    0 -0.00000000000E+00 -0.00000000000E+00 -0.45593999997E+02  0.45594000000E+02  0.51100000000E-03 0. -1.
    9900012    2    1    2    0    0 -0.29913964464E+02 -0.29470182751E+02 -0.10967520208E+02  0.47787269120E+02  0.19999991228E+02 0.  0.
        -12    1    1    2    0    0  0.29913964464E+02  0.29470182751E+02  0.10967520208E+02  0.43400730880E+02  0.00000000000E+00 0.  1.
         11    1    3    3    0    0 -0.15795625380E+02 -0.10486246760E+02 -0.98126749296E+01  0.21348342835E+02  0.51100000000E-03 0. -1.
        -11    1    3    3    0    0  0.33889202599E+00 -0.15096431787E+01  0.30060293080E+01  0.33808405455E+01  0.51100000000E-03 0.  1.
        -12    1    3    3    0    0 -0.14457231110E+02 -0.17474292812E+02 -0.41608745866E+01  0.23058085740E+02  0.00000000000E+00 0.  1.
</event>
<event>
 7    1  0.2834226E-010  0.4778727E+02  0.7816164E-02  0.1312668E+00
        -11   -1    0    0    0    0  0.00000000000E+00  0.00000000000E+00  0.45593999997E+02  0.45594000000E+02  0.51100000000E-03 0.  1.
         11   -1    0    0    0    0 -0.00000000000E+00 -0.00000000000E+00 -0.45593999997E+02  0.45594000000E+02  0.51100000000E-03 0. -1.
    9900012    2    1    2    0    0 -0.24669684741E+02  0.76686314052E+01 -0.34874380087E+02  0.47787266834E+02  0.19999980805E+02 0.  0.
        -12    1    1    2    0    0  0.24669684741E+02 -0.76686314052E+01  0.34874380087E+02  0.43400733166E+02  0.00000000000E+00 0.  1.
         11    1    3    3    0    0 -0.12950161362E+02  0.87295341521E+01 -0.10493373986E+02  0.18815481490E+02  0.51100000000E-03 0. -1.
        -11    1    3    3    0    0 -0.56931913452E+01  0.15402629525E+01 -0.30220492772E+01  0.66270370265E+01  0.51100000000E-03 0.  1.
         12    1    3    3    0    0 -0.60263320329E+01 -0.26011656994E+01 -0.21358956824E+02  0.22344748318E+02  0.00000000000E+00 0. -1.
</event>
<event>
 7    1  0.2834226E-010  0.4778725E+02  0.7816164E-02  0.1312668E+00
        -11   -1    0    0    0    0  0.00000000000E+00  0.00000000000E+00  0.45593999997E+02  0.45594000000E+02  0.51100000000E-03 0.  1.
         11   -1    0    0    0    0 -0.00000000000E+00 -0.00000000000E+00 -0.45593999997E+02  0.45594000000E+02  0.51100000000E-03 0. -1.
    9900012    2    1    2    0    0  0.17263990965E+02  0.35422674156E+02 -0.18188285669E+02  0.47787251573E+02  0.19999911222E+02 0.  0.
        -12    1    1    2    0    0 -0.17263990965E+02 -0.35422674156E+02  0.18188285669E+02  0.43400748427E+02  0.00000000000E+00 0.  1.
         11    1    3    3    0    0  0.12028680423E+02  0.29217044509E+02 -0.16406056087E+02  0.35601734777E+02  0.51100000000E-03 0. -1.
        -11    1    3    3    0    0 -0.24175721995E+01  0.78775096603E+00  0.35810272356E+00  0.25677703842E+01  0.51100000000E-03 0.  1.
        -12    1    3    3    0    0  0.76528827412E+01  0.54178786811E+01 -0.21403323064E+01  0.96177464115E+01  0.00000000000E+00 0.  1.
</event>
<event>
 7    1  0.2834226E-010  0.4778727E+02  0.7816164E-02  0.1312668E+00
        -11   -1    0    0    0    0  0.00000000000E+00  0.00000000000E+00  0.45593999997E+02  0.45594000000E+02  0.51100000000E-03 0. -1.
         11   -1    0    0    0    0 -0.00000000000E+00 -0.00000000000E+00 -0.45593999997E+02  0.45594000000E+02  0.51100000000E-03 0.  1.
    9900012    2    1    2    0    0 -0.11889185359E+02 -0.11907761335E+02  0.40005949149E+02  0.47787268718E+02  0.19999989395E+02 0.  0.
        -12    1    1    2    0    0  0.11889185359E+02  0.11907761335E+02 -0.40005949149E+02  0.43400731282E+02  0.00000000000E+00 0.  1.
         11    1    3    3    0    0 -0.64756306902E+01 -0.97175882111E+01  0.70889537781E+01  0.13660841094E+02  0.51100000000E-03 0. -1.
        -11    1    3    3    0    0 -0.34585885618E+01 -0.11233289771E+01  0.30926124086E+02  0.31139185186E+02  0.51100000000E-03 0.  1.
         12    1    3    3    0    0 -0.19549661068E+01 -0.10668441463E+01  0.19908712849E+01  0.29872424382E+01  0.00000000000E+00 0. -1.
</event>
<event>
 7    1  0.2834226E-010  0.4778726E+02  0.7816164E-02  0.1312668E+00
        -11   -1    0    0    0    0  0.00000000000E+00  0.00000000000E+00  0.45593999997E+02  0.45594000000E+02  0.51100000000E-03 0.  1.
         11   -1    0    0    0    0 -0.00000000000E+00 -0.00000000000E+00 -0.45593999997E+02  0.45594000000E+02  0.51100000000E-03 0. -1.
    9900012    2    1    2    0    0  0.21824571457E+02 -0.27970090928E+02 -0.24999718284E+02  0.47787264752E+02  0.19999971312E+02 0.  0.
        -12    1    1    2    0    0 -0.21824571457E+02  0.27970090928E+02  0.24999718284E+02  0.43400735248E+02  0.00000000000E+00 0.  1.
         11    1    3    3    0    0  0.70620936355E+01 -0.12636874930E+02 -0.44393887166E+00  0.14483123161E+02  0.51100000000E-03 0. -1.
        -11    1    3    3    0    0  0.23351408189E+01 -0.47183752453E+00 -0.52935651895E+00  0.24404368214E+01  0.51100000000E-03 0.  1.
         12    1    3    3    0    0  0.12427337003E+02 -0.14861378473E+02 -0.24026422893E+02  0.30863704770E+02  0.00000000000E+00 0. -1.
</event>
<event>
 7    1  0.2834226E-010  0.4778727E+02  0.7816164E-02  0.1312668E+00
        -11   -1    0    0    0    0  0.00000000000E+00  0.00000000000E+00  0.45593999997E+02  0.45594000000E+02  0.51100000000E-03 0.  1.
         11   -1    0    0    0    0 -0.00000000000E+00 -0.00000000000E+00 -0.45593999997E+02  0.45594000000E+02  0.51100000000E-03 0. -1.
    9900012    2    1    2    0    0  0.18314876662E+02 -0.35628641299E+02 -0.16696973127E+02  0.47787266140E+02  0.19999977641E+02 0.  0.
        -12    1    1    2    0    0 -0.18314876662E+02  0.35628641299E+02  0.16696973127E+02  0.43400733860E+02  0.00000000000E+00 0.  1.
         11    1    3    3    0    0  0.11348979004E+02 -0.10399537220E+02 -0.14656732515E+01  0.15462790730E+02  0.51100000000E-03 0. -1.
        -11    1    3    3    0    0  0.36739552483E+01 -0.86680150344E+01 -0.11797964583E+02  0.15093853065E+02  0.51100000000E-03 0.  1.
         12    1    3    3    0    0  0.32919424098E+01 -0.16561089045E+02 -0.34333352932E+01  0.17230622346E+02  0.00000000000E+00 0. -1.
</event>
<event>
 7    1  0.2834226E-010  0.4778727E+02  0.7816164E-02  0.1312668E+00
        -11   -1    0    0    0    0  0.00000000000E+00  0.00000000000E+00  0.45593999997E+02  0.45594000000E+02  0.51100000000E-03 0.  1.
         11   -1    0    0    0    0 -0.00000000000E+00 -0.00000000000E+00 -0.45593999997E+02  0.45594000000E+02  0.51100000000E-03 0. -1.
    9900012    2    1    2    0    0 -0.17912541766E+02 -0.37993037981E+02  0.10922129244E+02  0.47787274260E+02  0.20000014662E+02 0.  0.
        -12    1    1    2    0    0  0.17912541766E+02  0.37993037981E+02 -0.10922129244E+02  0.43400725740E+02  0.00000000000E+00 0.  1.
         11    1    3    3    0    0 -0.19764775617E+02 -0.38032983446E+02  0.12027045054E+02  0.44517457227E+02  0.51100000000E-03 0. -1.
        -11    1    3    3    0    0  0.24254322110E+01  0.13506837169E+00 -0.60518901067E+00  0.25034414063E+01  0.51100000000E-03 0.  1.
         12    1    3    3    0    0 -0.57319836008E+00 -0.95122906112E-01 -0.49972679879E+00  0.76637562637E+00  0.00000000000E+00 0. -1.
</event>
<event>
 7    1  0.2834226E-010  0.4778727E+02  0.7816164E-02  0.1312668E+00
        -11   -1    0    0    0    0  0.00000000000E+00  0.00000000000E+00  0.45593999997E+02  0.45594000000E+02  0.51100000000E-03 0.  1.
         11   -1    0    0    0    0 -0.00000000000E+00 -0.00000000000E+00 -0.45593999997E+02  0.45594000000E+02  0.51100000000E-03 0. -1.
    9900012    2    1    2    0    0  0.22232384423E+02 -0.11876977216E+02 -0.35331032752E+02  0.47787269819E+02  0.19999994411E+02 0.  0.
        -12    1    1    2    0    0 -0.22232384423E+02  0.11876977216E+02  0.35331032752E+02  0.43400730181E+02  0.00000000000E+00 0.  1.
         11    1    3    3    0    0 -0.14452876186E+01  0.23425237292E+01 -0.40802213400E+01  0.49218370723E+01  0.51100000000E-03 0. -1.
        -11    1    3    3    0    0  0.13226987158E+02 -0.12464598341E+02 -0.15527514012E+02  0.23904457591E+02  0.51100000000E-03 0.  1.
         12    1    3    3    0    0  0.10450684883E+02 -0.17549026043E+01 -0.15723297401E+02  0.18960975155E+02  0.00000000000E+00 0. -1.
</event>
<event>
 7    1  0.2834226E-010  0.4778727E+02  0.7816164E-02  0.1312668E+00
        -11   -1    0    0    0    0  0.00000000000E+00  0.00000000000E+00  0.45593999997E+02  0.45594000000E+02  0.51100000000E-03 0.  1.
         11   -1    0    0    0    0 -0.00000000000E+00 -0.00000000000E+00 -0.45593999997E+02  0.45594000000E+02  0.51100000000E-03 0. -1.
    9900012    2    1    2    0    0 -0.29530449828E+02 -0.13658134067E+02 -0.28723360071E+02  0.47787268358E+02  0.19999987752E+02 0.  0.
        -12    1    1    2    0    0  0.29530449828E+02  0.13658134067E+02  0.28723360071E+02  0.43400731642E+02  0.00000000000E+00 0.  1.
         11    1    3    3    0    0 -0.21579662832E+02 -0.66564172485E+01 -0.19686396044E+02  0.29959037501E+02  0.51100000000E-03 0. -1.
        -11    1    3    3    0    0  0.24704051321E+01  0.38067687533E+00 -0.22631766965E+01  0.33719112415E+01  0.51100000000E-03 0.  1.
        -12    1    3    3    0    0 -0.10421192128E+02 -0.73823936936E+01 -0.67737873313E+01  0.14456319616E+02  0.00000000000E+00 0.  1.
</event>
<event>
 7    1  0.2834226E-010  0.4778727E+02  0.7816164E-02  0.1312668E+00
        -11   -1    0    0    0    0  0.00000000000E+00  0.00000000000E+00  0.45593999997E+02  0.45594000000E+02  0.51100000000E-03 0. -1.
         11   -1    0    0    0    0 -0.00000000000E+00 -0.00000000000E+00 -0.45593999997E+02  0.45594000000E+02  0.51100000000E-03 0.  1.
    9900012    2    1    2    0    0  0.29072000682E+02  0.13685859142E+02  0.29174288690E+02  0.47787273224E+02  0.20000009937E+02 0.  0.
        -12    1    1    2    0    0 -0.29072000682E+02 -0.13685859142E+02 -0.29174288690E+02  0.43400726776E+02  0.00000000000E+00 0.  1.
         11    1    3    3    0    0  0.44200878522E+00 -0.29748205851E+01  0.34785448774E+01  0.45983914585E+01  0.51100000000E-03 0.  1.
        -11    1    3    3    0    0  0.26875742337E+02  0.16747577646E+02  0.20546812324E+02  0.37748620903E+02  0.51100000000E-03 0. -1.
         12    1    3    3    0    0  0.17542495599E+01 -0.86897919143E-01  0.51489314890E+01  0.54402608619E+01  0.00000000000E+00 0. -1.
</event>
<event>
 7    1  0.2834226E-010  0.4778727E+02  0.7816164E-02  0.1312668E+00
        -11   -1    0    0    0    0  0.00000000000E+00  0.00000000000E+00  0.45593999997E+02  0.45594000000E+02  0.51100000000E-03 0.  1.
         11   -1    0    0    0    0 -0.00000000000E+00 -0.00000000000E+00 -0.45593999997E+02  0.45594000000E+02  0.51100000000E-03 0. -1.
    9900012    2    1    2    0    0 -0.26765708103E+01 -0.23747499795E+02 -0.36228652758E+02  0.47787273525E+02  0.20000011312E+02 0.  0.
        -12    1    1    2    0    0  0.26765708103E+01  0.23747499795E+02  0.36228652758E+02  0.43400726475E+02  0.00000000000E+00 0.  1.
         11    1    3    3    0    0 -0.91413537112E+00 -0.37843308529E+01 -0.20766757089E+02  0.21128535296E+02  0.51100000000E-03 0. -1.
        -11    1    3    3    0    0 -0.17057871094E+01 -0.20745675406E+02 -0.15356243419E+02  0.25867102078E+02  0.51100000000E-03 0.  1.
        -12    1    3    3    0    0 -0.56648329764E-01  0.78250646357E+00 -0.10565225040E+00  0.79163615178E+00  0.00000000000E+00 0.  1.
</event>
<event>
 7    1  0.2834226E-010  0.4778727E+02  0.7816164E-02  0.1312668E+00
        -11   -1    0    0    0    0  0.00000000000E+00  0.00000000000E+00  0.45593999997E+02  0.45594000000E+02  0.51100000000E-03 0. -1.
         11   -1    0    0    0    0 -0.00000000000E+00 -0.00000000000E+00 -0.45593999997E+02  0.45594000000E+02  0.51100000000E-03 0.  1.
    9900012    2    1    2    0    0 -0.15926354525E+02 -0.37487411142E+02 -0.14988940777E+02  0.47787272953E+02  0.20000008702E+02 0.  0.
        -12    1    1    2    0    0  0.15926354525E+02  0.37487411142E+02  0.14988940777E+02  0.43400727047E+02  0.00000000000E+00 0.  1.
         11    1    3    3    0    0 -0.47290175698E+01 -0.27962146942E+02 -0.63494145399E+01  0.29061320239E+02  0.51100000000E-03 0. -1.
        -11    1    3    3    0    0 -0.28363017910E+00  0.11665436246E+01 -0.13220039152E+01  0.17857672635E+01  0.51100000000E-03 0.  1.
         12    1    3    3    0    0 -0.10913706776E+02 -0.10691807825E+02 -0.73175223217E+01  0.16940185450E+02  0.00000000000E+00 0. -1.
</event>
<event>
 7    1  0.2834226E-010  0.4778727E+02  0.7816164E-02  0.1312668E+00
        -11   -1    0    0    0    0  0.00000000000E+00  0.00000000000E+00  0.45593999997E+02  0.45594000000E+02  0.51100000000E-03 0. -1.
         11   -1    0    0    0    0 -0.00000000000E+00 -0.00000000000E+00 -0.45593999997E+02  0.45594000000E+02  0.51100000000E-03 0.  1.
    9900012    2    1    2    0    0  0.19565739384E+02  0.30868201866E+02  0.23408527157E+02  0.47787272036E+02  0.20000004522E+02 0.  0.
        -12    1    1    2    0    0 -0.19565739384E+02 -0.30868201866E+02 -0.23408527157E+02  0.43400727964E+02  0.00000000000E+00 0.  1.
         11    1    3    3    0    0  0.41862219765E+01  0.24091489426E+01  0.60977248763E+01  0.77788625128E+01  0.51100000000E-03 0. -1.
        -11    1    3    3    0    0  0.13082634674E+02  0.19279717107E+02  0.19399401998E+02  0.30318305029E+02  0.51100000000E-03 0.  1.
        -12    1    3    3    0    0  0.22968827332E+01  0.91793358169E+01 -0.20885997165E+01  0.96901044941E+01  0.00000000000E+00 0.  1.
</event>
<event>
 7    1  0.2834226E-010  0.4778725E+02  0.7816164E-02  0.1312668E+00
        -11   -1    0    0    0    0  0.00000000000E+00  0.00000000000E+00  0.45593999997E+02  0.45594000000E+02  0.51100000000E-03 0.  1.
         11   -1    0    0    0    0 -0.00000000000E+00 -0.00000000000E+00 -0.45593999997E+02  0.45594000000E+02  0.51100000000E-03 0. -1.
    9900012    2    1    2    0    0  0.25972600588E+02 -0.28259098612E+02 -0.20260112467E+02  0.47787253545E+02  0.19999920215E+02 0.  0.
        -12    1    1    2    0    0 -0.25972600588E+02  0.28259098612E+02  0.20260112467E+02  0.43400746455E+02  0.00000000000E+00 0.  1.
         11    1    3    3    0    0  0.11201091377E+02 -0.16037345683E+02 -0.13121190950E+02  0.23554756564E+02  0.51100000000E-03 0. -1.
        -11    1    3    3    0    0  0.22684456563E+01  0.27668823933E+01 -0.48492331833E+00  0.36106280285E+01  0.51100000000E-03 0.  1.
        -12    1    3    3    0    0  0.12503063555E+02 -0.14988635322E+02 -0.66539981981E+01  0.20621868952E+02  0.00000000000E+00 0.  1.
</event>
<event>
 7    1  0.2834226E-010  0.4778727E+02  0.7816164E-02  0.1312668E+00
        -11   -1    0    0    0    0  0.00000000000E+00  0.00000000000E+00  0.45593999997E+02  0.45594000000E+02  0.51100000000E-03 0.  1.
         11   -1    0    0    0    0 -0.00000000000E+00 -0.00000000000E+00 -0.45593999997E+02  0.45594000000E+02  0.51100000000E-03 0. -1.
    9900012    2    1    2    0    0  0.23081986165E+02  0.62150009971E+01 -0.36224558752E+02  0.47787274436E+02  0.20000015462E+02 0.  0.
        -12    1    1    2    0    0 -0.23081986165E+02 -0.62150009971E+01  0.36224558752E+02  0.43400725564E+02  0.00000000000E+00 0.  1.
         11    1    3    3    0    0  0.14838787046E+02  0.41596145766E+01 -0.80709462111E+01  0.17396326263E+02  0.51100000000E-03 0.  1.
        -11    1    3    3    0    0  0.31012016756E+01 -0.28713227867E+01 -0.12458291419E+02  0.13155644101E+02  0.51100000000E-03 0. -1.
         12    1    3    3    0    0  0.51419974436E+01  0.49267092072E+01 -0.15695321122E+02  0.17235304072E+02  0.00000000000E+00 0. -1.
</event>
<event>
 7    1  0.2834226E-010  0.4778728E+02  0.7816164E-02  0.1312668E+00
        -11   -1    0    0    0    0  0.00000000000E+00  0.00000000000E+00  0.45593999997E+02  0.45594000000E+02  0.51100000000E-03 0.  1.
         11   -1    0    0    0    0 -0.00000000000E+00 -0.00000000000E+00 -0.45593999997E+02  0.45594000000E+02  0.51100000000E-03 0. -1.
    9900012    2    1    2    0    0  0.39649115117E+02  0.14813077535E+02  0.95991220823E+01  0.47787277190E+02  0.20000028021E+02 0.  0.
        -12    1    1    2    0    0 -0.39649115117E+02 -0.14813077535E+02 -0.95991220823E+01  0.43400722810E+02  0.00000000000E+00 0.  1.
         11    1    3    3    0    0  0.32645679684E+01  0.51971083533E+01  0.14321728433E+01  0.63022582120E+01  0.51100000000E-03 0. -1.
        -11    1    3    3    0    0  0.28879850522E+01  0.18574423228E+01  0.61486665531E+01  0.70424889270E+01  0.51100000000E-03 0.  1.
        -12    1    3    3    0    0  0.33496562097E+02  0.77585268592E+01  0.20182826859E+01  0.34442530051E+02  0.00000000000E+00 0.  1.
</event>
<event>
 7    1  0.2834226E-010  0.4778728E+02  0.7816164E-02  0.1312668E+00
        -11   -1    0    0    0    0  0.00000000000E+00  0.00000000000E+00  0.45593999997E+02  0.45594000000E+02  0.51100000000E-03 0. -1.
         11   -1    0    0    0    0 -0.00000000000E+00 -0.00000000000E+00 -0.45593999997E+02  0.45594000000E+02  0.51100000000E-03 0.  1.
    9900012    2    1    2    0    0  0.33265920028E+01 -0.28127079279E+02  0.32885012477E+02  0.47787275942E+02  0.20000022331E+02 0.  0.
        -12    1    1    2    0    0 -0.33265920028E+01  0.28127079279E+02 -0.32885012477E+02  0.43400724058E+02  0.00000000000E+00 0.  1.
         11    1    3    3    0    0 -0.84361867932E+00 -0.91032485323E+01  0.35234454756E+01  0.97977290531E+01  0.51100000000E-03 0. -1.
        -11    1    3    3    0    0  0.74083928623E+01 -0.96781207086E+01  0.23551855493E+02  0.26518676488E+02  0.51100000000E-03 0.  1.
        -12    1    3    3    0    0 -0.32381821803E+01 -0.93457100380E+01  0.58097115085E+01  0.11470870401E+02  0.00000000000E+00 0.  1.
</event>
<event>
 7    1  0.2834226E-010  0.4778727E+02  0.7816164E-02  0.1312668E+00
        -11   -1    0    0    0    0  0.00000000000E+00  0.00000000000E+00  0.45593999997E+02  0.45594000000E+02  0.51100000000E-03 0.  1.
         11   -1    0    0    0    0 -0.00000000000E+00 -0.00000000000E+00 -0.45593999997E+02  0.45594000000E+02  0.51100000000E-03 0. -1.
    9900012    2    1    2    0    0 -0.13476390928E+02 -0.39090432955E+02 -0.13188947047E+02  0.47787269761E+02  0.19999994148E+02 0.  0.
        -12    1    1    2    0    0  0.13476390928E+02  0.39090432955E+02  0.13188947047E+02  0.43400730239E+02  0.00000000000E+00 0.  1.
         11    1    3    3    0    0 -0.12861106654E+02 -0.17837600956E+02 -0.80839759750E+01  0.23429441736E+02  0.51100000000E-03 0. -1.
        -11    1    3    3    0    0  0.33871932515E+01 -0.32043199453E+01 -0.34433356315E+01  0.57963182251E+01  0.51100000000E-03 0.  1.
        -12    1    3    3    0    0 -0.40024775261E+01 -0.18048512054E+02 -0.16616354402E+01  0.18561509800E+02  0.00000000000E+00 0.  1.
</event>
<event>
 7    1  0.2834226E-010  0.4778727E+02  0.7816164E-02  0.1312668E+00
        -11   -1    0    0    0    0  0.00000000000E+00  0.00000000000E+00  0.45593999997E+02  0.45594000000E+02  0.51100000000E-03 0. -1.
         11   -1    0    0    0    0 -0.00000000000E+00 -0.00000000000E+00 -0.45593999997E+02  0.45594000000E+02  0.51100000000E-03 0.  1.
    9900012    2    1    2    0    0  0.73194449400E+01  0.42769972017E+02  0.88234677524E+00  0.47787270555E+02  0.19999997768E+02 0.  0.
        -12    1    1    2    0    0 -0.73194449400E+01 -0.42769972017E+02 -0.88234677524E+00  0.43400729445E+02  0.00000000000E+00 0.  1.
         11    1    3    3    0    0  0.13631779773E+01  0.29812117520E+02 -0.19139827697E+01  0.29904580511E+02  0.51100000000E-03 0. -1.
        -11    1    3    3    0    0  0.85260482267E+01  0.70532206566E+01  0.61023299421E+00  0.11082138989E+02  0.51100000000E-03 0.  1.
        -12    1    3    3    0    0 -0.25697812640E+01  0.59046338398E+01  0.21860965508E+01  0.68005510553E+01  0.00000000000E+00 0.  1.
</event>
<event>
 7    1  0.2834226E-010  0.4778727E+02  0.7816164E-02  0.1312668E+00
        -11   -1    0    0    0    0  0.00000000000E+00  0.00000000000E+00  0.45593999997E+02  0.45594000000E+02  0.51100000000E-03 0.  1.
         11   -1    0    0    0    0 -0.00000000000E+00 -0.00000000000E+00 -0.45593999997E+02  0.45594000000E+02  0.51100000000E-03 0. -1.
    9900012    2    1    2    0    0  0.19421930332E+02  0.38773547864E+02 -0.17390642796E+01  0.47787265717E+02  0.19999975710E+02 0.  0.
        -12    1    1    2    0    0 -0.19421930332E+02 -0.38773547864E+02  0.17390642796E+01  0.43400734283E+02  0.00000000000E+00 0.  1.
         11    1    3    3    0    0  0.12255468040E+02  0.27699215794E+02 -0.99993196735E+01  0.31897169885E+02  0.51100000000E-03 0. -1.
        -11    1    3    3    0    0  0.72270408981E+01  0.11124078149E+02  0.77286880276E+01  0.15352779999E+02  0.51100000000E-03 0.  1.
         12    1    3    3    0    0 -0.60578606007E-01 -0.49746078993E-01  0.53156736639E+00  0.53731583347E+00  0.00000000000E+00 0. -1.
</event>
<event>
 7    1  0.2834226E-010  0.4778727E+02  0.7816164E-02  0.1312668E+00
        -11   -1    0    0    0    0  0.00000000000E+00  0.00000000000E+00  0.45593999997E+02  0.45594000000E+02  0.51100000000E-03 0.  1.
         11   -1    0    0    0    0 -0.00000000000E+00 -0.00000000000E+00 -0.45593999997E+02  0.45594000000E+02  0.51100000000E-03 0. -1.
    9900012    2    1    2    0    0 -0.33622878899E+02 -0.26963538758E+02 -0.51081314491E+01  0.47787269422E+02  0.19999992603E+02 0.  0.
        -12    1    1    2    0    0  0.33622878899E+02  0.26963538758E+02  0.51081314491E+01  0.43400730578E+02  0.00000000000E+00 0.  1.
         11    1    3    3    0    0 -0.14955640131E+02 -0.66507769874E+01  0.72442465076E+00  0.16383796801E+02  0.51100000000E-03 0.  1.
        -11    1    3    3    0    0 -0.17375865397E+02 -0.21835215644E+02 -0.73949892632E+01  0.28868377284E+02  0.51100000000E-03 0. -1.
        -12    1    3    3    0    0 -0.12913733709E+01  0.15224538739E+01  0.15624331634E+01  0.25350953377E+01  0.00000000000E+00 0.  1.
</event>
<event>
 7    1  0.2834226E-010  0.4778727E+02  0.7816164E-02  0.1312668E+00
        -11   -1    0    0    0    0  0.00000000000E+00  0.00000000000E+00  0.45593999997E+02  0.45594000000E+02  0.51100000000E-03 0.  1.
         11   -1    0    0    0    0 -0.00000000000E+00 -0.00000000000E+00 -0.45593999997E+02  0.45594000000E+02  0.51100000000E-03 0. -1.
    9900012    2    1    2    0    0 -0.32900094649E+00  0.30332129332E+02 -0.31039926945E+02  0.47787269865E+02  0.19999994623E+02 0.  0.
        -12    1    1    2    0    0  0.32900094649E+00 -0.30332129332E+02  0.31039926945E+02  0.43400730135E+02  0.00000000000E+00 0.  1.
         11    1    3    3    0    0 -0.36098917119E+01  0.98051563810E+01 -0.22837011580E+02  0.25113771282E+02  0.51100000000E-03 0. -1.
        -11    1    3    3    0    0  0.71055114269E+00  0.26935431431E+01 -0.25849150586E+01  0.38002425858E+01  0.51100000000E-03 0.  1.
         12    1    3    3    0    0  0.25703396228E+01  0.17833429808E+02 -0.56180003069E+01  0.18873255998E+02  0.00000000000E+00 0. -1.
</event>
<event>
 7    1  0.2834226E-010  0.4778726E+02  0.7816164E-02  0.1312668E+00
        -11   -1    0    0    0    0  0.00000000000E+00  0.00000000000E+00  0.45593999997E+02  0.45594000000E+02  0.51100000000E-03 0.  1.
         11   -1    0    0    0    0 -0.00000000000E+00 -0.00000000000E+00 -0.45593999997E+02  0.45594000000E+02  0.51100000000E-03 0. -1.
    9900012    2    1    2    0    0  0.39606955332E+02  0.16368759569E+02 -0.68539524762E+01  0.47787264234E+02  0.19999968950E+02 0.  0.
        -12    1    1    2    0    0 -0.39606955332E+02 -0.16368759569E+02  0.68539524762E+01  0.43400735766E+02  0.00000000000E+00 0.  1.
         11    1    3    3    0    0  0.24544068120E+02  0.16408885965E+02 -0.63049136160E+01  0.30189646478E+02  0.51100000000E-03 0. -1.
        -11    1    3    3    0    0  0.12548689836E+02 -0.37216958463E+01 -0.93805943331E+00  0.13122522331E+02  0.51100000000E-03 0.  1.
         12    1    3    3    0    0  0.25141973761E+01  0.36815694501E+01  0.38902057313E+00  0.44750954256E+01  0.00000000000E+00 0. -1.
</event>
<event>
 7    1  0.2834226E-010  0.4778726E+02  0.7816164E-02  0.1312668E+00
        -11   -1    0    0    0    0  0.00000000000E+00  0.00000000000E+00  0.45593999997E+02  0.45594000000E+02  0.51100000000E-03 0.  1.
         11   -1    0    0    0    0 -0.00000000000E+00 -0.00000000000E+00 -0.45593999997E+02  0.45594000000E+02  0.51100000000E-03 0. -1.
    9900012    2    1    2    0    0  0.25838413032E+02 -0.31600738681E+02 -0.14744276705E+02  0.47787263039E+02  0.19999963502E+02 0.  0.
        -12    1    1    2    0    0 -0.25838413032E+02  0.31600738681E+02  0.14744276705E+02  0.43400736961E+02  0.00000000000E+00 0.  1.
         11    1    3    3    0    0  0.10265370917E+02 -0.48924746691E+01 -0.60094420973E+01  0.12861863902E+02  0.51100000000E-03 0. -1.
        -11    1    3    3    0    0  0.58987898748E+01 -0.17457651113E+02  0.87445999890E+00  0.18448034717E+02  0.51100000000E-03 0.  1.
        -12    1    3    3    0    0  0.96742522403E+01 -0.92506128986E+01 -0.96092946066E+01  0.16477364420E+02  0.00000000000E+00 0.  1.
</event>
<event>
 7    1  0.2834226E-010  0.4778727E+02  0.7816164E-02  0.1312668E+00
        -11   -1    0    0    0    0  0.00000000000E+00  0.00000000000E+00  0.45593999997E+02  0.45594000000E+02  0.51100000000E-03 0. -1.
         11   -1    0    0    0    0 -0.00000000000E+00 -0.00000000000E+00 -0.45593999997E+02  0.45594000000E+02  0.51100000000E-03 0.  1.
    9900012    2    1    2    0    0  0.39030968989E+02  0.17269550766E+02  0.78720560176E+01  0.47787272013E+02  0.20000004415E+02 0.  0.
        -12    1    1    2    0    0 -0.39030968989E+02 -0.17269550766E+02 -0.78720560176E+01  0.43400727987E+02  0.00000000000E+00 0.  1.
         11    1    3    3    0    0  0.14495419938E+02  0.12456263032E+02 -0.27645749899E+00  0.19114186274E+02  0.51100000000E-03 0. -1.
        -11    1    3    3    0    0  0.17054400386E+02 -0.11209429332E+01  0.17543516669E+01  0.17181002172E+02  0.51100000000E-03 0.  1.
         12    1    3    3    0    0  0.74811486645E+01  0.59342306678E+01  0.63941618497E+01  0.11492083567E+02  0.00000000000E+00 0. -1.
</event>
<event>
 7    1  0.2834226E-010  0.4778727E+02  0.7816164E-02  0.1312668E+00
        -11   -1    0    0    0    0  0.00000000000E+00  0.00000000000E+00  0.45593999997E+02  0.45594000000E+02  0.51100000000E-03 0. -1.
         11   -1    0    0    0    0 -0.00000000000E+00 -0.00000000000E+00 -0.45593999997E+02  0.45594000000E+02  0.51100000000E-03 0.  1.
    9900012    2    1    2    0    0 -0.41464621544E+02 -0.47625263528E+00  0.12809444563E+02  0.47787268136E+02  0.19999986738E+02 0.  0.
        -12    1    1    2    0    0  0.41464621544E+02  0.47625263528E+00 -0.12809444563E+02  0.43400731864E+02  0.00000000000E+00 0.  1.
         11    1    3    3    0    0 -0.23100287923E+02  0.16162428117E+01  0.15567467897E+02  0.27903075098E+02  0.51100000000E-03 0. -1.
        -11    1    3    3    0    0 -0.13671564461E+02  0.14357872125E+01 -0.11389552133E+01  0.13793852941E+02  0.51100000000E-03 0.  1.
        -12    1    3    3    0    0 -0.46927691606E+01 -0.35282826595E+01 -0.16190681204E+01  0.60903400970E+01  0.00000000000E+00 0.  1.
</event>
<event>
 7    1  0.2834226E-010  0.4778731E+02  0.7816164E-02  0.1312668E+00
        -11   -1    0    0    0    0  0.00000000000E+00  0.00000000000E+00  0.45593999997E+02  0.45594000000E+02  0.51100000000E-03 0.  1.
         11   -1    0    0    0    0 -0.00000000000E+00 -0.00000000000E+00 -0.45593999997E+02  0.45594000000E+02  0.51100000000E-03 0. -1.
    9900012    2    1    2    0    0 -0.27632209118E+02  0.22105708950E+02 -0.25128039788E+02  0.47787311843E+02  0.20000186017E+02 0.  0.
        -12    1    1    2    0    0  0.27632209118E+02 -0.22105708950E+02  0.25128039788E+02  0.43400688157E+02  0.00000000000E+00 0.  1.
         11    1    3    3    0    0 -0.87029654293E+01  0.12079345548E+02 -0.19258315378E+01  0.15012029293E+02  0.51100000000E-03 0. -1.
        -11    1    3    3    0    0 -0.67588718762E+00  0.23646149687E+01 -0.62361409987E+01  0.67035574330E+01  0.51100000000E-03 0.  1.
         12    1    3    3    0    0 -0.18253356501E+02  0.76617484333E+01 -0.16966067252E+02  0.26071725117E+02  0.00000000000E+00 0. -1.
</event>
<event>
 7    1  0.2834226E-010  0.4778727E+02  0.7816164E-02  0.1312668E+00
        -11   -1    0    0    0    0  0.00000000000E+00  0.00000000000E+00  0.45593999997E+02  0.45594000000E+02  0.51100000000E-03 0.  1.
         11   -1    0    0    0    0 -0.00000000000E+00 -0.00000000000E+00 -0.45593999997E+02  0.45594000000E+02  0.51100000000E-03 0. -1.
    9900012    2    1    2    0    0  0.16818861394E+02  0.38110991090E+02 -0.12177908418E+02  0.47787271966E+02  0.20000004202E+02 0.  0.
        -12    1    1    2    0    0 -0.16818861394E+02 -0.38110991090E+02  0.12177908418E+02  0.43400728034E+02  0.00000000000E+00 0.  1.
         11    1    3    3    0    0  0.15083802048E+02  0.16950261688E+02 -0.36538018826E+01  0.22982226262E+02  0.51100000000E-03 0. -1.
        -11    1    3    3    0    0 -0.14728661231E+01  0.18387267146E+02 -0.45629423367E+01  0.19002141215E+02  0.51100000000E-03 0.  1.
         12    1    3    3    0    0  0.32079254695E+01  0.27734622563E+01 -0.39611641987E+01  0.58029044894E+01  0.00000000000E+00 0. -1.
</event>
<event>
 7    1  0.2834226E-010  0.4778727E+02  0.7816164E-02  0.1312668E+00
        -11   -1    0    0    0    0  0.00000000000E+00  0.00000000000E+00  0.45593999997E+02  0.45594000000E+02  0.51100000000E-03 0. -1.
         11   -1    0    0    0    0 -0.00000000000E+00 -0.00000000000E+00 -0.45593999997E+02  0.45594000000E+02  0.51100000000E-03 0.  1.
    9900012    2    1    2    0    0 -0.25190610685E+02  0.62038877219E+01  0.34793221546E+02  0.47787270109E+02  0.19999995733E+02 0.  0.
        -12    1    1    2    0    0  0.25190610685E+02 -0.62038877219E+01 -0.34793221546E+02  0.43400729891E+02  0.00000000000E+00 0.  1.
         11    1    3    3    0    0 -0.11533822214E+02 -0.11106487463E+01  0.20013205364E+02  0.23125548311E+02  0.51100000000E-03 0. -1.
        -11    1    3    3    0    0 -0.12602632994E+02  0.92819902537E+01  0.81101385200E+01  0.17628274122E+02  0.51100000000E-03 0.  1.
        -12    1    3    3    0    0 -0.10541554767E+01 -0.19674537856E+01  0.66698776622E+01  0.70334476749E+01  0.00000000000E+00 0.  1.
</event>
<event>
 7    1  0.2834226E-010  0.4778727E+02  0.7816164E-02  0.1312668E+00
        -11   -1    0    0    0    0  0.00000000000E+00  0.00000000000E+00  0.45593999997E+02  0.45594000000E+02  0.51100000000E-03 0.  1.
         11   -1    0    0    0    0 -0.00000000000E+00 -0.00000000000E+00 -0.45593999997E+02  0.45594000000E+02  0.51100000000E-03 0. -1.
    9900012    2    1    2    0    0 -0.20489243340E+02  0.78211324134E+01 -0.37451889937E+02  0.47787271150E+02  0.20000000481E+02 0.  0.
        -12    1    1    2    0    0  0.20489243340E+02 -0.78211324134E+01  0.37451889937E+02  0.43400728850E+02  0.00000000000E+00 0.  1.
         11    1    3    3    0    0 -0.15489669435E+02  0.64211067022E+01 -0.31782987896E+02  0.35934924382E+02  0.51100000000E-03 0. -1.
        -11    1    3    3    0    0 -0.32520352675E+00 -0.35543008533E+01 -0.23680970753E+01  0.42833043213E+01  0.51100000000E-03 0.  1.
         12    1    3    3    0    0 -0.46743703783E+01  0.49543265646E+01 -0.33008049658E+01  0.75690424470E+01  0.00000000000E+00 0. -1.
</event>
<event>
 7    1  0.2834226E-010  0.4778727E+02  0.7816164E-02  0.1312668E+00
        -11   -1    0    0    0    0  0.00000000000E+00  0.00000000000E+00  0.45593999997E+02  0.45594000000E+02  0.51100000000E-03 0.  1.
         11   -1    0    0    0    0 -0.00000000000E+00 -0.00000000000E+00 -0.45593999997E+02  0.45594000000E+02  0.51100000000E-03 0. -1.
    9900012    2    1    2    0    0  0.30020436924E+02  0.31160802784E+02  0.33765406843E+01  0.47787270856E+02  0.19999999140E+02 0.  0.
        -12    1    1    2    0    0 -0.30020436924E+02 -0.31160802784E+02 -0.33765406843E+01  0.43400729144E+02  0.00000000000E+00 0.  1.
         11    1    3    3    0    0  0.16950142831E+02  0.18172423984E+02 -0.80597392589E+00  0.24863505981E+02  0.51100000000E-03 0. -1.
        -11    1    3    3    0    0  0.59620044516E+01  0.74270981494E+01  0.86387673571E+01  0.12858288600E+02  0.51100000000E-03 0.  1.
        -12    1    3    3    0    0  0.71082896417E+01  0.55612806505E+01 -0.44562527469E+01  0.10065476275E+02  0.00000000000E+00 0.  1.
</event>
<event>
 7    1  0.2834226E-010  0.4778727E+02  0.7816164E-02  0.1312668E+00
        -11   -1    0    0    0    0  0.00000000000E+00  0.00000000000E+00  0.45593999997E+02  0.45594000000E+02  0.51100000000E-03 0.  1.
         11   -1    0    0    0    0 -0.00000000000E+00 -0.00000000000E+00 -0.45593999997E+02  0.45594000000E+02  0.51100000000E-03 0. -1.
    9900012    2    1    2    0    0 -0.37414284288E+02  0.13924824647E+02  0.17026271913E+02  0.47787270220E+02  0.19999996240E+02 0.  0.
        -12    1    1    2    0    0  0.37414284288E+02 -0.13924824647E+02 -0.17026271913E+02  0.43400729780E+02  0.00000000000E+00 0.  1.
         11    1    3    3    0    0 -0.85635788693E+01 -0.13607400533E+01  0.73677232296E+00  0.87022600662E+01  0.51100000000E-03 0. -1.
        -11    1    3    3    0    0 -0.96028411524E+01  0.58414746327E+01  0.13338633945E+02  0.17442951008E+02  0.51100000000E-03 0.  1.
        -12    1    3    3    0    0 -0.19247864266E+02  0.94440900675E+01  0.29508656449E+01  0.21642059145E+02  0.00000000000E+00 0.  1.
</event>
<event>
 7    1  0.2834226E-010  0.4778727E+02  0.7816164E-02  0.1312668E+00
        -11   -1    0    0    0    0  0.00000000000E+00  0.00000000000E+00  0.45593999997E+02  0.45594000000E+02  0.51100000000E-03 0.  1.
         11   -1    0    0    0    0 -0.00000000000E+00 -0.00000000000E+00 -0.45593999997E+02  0.45594000000E+02  0.51100000000E-03 0. -1.
    9900012    2    1    2    0    0 -0.34114643759E+02 -0.23345335676E+02  0.13221559447E+02  0.47787271309E+02  0.20000001208E+02 0.  0.
        -12    1    1    2    0    0  0.34114643759E+02  0.23345335676E+02 -0.13221559447E+02  0.43400728691E+02  0.00000000000E+00 0.  1.
         11    1    3    3    0    0 -0.28448912477E+02 -0.15379494587E+02  0.13976540742E+02  0.35230855316E+02  0.51100000000E-03 0. -1.
        -11    1    3    3    0    0 -0.45679726411E+01 -0.93176975955E+01 -0.17902769604E+01  0.10530477406E+02  0.51100000000E-03 0.  1.
        -12    1    3    3    0    0 -0.10977586408E+01  0.13518565066E+01  0.10352956656E+01  0.20259385882E+01  0.00000000000E+00 0.  1.
</event>
<event>
 7    1  0.2834226E-010  0.4778727E+02  0.7816164E-02  0.1312668E+00
        -11   -1    0    0    0    0  0.00000000000E+00  0.00000000000E+00  0.45593999997E+02  0.45594000000E+02  0.51100000000E-03 0. -1.
         11   -1    0    0    0    0 -0.00000000000E+00 -0.00000000000E+00 -0.45593999997E+02  0.45594000000E+02  0.51100000000E-03 0.  1.
    9900012    2    1    2    0    0 -0.31892863008E+02  0.25622304674E+02 -0.14490212619E+02  0.47787268792E+02  0.19999989729E+02 0.  0.
        -12    1    1    2    0    0  0.31892863008E+02 -0.25622304674E+02  0.14490212619E+02  0.43400731208E+02  0.00000000000E+00 0.  1.
         11    1    3    3    0    0 -0.12818461590E+02  0.44281157487E+01 -0.58263012128E+01  0.14760316822E+02  0.51100000000E-03 0. -1.
        -11    1    3    3    0    0 -0.76340210187E+01  0.13176460502E+02 -0.11102178002E+02  0.18845576269E+02  0.51100000000E-03 0.  1.
        -12    1    3    3    0    0 -0.11440380399E+02  0.80177284233E+01  0.24382665953E+01  0.14181375700E+02  0.00000000000E+00 0.  1.
</event>
<event>
 7    1  0.2834226E-010  0.4778730E+02  0.7816164E-02  0.1312668E+00
        -11   -1    0    0    0    0  0.00000000000E+00  0.00000000000E+00  0.45593999997E+02  0.45594000000E+02  0.51100000000E-03 0. -1.
         11   -1    0    0    0    0 -0.00000000000E+00 -0.00000000000E+00 -0.45593999997E+02  0.45594000000E+02  0.51100000000E-03 0.  1.
    9900012    2    1    2    0    0 -0.29335341660E+02 -0.11582999259E+02  0.29814302618E+02  0.47787299743E+02  0.20000130849E+02 0.  0.
        -12    1    1    2    0    0  0.29335341660E+02  0.11582999259E+02 -0.29814302618E+02  0.43400700257E+02  0.00000000000E+00 0.  1.
         11    1    3    3    0    0 -0.16189922366E+02  0.45252324197E+00  0.10372337095E+02  0.19232881754E+02  0.51100000000E-03 0. -1.
        -11    1    3    3    0    0  0.17971376711E+01 -0.18406013211E+01  0.40758644056E+01  0.48197705284E+01  0.51100000000E-03 0.  1.
        -12    1    3    3    0    0 -0.14942556966E+02 -0.10194921180E+02  0.15366101117E+02  0.23734647461E+02  0.00000000000E+00 0.  1.
</event>
<event>
 7    1  0.2834226E-010  0.4778727E+02  0.7816164E-02  0.1312668E+00
        -11   -1    0    0    0    0  0.00000000000E+00  0.00000000000E+00  0.45593999997E+02  0.45594000000E+02  0.51100000000E-03 0. -1.
         11   -1    0    0    0    0 -0.00000000000E+00 -0.00000000000E+00 -0.45593999997E+02  0.45594000000E+02  0.51100000000E-03 0.  1.
    9900012    2    1    2    0    0 -0.26401681416E+02 -0.29864234813E+02  0.17166877462E+02  0.47787274380E+02  0.20000015209E+02 0.  0.
        -12    1    1    2    0    0  0.26401681416E+02  0.29864234813E+02 -0.17166877462E+02  0.43400725620E+02  0.00000000000E+00 0.  1.
         11    1    3    3    0    0 -0.76493472612E+01 -0.25687080195E+01  0.24214294893E+01  0.84246124803E+01  0.51100000000E-03 0. -1.
        -11    1    3    3    0    0 -0.14352709692E+02 -0.14322682867E+02  0.15392469317E+01  0.20334915820E+02  0.51100000000E-03 0.  1.
        -12    1    3    3    0    0 -0.43996244625E+01 -0.12972843926E+02  0.13206201041E+02  0.19027746080E+02  0.00000000000E+00 0.  1.
</event>
<event>
 7    1  0.2834226E-010  0.4778727E+02  0.7816164E-02  0.1312668E+00
        -11   -1    0    0    0    0  0.00000000000E+00  0.00000000000E+00  0.45593999997E+02  0.45594000000E+02  0.51100000000E-03 0. -1.
         11   -1    0    0    0    0 -0.00000000000E+00 -0.00000000000E+00 -0.45593999997E+02  0.45594000000E+02  0.51100000000E-03 0.  1.
    9900012    2    1    2    0    0 -0.28758065670E+02 -0.29734841078E+02  0.13131499946E+02  0.47787269524E+02  0.19999993069E+02 0.  0.
        -12    1    1    2    0    0  0.28758065670E+02  0.29734841078E+02 -0.13131499946E+02  0.43400730476E+02  0.00000000000E+00 0.  1.
         11    1    3    3    0    0 -0.73704498973E+01 -0.13256903033E+02 -0.22697383390E+01  0.15336907188E+02  0.51100000000E-03 0. -1.
        -11    1    3    3    0    0 -0.97074537630E+00 -0.13706900487E+01  0.45149501883E+01  0.48172516292E+01  0.51100000000E-03 0.  1.
         12    1    3    3    0    0 -0.20416870397E+02 -0.15107247996E+02  0.10886288096E+02  0.27633110707E+02  0.00000000000E+00 0. -1.
</event>
<event>
 7    1  0.2834226E-010  0.4778730E+02  0.7816164E-02  0.1312668E+00
        -11   -1    0    0    0    0  0.00000000000E+00  0.00000000000E+00  0.45593999997E+02  0.45594000000E+02  0.51100000000E-03 0. -1.
         11   -1    0    0    0    0 -0.00000000000E+00 -0.00000000000E+00 -0.45593999997E+02  0.45594000000E+02  0.51100000000E-03 0.  1.
    9900012    2    1    2    0    0 -0.24151263071E+02 -0.35900250617E+02 -0.33925188622E+01  0.47787300852E+02  0.20000135905E+02 0.  0.
        -12    1    1    2    0    0  0.24151263071E+02  0.35900250617E+02  0.33925188622E+01  0.43400699148E+02  0.00000000000E+00 0.  1.
         11    1    3    3    0    0 -0.11503683209E+02 -0.27811096652E+02 -0.93689275442E+01  0.31520923653E+02  0.51100000000E-03 0. -1.
        -11    1    3    3    0    0 -0.75985769136E+01 -0.37743386067E+01  0.35080034533E+01  0.91809635398E+01  0.51100000000E-03 0.  1.
         12    1    3    3    0    0 -0.50490029488E+01 -0.43148153584E+01  0.24684052287E+01  0.70854136595E+01  0.00000000000E+00 0. -1.
</event>
<event>
 7    1  0.2834226E-010  0.4778727E+02  0.7816164E-02  0.1312668E+00
        -11   -1    0    0    0    0  0.00000000000E+00  0.00000000000E+00  0.45593999997E+02  0.45594000000E+02  0.51100000000E-03 0.  1.
         11   -1    0    0    0    0 -0.00000000000E+00 -0.00000000000E+00 -0.45593999997E+02  0.45594000000E+02  0.51100000000E-03 0. -1.
    9900012    2    1    2    0    0 -0.36573727897E+02 -0.17326925115E+02 -0.15676834051E+02  0.47787273830E+02  0.20000012698E+02 0.  0.
        -12    1    1    2    0    0  0.36573727897E+02  0.17326925115E+02  0.15676834051E+02  0.43400726170E+02  0.00000000000E+00 0.  1.
         11    1    3    3    0    0 -0.21705511062E+02 -0.12310094757E+02 -0.80014814858E+01  0.26204796309E+02  0.51100000000E-03 0. -1.
        -11    1    3    3    0    0 -0.43942150676E+01  0.15981799896E+01  0.27211256729E+01  0.54099750950E+01  0.51100000000E-03 0.  1.
         12    1    3    3    0    0 -0.10474001767E+02 -0.66150103485E+01 -0.10396478238E+02  0.16172502425E+02  0.00000000000E+00 0. -1.
</event>
<event>
 7    1  0.2834226E-010  0.4778727E+02  0.7816164E-02  0.1312668E+00
        -11   -1    0    0    0    0  0.00000000000E+00  0.00000000000E+00  0.45593999997E+02  0.45594000000E+02  0.51100000000E-03 0.  1.
         11   -1    0    0    0    0 -0.00000000000E+00 -0.00000000000E+00 -0.45593999997E+02  0.45594000000E+02  0.51100000000E-03 0. -1.
    9900012    2    1    2    0    0 -0.23503197149E+02 -0.36190739953E+02  0.46317941657E+01  0.47787268995E+02  0.19999990657E+02 0.  0.
        -12    1    1    2    0    0  0.23503197149E+02  0.36190739953E+02 -0.46317941657E+01  0.43400731005E+02  0.00000000000E+00 0.  1.
         11    1    3    3    0    0 -0.70911541891E+01 -0.19179223404E+02  0.49898773061E+01  0.21048181724E+02  0.51100000000E-03 0. -1.
        -11    1    3    3    0    0 -0.72580260196E+01  0.42322909344E-01  0.10448153466E+01  0.73329647688E+01  0.51100000000E-03 0.  1.
        -12    1    3    3    0    0 -0.91540169406E+01 -0.17053839458E+02 -0.14028984869E+01  0.19406122502E+02  0.00000000000E+00 0.  1.
</event>
<event>
 7    1  0.2834226E-010  0.4778727E+02  0.7816164E-02  0.1312668E+00
        -11   -1    0    0    0    0  0.00000000000E+00  0.00000000000E+00  0.45593999997E+02  0.45594000000E+02  0.51100000000E-03 0.  1.
         11   -1    0    0    0    0 -0.00000000000E+00 -0.00000000000E+00 -0.45593999997E+02  0.45594000000E+02  0.51100000000E-03 0. -1.
    9900012    2    1    2    0    0 -0.29691122818E+02 -0.95436607031E+01 -0.30182437621E+02  0.47787265276E+02  0.19999973700E+02 0.  0.
        -12    1    1    2    0    0  0.29691122818E+02  0.95436607031E+01  0.30182437621E+02  0.43400734724E+02  0.00000000000E+00 0.  1.
         11    1    3    3    0    0 -0.18416999970E+02  0.32998830696E+01 -0.15234170364E+02  0.24127889736E+02  0.51100000000E-03 0. -1.
        -11    1    3    3    0    0 -0.66923667223E+01 -0.70494064888E+01 -0.41332535253E+01  0.10562466055E+02  0.51100000000E-03 0.  1.
         12    1    3    3    0    0 -0.45817561261E+01 -0.57941372839E+01 -0.10815013732E+02  0.13096909486E+02  0.00000000000E+00 0. -1.
</event>
<event>
 7    1  0.2834226E-010  0.4778727E+02  0.7816164E-02  0.1312668E+00
        -11   -1    0    0    0    0  0.00000000000E+00  0.00000000000E+00  0.45593999997E+02  0.45594000000E+02  0.51100000000E-03 0.  1.
         11   -1    0    0    0    0 -0.00000000000E+00 -0.00000000000E+00 -0.45593999997E+02  0.45594000000E+02  0.51100000000E-03 0. -1.
    9900012    2    1    2    0    0  0.10154580914E+02 -0.35630505821E+02 -0.22604748398E+02  0.47787272947E+02  0.20000008676E+02 0.  0.
        -12    1    1    2    0    0 -0.10154580914E+02  0.35630505821E+02  0.22604748398E+02  0.43400727053E+02  0.00000000000E+00 0.  1.
         11    1    3    3    0    0  0.60703428203E+01 -0.33247593971E+02 -0.24160082691E+02  0.41544688742E+02  0.51100000000E-03 0. -1.
        -11    1    3    3    0    0  0.41535776498E+01 -0.31889866179E+01  0.13358023473E+01  0.54042771131E+01  0.51100000000E-03 0.  1.
         12    1    3    3    0    0 -0.69339556479E-01  0.80607476792E+00  0.21953194564E+00  0.83830709214E+00  0.00000000000E+00 0. -1.
</event>
<event>
 7    1  0.2834226E-010  0.4778727E+02  0.7816164E-02  0.1312668E+00
        -11   -1    0    0    0    0  0.00000000000E+00  0.00000000000E+00  0.45593999997E+02  0.45594000000E+02  0.51100000000E-03 0.  1.
         11   -1    0    0    0    0 -0.00000000000E+00 -0.00000000000E+00 -0.45593999997E+02  0.45594000000E+02  0.51100000000E-03 0. -1.
    9900012    2    1    2    0    0 -0.27538059547E+02 -0.98381090977E+01 -0.32070084789E+02  0.47787268985E+02  0.19999990611E+02 0.  0.
        -12    1    1    2    0    0  0.27538059547E+02  0.98381090977E+01  0.32070084789E+02  0.43400731015E+02  0.00000000000E+00 0.  1.
         11    1    3    3    0    0 -0.11769314370E+02 -0.11602801423E+02 -0.24641306885E+02  0.29670452757E+02  0.51100000000E-03 0. -1.
        -11    1    3    3    0    0 -0.60043514617E+01  0.13656435905E+01 -0.58340407227E+00  0.61852711714E+01  0.51100000000E-03 0.  1.
         12    1    3    3    0    0 -0.97643937162E+01  0.39904873451E+00 -0.68453738320E+01  0.11931545057E+02  0.00000000000E+00 0. -1.
</event>
<event>
 7    1  0.2834226E-010  0.4778726E+02  0.7816164E-02  0.1312668E+00
        -11   -1    0    0    0    0  0.00000000000E+00  0.00000000000E+00  0.45593999997E+02  0.45594000000E+02  0.51100000000E-03 0.  1.
         11   -1    0    0    0    0 -0.00000000000E+00 -0.00000000000E+00 -0.45593999997E+02  0.45594000000E+02  0.51100000000E-03 0. -1.
    9900012    2    1    2    0    0 -0.68036191539E+01 -0.94514585487E+00 -0.42853725459E+02  0.47787258992E+02  0.19999945050E+02 0.  0.
        -12    1    1    2    0    0  0.68036191539E+01  0.94514585487E+00  0.42853725459E+02  0.43400741008E+02  0.00000000000E+00 0.  1.
         11    1    3    3    0    0 -0.30724420912E+01  0.70116757530E+01 -0.13750082817E+02  0.15737479944E+02  0.51100000000E-03 0.  1.
        -11    1    3    3    0    0 -0.11360090496E+01 -0.52527296989E+01 -0.40811243817E+01  0.67481302840E+01  0.51100000000E-03 0. -1.
         12    1    3    3    0    0 -0.25951680131E+01 -0.27040919090E+01 -0.25022518261E+02  0.25301648764E+02  0.00000000000E+00 0. -1.
</event>
<event>
 7    1  0.2834226E-010  0.4778726E+02  0.7816164E-02  0.1312668E+00
        -11   -1    0    0    0    0  0.00000000000E+00  0.00000000000E+00  0.45593999997E+02  0.45594000000E+02  0.51100000000E-03 0.  1.
         11   -1    0    0    0    0 -0.00000000000E+00 -0.00000000000E+00 -0.45593999997E+02  0.45594000000E+02  0.51100000000E-03 0. -1.
    9900012    2    1    2    0    0 -0.57071488610E+01 -0.19227275463E+02 -0.38488501192E+02  0.47787258142E+02  0.19999941171E+02 0.  0.
        -12    1    1    2    0    0  0.57071488610E+01  0.19227275463E+02  0.38488501192E+02  0.43400741858E+02  0.00000000000E+00 0.  1.
         11    1    3    3    0    0 -0.35172719467E+01 -0.66097659382E+01 -0.15973708260E+02  0.17641416143E+02  0.51100000000E-03 0.  1.
        -11    1    3    3    0    0 -0.10458312914E+01 -0.16092751259E+02 -0.20066056479E+02  0.25743290952E+02  0.51100000000E-03 0. -1.
        -12    1    3    3    0    0 -0.11440456228E+01  0.34752417340E+01 -0.24487364528E+01  0.44025510460E+01  0.00000000000E+00 0.  1.
</event>
<event>
 7    1  0.2834226E-010  0.4778726E+02  0.7816164E-02  0.1312668E+00
        -11   -1    0    0    0    0  0.00000000000E+00  0.00000000000E+00  0.45593999997E+02  0.45594000000E+02  0.51100000000E-03 0.  1.
         11   -1    0    0    0    0 -0.00000000000E+00 -0.00000000000E+00 -0.45593999997E+02  0.45594000000E+02  0.51100000000E-03 0. -1.
    9900012    2    1    2    0    0 -0.25261957226E+02 -0.10976195959E+02 -0.33540728872E+02  0.47787264362E+02  0.19999969534E+02 0.  0.
        -12    1    1    2    0    0  0.25261957226E+02  0.10976195959E+02  0.33540728872E+02  0.43400735638E+02  0.00000000000E+00 0.  1.
         11    1    3    3    0    0 -0.15862758726E+02  0.39626198665E+01 -0.15682368835E+02  0.22655378238E+02  0.51100000000E-03 0. -1.
        -11    1    3    3    0    0 -0.31683450628E+01 -0.58940422917E+01 -0.71338366722E+01  0.97810925208E+01  0.51100000000E-03 0.  1.
         12    1    3    3    0    0 -0.62308534373E+01 -0.90447735337E+01 -0.10724523366E+02  0.15350793603E+02  0.00000000000E+00 0. -1.
</event>
<event>
 7    1  0.2834226E-010  0.4778727E+02  0.7816164E-02  0.1312668E+00
        -11   -1    0    0    0    0  0.00000000000E+00  0.00000000000E+00  0.45593999997E+02  0.45594000000E+02  0.51100000000E-03 0.  1.
         11   -1    0    0    0    0 -0.00000000000E+00 -0.00000000000E+00 -0.45593999997E+02  0.45594000000E+02  0.51100000000E-03 0. -1.
    9900012    2    1    2    0    0  0.38352222220E+02 -0.95011079255E+01 -0.17957148542E+02  0.47787272071E+02  0.20000004681E+02 0.  0.
        -12    1    1    2    0    0 -0.38352222220E+02  0.95011079255E+01  0.17957148542E+02  0.43400727929E+02  0.00000000000E+00 0.  1.
         11    1    3    3    0    0  0.22650324362E+02 -0.11081776215E+02 -0.18536960471E+02  0.31296355404E+02  0.51100000000E-03 0. -1.
        -11    1    3    3    0    0  0.10167021880E+02 -0.16221355554E+00  0.23262283364E+01  0.10431010770E+02  0.51100000000E-03 0.  1.
         12    1    3    3    0    0  0.55348759783E+01  0.17428818455E+01 -0.17464164071E+01  0.60599058977E+01  0.00000000000E+00 0. -1.
</event>
<event>
 7    1  0.2834226E-010  0.4778723E+02  0.7816164E-02  0.1312668E+00
        -11   -1    0    0    0    0  0.00000000000E+00  0.00000000000E+00  0.45593999997E+02  0.45594000000E+02  0.51100000000E-03 0.  1.
         11   -1    0    0    0    0 -0.00000000000E+00 -0.00000000000E+00 -0.45593999997E+02  0.45594000000E+02  0.51100000000E-03 0. -1.
    9900012    2    1    2    0    0 -0.94103912825E+01  0.33537464244E+02 -0.25890337564E+02  0.47787233288E+02  0.19999827853E+02 0.  0.
        -12    1    1    2    0    0  0.94103912825E+01 -0.33537464244E+02  0.25890337564E+02  0.43400766712E+02  0.00000000000E+00 0.  1.
         11    1    3    3    0    0  0.43744984331E+01  0.12011916671E+02 -0.98162256527E+01  0.16117712771E+02  0.51100000000E-03 0.  1.
        -11    1    3    3    0    0 -0.52706544037E+01  0.56942177775E+01 -0.31740371861E+00  0.77656074664E+01  0.51100000000E-03 0. -1.
         12    1    3    3    0    0 -0.85142353119E+01  0.15831329795E+02 -0.15756708193E+02  0.23903913050E+02  0.00000000000E+00 0. -1.
</event>
<event>
 7    1  0.2834226E-010  0.4778726E+02  0.7816164E-02  0.1312668E+00
        -11   -1    0    0    0    0  0.00000000000E+00  0.00000000000E+00  0.45593999997E+02  0.45594000000E+02  0.51100000000E-03 0. -1.
         11   -1    0    0    0    0 -0.00000000000E+00 -0.00000000000E+00 -0.45593999997E+02  0.45594000000E+02  0.51100000000E-03 0.  1.
    9900012    2    1    2    0    0 -0.40322199174E+02  0.83080761645E+01  0.13737540151E+02  0.47787264001E+02  0.19999967888E+02 0.  0.
        -12    1    1    2    0    0  0.40322199174E+02 -0.83080761645E+01 -0.13737540151E+02  0.43400735999E+02  0.00000000000E+00 0.  1.
         11    1    3    3    0    0 -0.13158016408E+02  0.70434903685E+01  0.13150670645E+02  0.19891814674E+02  0.51100000000E-03 0.  1.
        -11    1    3    3    0    0 -0.37378083513E+01  0.15385332817E+01  0.18245986246E+01  0.44348005967E+01  0.51100000000E-03 0. -1.
         12    1    3    3    0    0 -0.23426374415E+02 -0.27394748579E+00 -0.12377291190E+01  0.23460648730E+02  0.00000000000E+00 0. -1.
</event>
<event>
 7    1  0.2834226E-010  0.4778728E+02  0.7816164E-02  0.1312668E+00
        -11   -1    0    0    0    0  0.00000000000E+00  0.00000000000E+00  0.45593999997E+02  0.45594000000E+02  0.51100000000E-03 0.  1.
         11   -1    0    0    0    0 -0.00000000000E+00 -0.00000000000E+00 -0.45593999997E+02  0.45594000000E+02  0.51100000000E-03 0. -1.
    9900012    2    1    2    0    0  0.28970819279E+02 -0.27820968744E+02 -0.16441047508E+02  0.47787277486E+02  0.20000029371E+02 0.  0.
        -12    1    1    2    0    0 -0.28970819279E+02  0.27820968744E+02  0.16441047508E+02  0.43400722514E+02  0.00000000000E+00 0.  1.
         11    1    3    3    0    0  0.34314810504E+01 -0.59236581391E+01 -0.10168453965E+02  0.12258150115E+02  0.51100000000E-03 0. -1.
        -11    1    3    3    0    0  0.18895721948E+02 -0.21020157834E+02 -0.53070753510E+01  0.28758657694E+02  0.51100000000E-03 0.  1.
        -12    1    3    3    0    0  0.66436162809E+01 -0.87715277053E+00 -0.96551819208E+00  0.67704696772E+01  0.00000000000E+00 0.  1.
</event>
<event>
 7    1  0.2834226E-010  0.4778727E+02  0.7816164E-02  0.1312668E+00
        -11   -1    0    0    0    0  0.00000000000E+00  0.00000000000E+00  0.45593999997E+02  0.45594000000E+02  0.51100000000E-03 0. -1.
         11   -1    0    0    0    0 -0.00000000000E+00 -0.00000000000E+00 -0.45593999997E+02  0.45594000000E+02  0.51100000000E-03 0.  1.
    9900012    2    1    2    0    0 -0.27516012371E+02  0.32337755521E+02  0.89867809551E+01  0.47787267277E+02  0.19999982825E+02 0.  0.
        -12    1    1    2    0    0  0.27516012371E+02 -0.32337755521E+02 -0.89867809551E+01  0.43400732723E+02  0.00000000000E+00 0.  1.
         11    1    3    3    0    0  0.30808924797E+00  0.10062206079E+02  0.16307324703E+01  0.10198146832E+02  0.51100000000E-03 0. -1.
        -11    1    3    3    0    0 -0.45725490102E+01  0.31241038730E+01 -0.22407968857E+01  0.59740606294E+01  0.51100000000E-03 0.  1.
         12    1    3    3    0    0 -0.23251552609E+02  0.19151445569E+02  0.95968453705E+01  0.31615059816E+02  0.00000000000E+00 0. -1.
</event>
<event>
 7    1  0.2834226E-010  0.4778727E+02  0.7816164E-02  0.1312668E+00
        -11   -1    0    0    0    0  0.00000000000E+00  0.00000000000E+00  0.45593999997E+02  0.45594000000E+02  0.51100000000E-03 0.  1.
         11   -1    0    0    0    0 -0.00000000000E+00 -0.00000000000E+00 -0.45593999997E+02  0.45594000000E+02  0.51100000000E-03 0. -1.
    9900012    2    1    2    0    0 -0.35424593127E+02  0.93047082643E+01 -0.23283985717E+02  0.47787269765E+02  0.19999994165E+02 0.  0.
        -12    1    1    2    0    0  0.35424593127E+02 -0.93047082643E+01  0.23283985717E+02  0.43400730235E+02  0.00000000000E+00 0.  1.
         11    1    3    3    0    0 -0.15268060483E+02  0.40104505297E+01 -0.12240775293E+02  0.19975834510E+02  0.51100000000E-03 0. -1.
        -11    1    3    3    0    0 -0.17315456124E+02  0.96549711281E+00 -0.20886925861E+01  0.17467679939E+02  0.51100000000E-03 0.  1.
        -12    1    3    3    0    0 -0.28410765199E+01  0.43287606218E+01 -0.89545178387E+01  0.10343755316E+02  0.00000000000E+00 0.  1.
</event>
<event>
 7    1  0.2834226E-010  0.4778725E+02  0.7816164E-02  0.1312668E+00
        -11   -1    0    0    0    0  0.00000000000E+00  0.00000000000E+00  0.45593999997E+02  0.45594000000E+02  0.51100000000E-03 0.  1.
         11   -1    0    0    0    0 -0.00000000000E+00 -0.00000000000E+00 -0.45593999997E+02  0.45594000000E+02  0.51100000000E-03 0. -1.
    9900012    2    1    2    0    0 -0.21683011339E+02 -0.17478915728E+02 -0.33286025199E+02  0.47787251742E+02  0.19999911993E+02 0.  0.
        -12    1    1    2    0    0  0.21683011339E+02  0.17478915728E+02  0.33286025199E+02  0.43400748258E+02  0.00000000000E+00 0.  1.
         11    1    3    3    0    0 -0.14097057282E+02 -0.42038683710E+01 -0.10167813452E+02  0.17882504410E+02  0.51100000000E-03 0. -1.
        -11    1    3    3    0    0 -0.10865621013E+01 -0.12040255402E+02 -0.17231057799E+02  0.21048936327E+02  0.51100000000E-03 0.  1.
        -12    1    3    3    0    0 -0.64993919558E+01 -0.12347919556E+01 -0.58871539473E+01  0.88558110057E+01  0.00000000000E+00 0.  1.
</event>
<event>
 7    1  0.2834226E-010  0.4778727E+02  0.7816164E-02  0.1312668E+00
        -11   -1    0    0    0    0  0.00000000000E+00  0.00000000000E+00  0.45593999997E+02  0.45594000000E+02  0.51100000000E-03 0.  1.
         11   -1    0    0    0    0 -0.00000000000E+00 -0.00000000000E+00 -0.45593999997E+02  0.45594000000E+02  0.51100000000E-03 0. -1.
    9900012    2    1    2    0    0  0.25796888948E+02  0.20156925662E+02 -0.28492845357E+02  0.47787269959E+02  0.19999995050E+02 0.  0.
        -12    1    1    2    0    0 -0.25796888948E+02 -0.20156925662E+02  0.28492845357E+02  0.43400730041E+02  0.00000000000E+00 0.  1.
         11    1    3    3    0    0  0.14212922169E+02  0.17591680429E+01 -0.85808631969E+01  0.16695300005E+02  0.51100000000E-03 0. -1.
        -11    1    3    3    0    0  0.56705864668E+01  0.94635544460E+01 -0.36551022372E+01  0.11622142068E+02  0.51100000000E-03 0.  1.
         12    1    3    3    0    0  0.59133803121E+01  0.89342031731E+01 -0.16256879923E+02  0.19469827885E+02  0.00000000000E+00 0. -1.
</event>
<event>
 7    1  0.2834226E-010  0.4778727E+02  0.7816164E-02  0.1312668E+00
        -11   -1    0    0    0    0  0.00000000000E+00  0.00000000000E+00  0.45593999997E+02  0.45594000000E+02  0.51100000000E-03 0. -1.
         11   -1    0    0    0    0 -0.00000000000E+00 -0.00000000000E+00 -0.45593999997E+02  0.45594000000E+02  0.51100000000E-03 0.  1.
    9900012    2    1    2    0    0 -0.42657248277E+02  0.76475066453E+01  0.23448024741E+01  0.47787270892E+02  0.19999999304E+02 0.  0.
        -12    1    1    2    0    0  0.42657248277E+02 -0.76475066453E+01 -0.23448024741E+01  0.43400729108E+02  0.00000000000E+00 0.  1.
         11    1    3    3    0    0 -0.10129919067E+02  0.76834109817E+01  0.67533104718E+01  0.14396432448E+02  0.51100000000E-03 0.  1.
        -11    1    3    3    0    0 -0.30634269303E+02 -0.14111628707E+01 -0.47285994194E+01  0.31029171583E+02  0.51100000000E-03 0. -1.
         12    1    3    3    0    0 -0.18930599065E+01  0.13752585342E+01  0.32009142167E+00  0.23616668613E+01  0.00000000000E+00 0. -1.
</event>
<event>
 7    1  0.2834226E-010  0.4778727E+02  0.7816164E-02  0.1312668E+00
        -11   -1    0    0    0    0  0.00000000000E+00  0.00000000000E+00  0.45593999997E+02  0.45594000000E+02  0.51100000000E-03 0.  1.
         11   -1    0    0    0    0 -0.00000000000E+00 -0.00000000000E+00 -0.45593999997E+02  0.45594000000E+02  0.51100000000E-03 0. -1.
    9900012    2    1    2    0    0  0.37721847047E+02 -0.19585698817E+02 -0.87798654044E+01  0.47787269830E+02  0.19999994461E+02 0.  0.
        -12    1    1    2    0    0 -0.37721847047E+02  0.19585698817E+02  0.87798654044E+01  0.43400730170E+02  0.00000000000E+00 0.  1.
         11    1    3    3    0    0  0.57815122379E+01  0.11218029127E+01 -0.66386273323E+01  0.88744407514E+01  0.51100000000E-03 0. -1.
        -11    1    3    3    0    0  0.58715032546E+01 -0.43926698917E+01  0.26331558479E+01  0.77912520962E+01  0.51100000000E-03 0.  1.
         12    1    3    3    0    0  0.26068831555E+02 -0.16314831838E+02 -0.47743939200E+01  0.31121576982E+02  0.00000000000E+00 0. -1.
</event>
<event>
 7    1  0.2834226E-010  0.4778727E+02  0.7816164E-02  0.1312668E+00
        -11   -1    0    0    0    0  0.00000000000E+00  0.00000000000E+00  0.45593999997E+02  0.45594000000E+02  0.51100000000E-03 0. -1.
         11   -1    0    0    0    0 -0.00000000000E+00 -0.00000000000E+00 -0.45593999997E+02  0.45594000000E+02  0.51100000000E-03 0.  1.
    9900012    2    1    2    0    0  0.33099196439E+02 -0.20971370938E+02  0.18661940286E+02  0.47787271674E+02  0.20000002872E+02 0.  0.
        -12    1    1    2    0    0 -0.33099196439E+02  0.20971370938E+02 -0.18661940286E+02  0.43400728326E+02  0.00000000000E+00 0.  1.
         11    1    3    3    0    0  0.17393014037E+02 -0.31417926979E+01  0.13006032070E+02  0.21944126073E+02  0.51100000000E-03 0. -1.
        -11    1    3    3    0    0  0.45282958071E+01 -0.93178029490E+01 -0.78054583332E+00  0.10389233214E+02  0.51100000000E-03 0.  1.
        -12    1    3    3    0    0  0.11177886595E+02 -0.85117752914E+01  0.64364540489E+01  0.15453912387E+02  0.00000000000E+00 0.  1.
</event>
<event>
 7    1  0.2834226E-010  0.4778728E+02  0.7816164E-02  0.1312668E+00
        -11   -1    0    0    0    0  0.00000000000E+00  0.00000000000E+00  0.45593999997E+02  0.45594000000E+02  0.51100000000E-03 0.  1.
         11   -1    0    0    0    0 -0.00000000000E+00 -0.00000000000E+00 -0.45593999997E+02  0.45594000000E+02  0.51100000000E-03 0. -1.
    9900012    2    1    2    0    0  0.42745462366E+02 -0.71703253632E+01  0.22438295946E+01  0.47787275468E+02  0.20000020168E+02 0.  0.
        -12    1    1    2    0    0 -0.42745462366E+02  0.71703253632E+01 -0.22438295946E+01  0.43400724532E+02  0.00000000000E+00 0.  1.
         11    1    3    3    0    0  0.73461320891E+00  0.34041160401E+01  0.25023459138E+00  0.34914581757E+01  0.51100000000E-03 0. -1.
        -11    1    3    3    0    0  0.85681282813E+01 -0.59180237681E+01  0.15469443130E+01  0.10527528890E+02  0.51100000000E-03 0.  1.
         12    1    3    3    0    0  0.33442720875E+02 -0.46564176351E+01  0.44665069024E+00  0.33768288402E+02  0.00000000000E+00 0. -1.
</event>
<event>
 7    1  0.2834226E-010  0.4778727E+02  0.7816164E-02  0.1312668E+00
        -11   -1    0    0    0    0  0.00000000000E+00  0.00000000000E+00  0.45593999997E+02  0.45594000000E+02  0.51100000000E-03 0. -1.
         11   -1    0    0    0    0 -0.00000000000E+00 -0.00000000000E+00 -0.45593999997E+02  0.45594000000E+02  0.51100000000E-03 0.  1.
    9900012    2    1    2    0    0 -0.40169613265E+02  0.75929209476E+01  0.14573019448E+02  0.47787272192E+02  0.20000005233E+02 0.  0.
        -12    1    1    2    0    0  0.40169613265E+02 -0.75929209476E+01 -0.14573019448E+02  0.43400727808E+02  0.00000000000E+00 0.  1.
         11    1    3    3    0    0 -0.42879326597E+01  0.26890952373E+01  0.37696244114E+01  0.63109165858E+01  0.51100000000E-03 0. -1.
        -11    1    3    3    0    0 -0.24737481514E+02  0.10196201577E+02  0.11492370778E+02  0.29120097950E+02  0.51100000000E-03 0.  1.
        -12    1    3    3    0    0 -0.11144199092E+02 -0.52923758663E+01 -0.68897574133E+00  0.12356257657E+02  0.00000000000E+00 0.  1.
</event>
<event>
 7    1  0.2834226E-010  0.4778727E+02  0.7816164E-02  0.1312668E+00
        -11   -1    0    0    0    0  0.00000000000E+00  0.00000000000E+00  0.45593999997E+02  0.45594000000E+02  0.51100000000E-03 0.  1.
         11   -1    0    0    0    0 -0.00000000000E+00 -0.00000000000E+00 -0.45593999997E+02  0.45594000000E+02  0.51100000000E-03 0. -1.
    9900012    2    1    2    0    0 -0.33318482681E+02  0.11448601958E+02 -0.25346229785E+02  0.47787272595E+02  0.20000007070E+02 0.  0.
        -12    1    1    2    0    0  0.33318482681E+02 -0.11448601958E+02  0.25346229785E+02  0.43400727405E+02  0.00000000000E+00 0.  1.
         11    1    3    3    0    0 -0.16411466374E+02 -0.34124955528E+01 -0.59133357318E+01  0.17774951313E+02  0.51100000000E-03 0. -1.
        -11    1    3    3    0    0 -0.12939431176E+02  0.89792469988E+01 -0.12717787558E+02  0.20243465031E+02  0.51100000000E-03 0.  1.
         12    1    3    3    0    0 -0.39675851315E+01  0.58818505120E+01 -0.67151064949E+01  0.97688562513E+01  0.00000000000E+00 0. -1.
</event>
<event>
 7    1  0.2834226E-010  0.4778727E+02  0.7816164E-02  0.1312668E+00
        -11   -1    0    0    0    0  0.00000000000E+00  0.00000000000E+00  0.45593999997E+02  0.45594000000E+02  0.51100000000E-03 0.  1.
         11   -1    0    0    0    0 -0.00000000000E+00 -0.00000000000E+00 -0.45593999997E+02  0.45594000000E+02  0.51100000000E-03 0. -1.
    9900012    2    1    2    0    0 -0.33463964173E+02 -0.86937463660E+01 -0.26233661381E+02  0.47787272892E+02  0.20000008425E+02 0.  0.
        -12    1    1    2    0    0  0.33463964173E+02  0.86937463660E+01  0.26233661381E+02  0.43400727108E+02  0.00000000000E+00 0.  1.
         11    1    3    3    0    0 -0.68047075036E+01 -0.79495877051E+01 -0.17852167119E+01  0.10615412750E+02  0.51100000000E-03 0. -1.
        -11    1    3    3    0    0 -0.18445810828E+02  0.96075974622E+00 -0.11547138296E+02  0.21783190755E+02  0.51100000000E-03 0.  1.
         12    1    3    3    0    0 -0.82134458413E+01 -0.17049184071E+01 -0.12901306374E+02  0.15388669387E+02  0.00000000000E+00 0. -1.
</event>
<event>
 7    1  0.2834226E-010  0.4778727E+02  0.7816164E-02  0.1312668E+00
        -11   -1    0    0    0    0  0.00000000000E+00  0.00000000000E+00  0.45593999997E+02  0.45594000000E+02  0.51100000000E-03 0.  1.
         11   -1    0    0    0    0 -0.00000000000E+00 -0.00000000000E+00 -0.45593999997E+02  0.45594000000E+02  0.51100000000E-03 0. -1.
    9900012    2    1    2    0    0 -0.38057618011E+02  0.20214139994E+02 -0.51603988025E+01  0.47787268898E+02  0.19999990215E+02 0.  0.
        -12    1    1    2    0    0  0.38057618011E+02 -0.20214139994E+02  0.51603988025E+01  0.43400731102E+02  0.00000000000E+00 0.  1.
         11    1    3    3    0    0 -0.44598705670E+00  0.18805586411E+01  0.32079822835E+01  0.37452043802E+01  0.51100000000E-03 0. -1.
        -11    1    3    3    0    0 -0.20887315566E+02  0.16071067487E+02 -0.55289360319E+01  0.26928206320E+02  0.51100000000E-03 0.  1.
        -12    1    3    3    0    0 -0.16724315388E+02  0.22625138662E+01 -0.28394450541E+01  0.17113858198E+02  0.00000000000E+00 0.  1.
</event>
<event>
 7    1  0.2834226E-010  0.4778728E+02  0.7816164E-02  0.1312668E+00
        -11   -1    0    0    0    0  0.00000000000E+00  0.00000000000E+00  0.45593999997E+02  0.45594000000E+02  0.51100000000E-03 0. -1.
         11   -1    0    0    0    0 -0.00000000000E+00 -0.00000000000E+00 -0.45593999997E+02  0.45594000000E+02  0.51100000000E-03 0.  1.
    9900012    2    1    2    0    0 -0.27509144974E+02 -0.25501492583E+02  0.21829870502E+02  0.47787280797E+02  0.20000044467E+02 0.  0.
        -12    1    1    2    0    0  0.27509144974E+02  0.25501492583E+02 -0.21829870502E+02  0.43400719203E+02  0.00000000000E+00 0.  1.
         11    1    3    3    0    0 -0.68982513857E+01 -0.19610827595E+02  0.82513450500E+01  0.22366383850E+02  0.51100000000E-03 0. -1.
        -11    1    3    3    0    0 -0.19191527095E+02 -0.58537965971E+01  0.12524503400E+02  0.23652586170E+02  0.51100000000E-03 0.  1.
         12    1    3    3    0    0 -0.14193664930E+01 -0.36868391776E-01  0.10540220519E+01  0.17683107775E+01  0.00000000000E+00 0. -1.
</event>
<event>
 7    1  0.2834226E-010  0.4778728E+02  0.7816164E-02  0.1312668E+00
        -11   -1    0    0    0    0  0.00000000000E+00  0.00000000000E+00  0.45593999997E+02  0.45594000000E+02  0.51100000000E-03 0.  1.
         11   -1    0    0    0    0 -0.00000000000E+00 -0.00000000000E+00 -0.45593999997E+02  0.45594000000E+02  0.51100000000E-03 0. -1.
    9900012    2    1    2    0    0 -0.41844464403E+02 -0.59812789019E+01 -0.98431579826E+01  0.47787278145E+02  0.20000032374E+02 0.  0.
        -12    1    1    2    0    0  0.41844464403E+02  0.59812789019E+01  0.98431579826E+01  0.43400721855E+02  0.00000000000E+00 0.  1.
         11    1    3    3    0    0 -0.26565570524E+02 -0.52923699053E+01 -0.85188742235E+01  0.28395597102E+02  0.51100000000E-03 0. -1.
        -11    1    3    3    0    0  0.48970611511E+00 -0.29586894799E+01  0.12589579392E+01  0.32524807257E+01  0.51100000000E-03 0.  1.
        -12    1    3    3    0    0 -0.15768599994E+02  0.22697804833E+01 -0.25832416983E+01  0.16139200318E+02  0.00000000000E+00 0.  1.
</event>
<event>
 7    1  0.2834226E-010  0.4778727E+02  0.7816164E-02  0.1312668E+00
        -11   -1    0    0    0    0  0.00000000000E+00  0.00000000000E+00  0.45593999997E+02  0.45594000000E+02  0.51100000000E-03 0.  1.
         11   -1    0    0    0    0 -0.00000000000E+00 -0.00000000000E+00 -0.45593999997E+02  0.45594000000E+02  0.51100000000E-03 0. -1.
    9900012    2    1    2    0    0  0.13370489265E+02  0.17147681568E+02 -0.37560753675E+02  0.47787272091E+02  0.20000004773E+02 0.  0.
        -12    1    1    2    0    0 -0.13370489265E+02 -0.17147681568E+02  0.37560753675E+02  0.43400727909E+02  0.00000000000E+00 0.  1.
         11    1    3    3    0    0  0.15215639966E+02  0.15790641428E+02 -0.27171209432E+02  0.34916109155E+02  0.51100000000E-03 0. -1.
        -11    1    3    3    0    0 -0.13461658748E+01 -0.11917070306E+01 -0.10099051766E+02  0.10257834813E+02  0.51100000000E-03 0.  1.
        -12    1    3    3    0    0 -0.49898482636E+00  0.25487471709E+01 -0.29049247660E+00  0.26133281227E+01  0.00000000000E+00 0.  1.
</event>
<event>
 7    1  0.2834226E-010  0.4778728E+02  0.7816164E-02  0.1312668E+00
        -11   -1    0    0    0    0  0.00000000000E+00  0.00000000000E+00  0.45593999997E+02  0.45594000000E+02  0.51100000000E-03 0. -1.
         11   -1    0    0    0    0 -0.00000000000E+00 -0.00000000000E+00 -0.45593999997E+02  0.45594000000E+02  0.51100000000E-03 0.  1.
    9900012    2    1    2    0    0 -0.12395065759E+01  0.42624156305E+02  0.80788446594E+01  0.47787276408E+02  0.20000024454E+02 0.  0.
        -12    1    1    2    0    0  0.12395065759E+01 -0.42624156305E+02 -0.80788446594E+01  0.43400723592E+02  0.00000000000E+00 0.  1.
         11    1    3    3    0    0 -0.42239366932E-01  0.21016848153E+02 -0.36184558315E+00  0.21020005303E+02  0.51100000000E-03 0. -1.
        -11    1    3    3    0    0  0.23532525604E+01  0.83389290625E+01  0.96617801451E+01  0.12977886244E+02  0.51100000000E-03 0.  1.
        -12    1    3    3    0    0 -0.35505197694E+01  0.13268379090E+02 -0.12210899025E+01  0.13789384861E+02  0.00000000000E+00 0.  1.
</event>
<event>
 7    1  0.2834226E-010  0.4778728E+02  0.7816164E-02  0.1312668E+00
        -11   -1    0    0    0    0  0.00000000000E+00  0.00000000000E+00  0.45593999997E+02  0.45594000000E+02  0.51100000000E-03 0. -1.
         11   -1    0    0    0    0 -0.00000000000E+00 -0.00000000000E+00 -0.45593999997E+02  0.45594000000E+02  0.51100000000E-03 0.  1.
    9900012    2    1    2    0    0  0.36201370501E+02 -0.23490628055E+01  0.23823625667E+02  0.47787280397E+02  0.20000042640E+02 0.  0.
        -12    1    1    2    0    0 -0.36201370501E+02  0.23490628055E+01 -0.23823625667E+02  0.43400719603E+02  0.00000000000E+00 0.  1.
         11    1    3    3    0    0  0.14502276648E+02 -0.16794618650E+01  0.51402346885E+01  0.15477681772E+02  0.51100000000E-03 0. -1.
        -11    1    3    3    0    0  0.37683225068E+01 -0.19198079596E+01  0.12668199878E+02  0.13355493459E+02  0.51100000000E-03 0.  1.
        -12    1    3    3    0    0  0.17930771346E+02  0.12502070192E+01  0.60151910998E+01  0.18954105165E+02  0.00000000000E+00 0.  1.
</event>
<event>
 7    1  0.2834226E-010  0.4778727E+02  0.7816164E-02  0.1312668E+00
        -11   -1    0    0    0    0  0.00000000000E+00  0.00000000000E+00  0.45593999997E+02  0.45594000000E+02  0.51100000000E-03 0. -1.
         11   -1    0    0    0    0 -0.00000000000E+00 -0.00000000000E+00 -0.45593999997E+02  0.45594000000E+02  0.51100000000E-03 0.  1.
    9900012    2    1    2    0    0 -0.83206212260E+01  0.15415449647E+01  0.42567759580E+02  0.47787271272E+02  0.20000001037E+02 0.  0.
        -12    1    1    2    0    0  0.83206212260E+01 -0.15415449647E+01 -0.42567759580E+02  0.43400728728E+02  0.00000000000E+00 0.  1.
         11    1    3    3    0    0 -0.34422201731E+01  0.22262056663E+01  0.14434829853E+02  0.15005638425E+02  0.51100000000E-03 0. -1.
        -11    1    3    3    0    0  0.48601385044E+01  0.50183383247E+00  0.18105657152E+02  0.18753335827E+02  0.51100000000E-03 0.  1.
        -12    1    3    3    0    0 -0.97385395572E+01 -0.11864945340E+01  0.10027272575E+02  0.14028297020E+02  0.00000000000E+00 0.  1.
</event>
<event>
 7    1  0.2834226E-010  0.4778728E+02  0.7816164E-02  0.1312668E+00
        -11   -1    0    0    0    0  0.00000000000E+00  0.00000000000E+00  0.45593999997E+02  0.45594000000E+02  0.51100000000E-03 0.  1.
         11   -1    0    0    0    0 -0.00000000000E+00 -0.00000000000E+00 -0.45593999997E+02  0.45594000000E+02  0.51100000000E-03 0. -1.
    9900012    2    1    2    0    0 -0.22008305379E+02 -0.32021155829E+02 -0.19336571662E+02  0.47787275007E+02  0.20000018065E+02 0.  0.
        -12    1    1    2    0    0  0.22008305379E+02  0.32021155829E+02  0.19336571662E+02  0.43400724993E+02  0.00000000000E+00 0.  1.
         11    1    3    3    0    0 -0.32858066400E+01 -0.59865314153E+01 -0.34520373065E+00  0.68377079156E+01  0.51100000000E-03 0. -1.
        -11    1    3    3    0    0 -0.11569936222E+02 -0.29787877174E+01 -0.43382662946E+01  0.12710513567E+02  0.51100000000E-03 0.  1.
        -12    1    3    3    0    0 -0.71525625178E+01 -0.23055836696E+02 -0.14653101637E+02  0.28239053524E+02  0.00000000000E+00 0.  1.
</event>
<event>
 7    1  0.2834226E-010  0.4778727E+02  0.7816164E-02  0.1312668E+00
        -11   -1    0    0    0    0  0.00000000000E+00  0.00000000000E+00  0.45593999997E+02  0.45594000000E+02  0.51100000000E-03 0.  1.
         11   -1    0    0    0    0 -0.00000000000E+00 -0.00000000000E+00 -0.45593999997E+02  0.45594000000E+02  0.51100000000E-03 0. -1.
    9900012    2    1    2    0    0 -0.10244611246E+02  0.30559624412E+02 -0.29065112763E+02  0.47787268627E+02  0.19999988978E+02 0.  0.
        -12    1    1    2    0    0  0.10244611246E+02 -0.30559624412E+02  0.29065112763E+02  0.43400731373E+02  0.00000000000E+00 0.  1.
         11    1    3    3    0    0 -0.75547959690E+01  0.34897902340E+01 -0.53473195210E+01  0.98917846888E+01  0.51100000000E-03 0. -1.
        -11    1    3    3    0    0 -0.49476823555E+01  0.54942383213E+01 -0.91531402717E+01  0.11766316013E+02  0.51100000000E-03 0.  1.
         12    1    3    3    0    0  0.22578670784E+01  0.21575595856E+02 -0.14564652971E+02  0.26129167925E+02  0.00000000000E+00 0. -1.
</event>
<event>
 7    1  0.2834226E-010  0.4778727E+02  0.7816164E-02  0.1312668E+00
        -11   -1    0    0    0    0  0.00000000000E+00  0.00000000000E+00  0.45593999997E+02  0.45594000000E+02  0.51100000000E-03 0.  1.
         11   -1    0    0    0    0 -0.00000000000E+00 -0.00000000000E+00 -0.45593999997E+02  0.45594000000E+02  0.51100000000E-03 0. -1.
    9900012    2    1    2    0    0 -0.19094371215E+01 -0.43354176400E+02 -0.62694335222E+00  0.47787267063E+02  0.19999981849E+02 0.  0.
        -12    1    1    2    0    0  0.19094371215E+01  0.43354176400E+02  0.62694335222E+00  0.43400732937E+02  0.00000000000E+00 0.  1.
         11    1    3    3    0    0 -0.77328521631E+01 -0.30698985578E+02 -0.59445688602E+01  0.32211218811E+02  0.51100000000E-03 0. -1.
        -11    1    3    3    0    0  0.28604147186E+01 -0.10363434016E+02  0.29636769531E+01  0.11151955807E+02  0.51100000000E-03 0.  1.
         12    1    3    3    0    0  0.29630003230E+01 -0.22917568066E+01  0.23539485548E+01  0.44240924463E+01  0.00000000000E+00 0. -1.
</event>
<event>
 7    1  0.2834226E-010  0.4778728E+02  0.7816164E-02  0.1312668E+00
        -11   -1    0    0    0    0  0.00000000000E+00  0.00000000000E+00  0.45593999997E+02  0.45594000000E+02  0.51100000000E-03 0.  1.
         11   -1    0    0    0    0 -0.00000000000E+00 -0.00000000000E+00 -0.45593999997E+02  0.45594000000E+02  0.51100000000E-03 0. -1.
    9900012    2    1    2    0    0 -0.10758687934E+02 -0.13983241140E+02 -0.39652773237E+02  0.47787276225E+02  0.20000023620E+02 0.  0.
        -12    1    1    2    0    0  0.10758687934E+02  0.13983241140E+02  0.39652773237E+02  0.43400723775E+02  0.00000000000E+00 0.  1.
         11    1    3    3    0    0 -0.12547946657E+02 -0.70559237851E+01 -0.13841489015E+02  0.19970574458E+02  0.51100000000E-03 0. -1.
        -11    1    3    3    0    0  0.31697670657E+01 -0.38354482980E+01 -0.63713171015E+01  0.80840440849E+01  0.51100000000E-03 0.  1.
         12    1    3    3    0    0 -0.13805083427E+01 -0.30918690567E+01 -0.19439967121E+02  0.19732657682E+02  0.00000000000E+00 0. -1.
</event>
<event>
 7    1  0.2834226E-010  0.4778728E+02  0.7816164E-02  0.1312668E+00
        -11   -1    0    0    0    0  0.00000000000E+00  0.00000000000E+00  0.45593999997E+02  0.45594000000E+02  0.51100000000E-03 0. -1.
         11   -1    0    0    0    0 -0.00000000000E+00 -0.00000000000E+00 -0.45593999997E+02  0.45594000000E+02  0.51100000000E-03 0.  1.
    9900012    2    1    2    0    0  0.33462004786E+02  0.18313546669E+02  0.20700991477E+02  0.47787276458E+02  0.20000024681E+02 0.  0.
        -12    1    1    2    0    0 -0.33462004786E+02 -0.18313546669E+02 -0.20700991477E+02  0.43400723542E+02  0.00000000000E+00 0.  1.
         11    1    3    3    0    0  0.23279254692E+02  0.26756060100E+01  0.11167989634E+02  0.25957784174E+02  0.51100000000E-03 0. -1.
        -11    1    3    3    0    0  0.75002588187E+01  0.12426654601E+02  0.99900271503E+01  0.17620336820E+02  0.51100000000E-03 0.  1.
        -12    1    3    3    0    0  0.26824912751E+01  0.32112860578E+01 -0.45702530672E+00  0.42091554637E+01  0.00000000000E+00 0.  1.
</event>
<event>
 7    1  0.2834226E-010  0.4778727E+02  0.7816164E-02  0.1312668E+00
        -11   -1    0    0    0    0  0.00000000000E+00  0.00000000000E+00  0.45593999997E+02  0.45594000000E+02  0.51100000000E-03 0.  1.
         11   -1    0    0    0    0 -0.00000000000E+00 -0.00000000000E+00 -0.45593999997E+02  0.45594000000E+02  0.51100000000E-03 0. -1.
    9900012    2    1    2    0    0  0.12925727637E+02  0.20499361468E+02 -0.36004512225E+02  0.47787272401E+02  0.20000006185E+02 0.  0.
        -12    1    1    2    0    0 -0.12925727637E+02 -0.20499361468E+02  0.36004512225E+02  0.43400727599E+02  0.00000000000E+00 0.  1.
         11    1    3    3    0    0  0.61542889648E+01 -0.17487053457E+01 -0.50253858907E+01  0.81355852070E+01  0.51100000000E-03 0. -1.
        -11    1    3    3    0    0 -0.79558939363E-01  0.24239198601E+01 -0.23814013762E+00  0.24368890207E+01  0.51100000000E-03 0.  1.
         12    1    3    3    0    0  0.68509976116E+01  0.19824146953E+02 -0.30740986197E+02  0.37214798173E+02  0.00000000000E+00 0. -1.
</event>
<event>
 7    1  0.2834226E-010  0.4778728E+02  0.7816164E-02  0.1312668E+00
        -11   -1    0    0    0    0  0.00000000000E+00  0.00000000000E+00  0.45593999997E+02  0.45594000000E+02  0.51100000000E-03 0.  1.
         11   -1    0    0    0    0 -0.00000000000E+00 -0.00000000000E+00 -0.45593999997E+02  0.45594000000E+02  0.51100000000E-03 0. -1.
    9900012    2    1    2    0    0  0.28998378591E+02  0.41974867573E+01 -0.32017152370E+02  0.47787275330E+02  0.20000019539E+02 0.  0.
        -12    1    1    2    0    0 -0.28998378591E+02 -0.41974867573E+01  0.32017152370E+02  0.43400724670E+02  0.00000000000E+00 0.  1.
         11    1    3    3    0    0  0.73926843464E+01  0.64509325899E+00 -0.15880570732E+01  0.75887978420E+01  0.51100000000E-03 0. -1.
        -11    1    3    3    0    0  0.78985641684E+01  0.19351660377E+01 -0.16743205534E+01  0.83027425043E+01  0.51100000000E-03 0.  1.
        -12    1    3    3    0    0  0.13707130076E+02  0.16172274606E+01 -0.28754774744E+02  0.31895734984E+02  0.00000000000E+00 0.  1.
</event>
<event>
 7    1  0.2834226E-010  0.4778727E+02  0.7816164E-02  0.1312668E+00
        -11   -1    0    0    0    0  0.00000000000E+00  0.00000000000E+00  0.45593999997E+02  0.45594000000E+02  0.51100000000E-03 0.  1.
         11   -1    0    0    0    0 -0.00000000000E+00 -0.00000000000E+00 -0.45593999997E+02  0.45594000000E+02  0.51100000000E-03 0. -1.
    9900012    2    1    2    0    0 -0.91718866082E+01  0.35552461872E+02 -0.23141354339E+02  0.47787270400E+02  0.19999997063E+02 0.  0.
        -12    1    1    2    0    0  0.91718866082E+01 -0.35552461872E+02  0.23141354339E+02  0.43400729600E+02  0.00000000000E+00 0.  1.
         11    1    3    3    0    0 -0.72607400135E+01  0.16538576546E+02 -0.83222919235E+01  0.19887267354E+02  0.51100000000E-03 0. -1.
        -11    1    3    3    0    0  0.53781585810E+01  0.11384102565E+02 -0.52019451788E+01  0.13622871020E+02  0.51100000000E-03 0.  1.
        -12    1    3    3    0    0 -0.72893051758E+01  0.76297827619E+01 -0.96171172367E+01  0.14277132026E+02  0.00000000000E+00 0.  1.
</event>
<event>
 7    1  0.2834226E-010  0.4778727E+02  0.7816164E-02  0.1312668E+00
        -11   -1    0    0    0    0  0.00000000000E+00  0.00000000000E+00  0.45593999997E+02  0.45594000000E+02  0.51100000000E-03 0.  1.
         11   -1    0    0    0    0 -0.00000000000E+00 -0.00000000000E+00 -0.45593999997E+02  0.45594000000E+02  0.51100000000E-03 0. -1.
    9900012    2    1    2    0    0  0.20093786088E+02  0.16581539137E+02 -0.34711892685E+02  0.47787272204E+02  0.20000005285E+02 0.  0.
        -12    1    1    2    0    0 -0.20093786088E+02 -0.16581539137E+02  0.34711892685E+02  0.43400727796E+02  0.00000000000E+00 0.  1.
         11    1    3    3    0    0  0.19968186316E+02  0.18304922828E+02 -0.30671028205E+02  0.40920784888E+02  0.51100000000E-03 0. -1.
        -11    1    3    3    0    0  0.21888723942E+01 -0.22692832864E+01 -0.13443455096E+01  0.34275463676E+01  0.51100000000E-03 0.  1.
         12    1    3    3    0    0 -0.20632726222E+01  0.54589959559E+00 -0.26965189705E+01  0.34389409475E+01  0.00000000000E+00 0. -1.
</event>
<event>
 7    1  0.2834226E-010  0.4778727E+02  0.7816164E-02  0.1312668E+00
        -11   -1    0    0    0    0  0.00000000000E+00  0.00000000000E+00  0.45593999997E+02  0.45594000000E+02  0.51100000000E-03 0.  1.
         11   -1    0    0    0    0 -0.00000000000E+00 -0.00000000000E+00 -0.45593999997E+02  0.45594000000E+02  0.51100000000E-03 0. -1.
    9900012    2    1    2    0    0 -0.29058400987E+01 -0.42251139303E+02 -0.94879222548E+01  0.47787270193E+02  0.19999996116E+02 0.  0.
        -12    1    1    2    0    0  0.29058400987E+01  0.42251139303E+02  0.94879222548E+01  0.43400729807E+02  0.00000000000E+00 0.  1.
         11    1    3    3    0    0 -0.47284041715E+01 -0.50790828209E+01 -0.36131362580E+00  0.69487722735E+01  0.51100000000E-03 0. -1.
        -11    1    3    3    0    0  0.54203614856E+00  0.11217847452E+01 -0.11631402624E+01  0.17044353118E+01  0.51100000000E-03 0.  1.
        -12    1    3    3    0    0  0.12805279242E+01 -0.38293841228E+02 -0.79634683666E+01  0.39134062607E+02  0.00000000000E+00 0.  1.
</event>
<event>
 7    1  0.2834226E-010  0.4778727E+02  0.7816164E-02  0.1312668E+00
        -11   -1    0    0    0    0  0.00000000000E+00  0.00000000000E+00  0.45593999997E+02  0.45594000000E+02  0.51100000000E-03 0.  1.
         11   -1    0    0    0    0 -0.00000000000E+00 -0.00000000000E+00 -0.45593999997E+02  0.45594000000E+02  0.51100000000E-03 0. -1.
    9900012    2    1    2    0    0  0.23224886747E+02  0.23365019522E+01 -0.36589187751E+02  0.47787271134E+02  0.20000000410E+02 0.  0.
        -12    1    1    2    0    0 -0.23224886747E+02 -0.23365019522E+01  0.36589187751E+02  0.43400728866E+02  0.00000000000E+00 0.  1.
         11    1    3    3    0    0  0.13228305268E+02 -0.29005784271E+01 -0.31426598881E+02  0.34220352613E+02  0.51100000000E-03 0. -1.
        -11    1    3    3    0    0  0.65012015226E+01  0.41327279160E+01 -0.61816831622E+00  0.77283370522E+01  0.51100000000E-03 0.  1.
         12    1    3    3    0    0  0.34953799561E+01  0.11043524634E+01 -0.45444205543E+01  0.58385814694E+01  0.00000000000E+00 0. -1.
</event>
<event>
 7    1  0.2834226E-010  0.4778726E+02  0.7816164E-02  0.1312668E+00
        -11   -1    0    0    0    0  0.00000000000E+00  0.00000000000E+00  0.45593999997E+02  0.45594000000E+02  0.51100000000E-03 0.  1.
         11   -1    0    0    0    0 -0.00000000000E+00 -0.00000000000E+00 -0.45593999997E+02  0.45594000000E+02  0.51100000000E-03 0. -1.
    9900012    2    1    2    0    0  0.18749214214E+02  0.33381670854E+02 -0.20439057776E+02  0.47787261925E+02  0.19999958422E+02 0.  0.
        -12    1    1    2    0    0 -0.18749214214E+02 -0.33381670854E+02  0.20439057776E+02  0.43400738075E+02  0.00000000000E+00 0.  1.
         11    1    3    3    0    0  0.19013539139E+02  0.32282004534E+02 -0.21683461884E+02  0.43287584904E+02  0.51100000000E-03 0. -1.
        -11    1    3    3    0    0  0.10473009312E+01 -0.11443891164E+01  0.10898098890E+01  0.18958247666E+01  0.51100000000E-03 0.  1.
         12    1    3    3    0    0 -0.13116258557E+01  0.22440554372E+01  0.15459421954E+00  0.26038522545E+01  0.00000000000E+00 0. -1.
</event>
<event>
 7    1  0.2834226E-010  0.4778727E+02  0.7816164E-02  0.1312668E+00
        -11   -1    0    0    0    0  0.00000000000E+00  0.00000000000E+00  0.45593999997E+02  0.45594000000E+02  0.51100000000E-03 0.  1.
         11   -1    0    0    0    0 -0.00000000000E+00 -0.00000000000E+00 -0.45593999997E+02  0.45594000000E+02  0.51100000000E-03 0. -1.
    9900012    2    1    2    0    0  0.32998140808E+02  0.48339743708E+01 -0.27773704290E+02  0.47787271262E+02  0.20000000993E+02 0.  0.
        -12    1    1    2    0    0 -0.32998140808E+02 -0.48339743708E+01  0.27773704290E+02  0.43400728738E+02  0.00000000000E+00 0.  1.
         11    1    3    3    0    0  0.10889190672E+01 -0.11109890245E+01 -0.25770161981E-01  0.15558617258E+01  0.51100000000E-03 0. -1.
        -11    1    3    3    0    0 -0.59407374185E+00  0.82482112085E+00 -0.75596705260E+01  0.76277042559E+01  0.51100000000E-03 0.  1.
         12    1    3    3    0    0  0.32503295482E+02  0.51201422745E+01 -0.20188263602E+02  0.38603705281E+02  0.00000000000E+00 0. -1.
</event>
<event>
 7    1  0.2834226E-010  0.4778727E+02  0.7816164E-02  0.1312668E+00
        -11   -1    0    0    0    0  0.00000000000E+00  0.00000000000E+00  0.45593999997E+02  0.45594000000E+02  0.51100000000E-03 0.  1.
         11   -1    0    0    0    0 -0.00000000000E+00 -0.00000000000E+00 -0.45593999997E+02  0.45594000000E+02  0.51100000000E-03 0. -1.
    9900012    2    1    2    0    0 -0.26018610074E+02 -0.42711004981E+01 -0.34473360555E+02  0.47787274688E+02  0.20000016614E+02 0.  0.
        -12    1    1    2    0    0  0.26018610074E+02  0.42711004981E+01  0.34473360555E+02  0.43400725312E+02  0.00000000000E+00 0.  1.
         11    1    3    3    0    0 -0.16484606112E+02 -0.50758936030E+01 -0.30969325822E+02  0.35448639984E+02  0.51100000000E-03 0. -1.
        -11    1    3    3    0    0 -0.25834922226E+00  0.43900513832E+00 -0.29990970059E+01  0.30420474920E+01  0.51100000000E-03 0.  1.
         12    1    3    3    0    0 -0.92756547401E+01  0.36578796655E+00 -0.50493772628E+00  0.92965872126E+01  0.00000000000E+00 0. -1.
</event>
<event>
 7    1  0.2834226E-010  0.4778727E+02  0.7816164E-02  0.1312668E+00
        -11   -1    0    0    0    0  0.00000000000E+00  0.00000000000E+00  0.45593999997E+02  0.45594000000E+02  0.51100000000E-03 0.  1.
         11   -1    0    0    0    0 -0.00000000000E+00 -0.00000000000E+00 -0.45593999997E+02  0.45594000000E+02  0.51100000000E-03 0. -1.
    9900012    2    1    2    0    0 -0.48018567167E+01 -0.42352932600E+02 -0.81728131100E+01  0.47787267266E+02  0.19999982773E+02 0.  0.
        -12    1    1    2    0    0  0.48018567167E+01  0.42352932600E+02  0.81728131100E+01  0.43400732734E+02  0.00000000000E+00 0.  1.
         11    1    3    3    0    0 -0.62354528201E+00 -0.15173481291E+02 -0.97191232694E+01  0.18030105396E+02  0.51100000000E-03 0. -1.
        -11    1    3    3    0    0 -0.19340383876E+01 -0.44471606140E+01  0.46328258402E+01  0.67067740038E+01  0.51100000000E-03 0.  1.
         12    1    3    3    0    0 -0.22442730471E+01 -0.22732290694E+02 -0.30865156809E+01  0.23050387866E+02  0.00000000000E+00 0. -1.
</event>
<event>
 7    1  0.2834226E-010  0.4778727E+02  0.7816164E-02  0.1312668E+00
        -11   -1    0    0    0    0  0.00000000000E+00  0.00000000000E+00  0.45593999997E+02  0.45594000000E+02  0.51100000000E-03 0.  1.
         11   -1    0    0    0    0 -0.00000000000E+00 -0.00000000000E+00 -0.45593999997E+02  0.45594000000E+02  0.51100000000E-03 0. -1.
    9900012    2    1    2    0    0 -0.65705206540E+01  0.30653986610E+02 -0.30013076883E+02  0.47787269352E+02  0.19999992285E+02 0.  0.
        -12    1    1    2    0    0  0.65705206540E+01 -0.30653986610E+02  0.30013076883E+02  0.43400730648E+02  0.00000000000E+00 0.  1.
         11    1    3    3    0    0 -0.75830961944E+00  0.23989924350E+02 -0.25362906565E+02  0.34919457806E+02  0.51100000000E-03 0. -1.
        -11    1    3    3    0    0  0.14548230452E+01  0.42955830089E+00  0.93604935500E+00  0.17824755490E+01  0.51100000000E-03 0.  1.
         12    1    3    3    0    0 -0.72670340797E+01  0.62345039595E+01 -0.55862196733E+01  0.11085335997E+02  0.00000000000E+00 0. -1.
</event>
<event>
 7    1  0.2834226E-010  0.4778727E+02  0.7816164E-02  0.1312668E+00
        -11   -1    0    0    0    0  0.00000000000E+00  0.00000000000E+00  0.45593999997E+02  0.45594000000E+02  0.51100000000E-03 0. -1.
         11   -1    0    0    0    0 -0.00000000000E+00 -0.00000000000E+00 -0.45593999997E+02  0.45594000000E+02  0.51100000000E-03 0.  1.
    9900012    2    1    2    0    0 -0.67563406990E+01 -0.38096877508E+01  0.42702011431E+02  0.47787266819E+02  0.19999980737E+02 0.  0.
        -12    1    1    2    0    0  0.67563406990E+01  0.38096877508E+01 -0.42702011431E+02  0.43400733181E+02  0.00000000000E+00 0.  1.
         11    1    3    3    0    0  0.33863771327E+01 -0.52639802560E+01  0.23157747813E+02  0.23988712392E+02  0.51100000000E-03 0. -1.
        -11    1    3    3    0    0 -0.77599167723E+01 -0.21011386030E+01  0.17036134319E+02  0.18837753702E+02  0.51100000000E-03 0.  1.
         12    1    3    3    0    0 -0.23828010594E+01  0.35554311082E+01  0.25081292983E+01  0.49608007248E+01  0.00000000000E+00 0. -1.
</event>
<event>
 7    1  0.2834226E-010  0.4778726E+02  0.7816164E-02  0.1312668E+00
        -11   -1    0    0    0    0  0.00000000000E+00  0.00000000000E+00  0.45593999997E+02  0.45594000000E+02  0.51100000000E-03 0.  1.
         11   -1    0    0    0    0 -0.00000000000E+00 -0.00000000000E+00 -0.45593999997E+02  0.45594000000E+02  0.51100000000E-03 0. -1.
    9900012    2    1    2    0    0  0.17577903183E+01  0.29664939517E+02 -0.31631083690E+02  0.47787263615E+02  0.19999966125E+02 0.  0.
        -12    1    1    2    0    0 -0.17577903183E+01 -0.29664939517E+02  0.31631083690E+02  0.43400736385E+02  0.00000000000E+00 0.  1.
         11    1    3    3    0    0 -0.15719411142E+01  0.23682823135E+02 -0.25805523279E+02  0.35060977488E+02  0.51100000000E-03 0. -1.
        -11    1    3    3    0    0  0.47225444666E+01  0.63181406346E+01 -0.13191541518E+01  0.79975930913E+01  0.51100000000E-03 0.  1.
         12    1    3    3    0    0 -0.13928130342E+01 -0.33602425164E+00 -0.45064062596E+01  0.47286930353E+01  0.00000000000E+00 0. -1.
</event>
<event>
 7    1  0.2834226E-010  0.4778728E+02  0.7816164E-02  0.1312668E+00
        -11   -1    0    0    0    0  0.00000000000E+00  0.00000000000E+00  0.45593999997E+02  0.45594000000E+02  0.51100000000E-03 0.  1.
         11   -1    0    0    0    0 -0.00000000000E+00 -0.00000000000E+00 -0.45593999997E+02  0.45594000000E+02  0.51100000000E-03 0. -1.
    9900012    2    1    2    0    0  0.37864169266E+02  0.14003191478E+02  0.15932295360E+02  0.47787277412E+02  0.20000029031E+02 0.  0.
        -12    1    1    2    0    0 -0.37864169266E+02 -0.14003191478E+02 -0.15932295360E+02  0.43400722588E+02  0.00000000000E+00 0.  1.
         11    1    3    3    0    0  0.13378193903E+02 -0.12063250253E+01  0.94095394261E+00  0.13465388474E+02  0.51100000000E-03 0. -1.
        -11    1    3    3    0    0  0.17727086719E+02  0.78197235255E+01  0.14669590470E+02  0.24302151435E+02  0.51100000000E-03 0.  1.
         12    1    3    3    0    0  0.67588886436E+01  0.73897929777E+01  0.32175094763E+00  0.10019737503E+02  0.00000000000E+00 0. -1.
</event>
<event>
 7    1  0.2834226E-010  0.4778728E+02  0.7816164E-02  0.1312668E+00
        -11   -1    0    0    0    0  0.00000000000E+00  0.00000000000E+00  0.45593999997E+02  0.45594000000E+02  0.51100000000E-03 0.  1.
         11   -1    0    0    0    0 -0.00000000000E+00 -0.00000000000E+00 -0.45593999997E+02  0.45594000000E+02  0.51100000000E-03 0. -1.
    9900012    2    1    2    0    0 -0.29459607724E+02  0.26194144818E+02 -0.18155455938E+02  0.47787282376E+02  0.20000051663E+02 0.  0.
        -12    1    1    2    0    0  0.29459607724E+02 -0.26194144818E+02  0.18155455938E+02  0.43400717624E+02  0.00000000000E+00 0.  1.
         11    1    3    3    0    0 -0.73713987308E+01  0.90050107877E+01 -0.73161792933E+01  0.13746061918E+02  0.51100000000E-03 0. -1.
        -11    1    3    3    0    0 -0.35556706943E+01  0.28912981854E+00 -0.80504723243E+01  0.88054809661E+01  0.51100000000E-03 0.  1.
        -12    1    3    3    0    0 -0.18532538299E+02  0.16900004211E+02 -0.27888043207E+01  0.25235739492E+02  0.00000000000E+00 0.  1.
</event>
<event>
 7    1  0.2834226E-010  0.4778727E+02  0.7816164E-02  0.1312668E+00
        -11   -1    0    0    0    0  0.00000000000E+00  0.00000000000E+00  0.45593999997E+02  0.45594000000E+02  0.51100000000E-03 0.  1.
         11   -1    0    0    0    0 -0.00000000000E+00 -0.00000000000E+00 -0.45593999997E+02  0.45594000000E+02  0.51100000000E-03 0. -1.
    9900012    2    1    2    0    0  0.41274158561E+02 -0.13391781812E+02  0.85282563773E+00  0.47787270783E+02  0.19999998809E+02 0.  0.
        -12    1    1    2    0    0 -0.41274158561E+02  0.13391781812E+02 -0.85282563773E+00  0.43400729217E+02  0.00000000000E+00 0.  1.
         11    1    3    3    0    0  0.28332506405E+02 -0.72815614548E+01 -0.15520396520E+01  0.29294383143E+02  0.51100000000E-03 0. -1.
        -11    1    3    3    0    0  0.81582632887E+01 -0.18851627051E+01  0.67641288393E+01  0.10764039090E+02  0.51100000000E-03 0.  1.
         12    1    3    3    0    0  0.47833888672E+01 -0.42250576520E+01 -0.43592635496E+01  0.77288485502E+01  0.00000000000E+00 0. -1.
</event>
<event>
 7    1  0.2834226E-010  0.4778727E+02  0.7816164E-02  0.1312668E+00
        -11   -1    0    0    0    0  0.00000000000E+00  0.00000000000E+00  0.45593999997E+02  0.45594000000E+02  0.51100000000E-03 0.  1.
         11   -1    0    0    0    0 -0.00000000000E+00 -0.00000000000E+00 -0.45593999997E+02  0.45594000000E+02  0.51100000000E-03 0. -1.
    9900012    2    1    2    0    0 -0.54223233954E+01 -0.39222815140E+02 -0.17770554268E+02  0.47787269390E+02  0.19999992455E+02 0.  0.
        -12    1    1    2    0    0  0.54223233954E+01  0.39222815140E+02  0.17770554268E+02  0.43400730610E+02  0.00000000000E+00 0.  1.
         11    1    3    3    0    0 -0.60373983383E+01 -0.34760814470E+02 -0.21948215046E+02  0.41551035429E+02  0.51100000000E-03 0. -1.
        -11    1    3    3    0    0  0.24490785699E+00 -0.29141960290E+01  0.33344157583E+01  0.44351828670E+01  0.51100000000E-03 0.  1.
         12    1    3    3    0    0  0.37016708584E+00 -0.15478046412E+01  0.84324501904E+00  0.18010510933E+01  0.00000000000E+00 0. -1.
</event>
<event>
 7    1  0.2834226E-010  0.4778727E+02  0.7816164E-02  0.1312668E+00
        -11   -1    0    0    0    0  0.00000000000E+00  0.00000000000E+00  0.45593999997E+02  0.45594000000E+02  0.51100000000E-03 0. -1.
         11   -1    0    0    0    0 -0.00000000000E+00 -0.00000000000E+00 -0.45593999997E+02  0.45594000000E+02  0.51100000000E-03 0.  1.
    9900012    2    1    2    0    0  0.33318165353E+02  0.59624310926E+01  0.27165651318E+02  0.47787270300E+02  0.19999996604E+02 0.  0.
        -12    1    1    2    0    0 -0.33318165353E+02 -0.59624310926E+01 -0.27165651318E+02  0.43400729700E+02  0.00000000000E+00 0.  1.
         11    1    3    3    0    0 -0.70421178192E-01  0.47043774097E+01  0.27609744821E+01  0.54551907673E+01  0.51100000000E-03 0. -1.
        -11    1    3    3    0    0  0.16727778603E+02 -0.30916334818E+01  0.15170939063E+02  0.22793292147E+02  0.51100000000E-03 0.  1.
         12    1    3    3    0    0  0.16660807928E+02  0.43496871646E+01  0.92337377727E+01  0.19538787385E+02  0.00000000000E+00 0. -1.
</event>
<event>
 7    1  0.2834226E-010  0.4778731E+02  0.7816164E-02  0.1312668E+00
        -11   -1    0    0    0    0  0.00000000000E+00  0.00000000000E+00  0.45593999997E+02  0.45594000000E+02  0.51100000000E-03 0.  1.
         11   -1    0    0    0    0 -0.00000000000E+00 -0.00000000000E+00 -0.45593999997E+02  0.45594000000E+02  0.51100000000E-03 0. -1.
    9900012    2    1    2    0    0  0.12366753458E+02  0.16642714693E+02 -0.38127459530E+02  0.47787312060E+02  0.20000187004E+02 0.  0.
        -12    1    1    2    0    0 -0.12366753458E+02 -0.16642714693E+02  0.38127459530E+02  0.43400687940E+02  0.00000000000E+00 0.  1.
         11    1    3    3    0    0  0.18606674704E+00  0.11371692258E+02 -0.90707100476E+01  0.14547432305E+02  0.51100000000E-03 0. -1.
        -11    1    3    3    0    0  0.12952923775E+02  0.52459863929E+01 -0.29272831427E+02  0.32437590347E+02  0.51100000000E-03 0.  1.
        -12    1    3    3    0    0 -0.77223706363E+00  0.25036041763E-01  0.21608194379E+00  0.80228940680E+00  0.00000000000E+00 0.  1.
</event>
<event>
 7    1  0.2834226E-010  0.4778728E+02  0.7816164E-02  0.1312668E+00
        -11   -1    0    0    0    0  0.00000000000E+00  0.00000000000E+00  0.45593999997E+02  0.45594000000E+02  0.51100000000E-03 0.  1.
         11   -1    0    0    0    0 -0.00000000000E+00 -0.00000000000E+00 -0.45593999997E+02  0.45594000000E+02  0.51100000000E-03 0. -1.
    9900012    2    1    2    0    0  0.36792003347E+02  0.13017949038E+02 -0.18986952568E+02  0.47787275636E+02  0.20000020936E+02 0.  0.
        -12    1    1    2    0    0 -0.36792003347E+02 -0.13017949038E+02  0.18986952568E+02  0.43400724364E+02  0.00000000000E+00 0.  1.
         11    1    3    3    0    0  0.28778274642E+02  0.76043214129E+01 -0.98947076594E+01  0.31367499668E+02  0.51100000000E-03 0. -1.
        -11    1    3    3    0    0 -0.43894665041E+00 -0.79737111521E+00 -0.51252453060E+01  0.52054408617E+01  0.51100000000E-03 0.  1.
         12    1    3    3    0    0  0.84526753561E+01  0.62109987405E+01 -0.39669996031E+01  0.11214335107E+02  0.00000000000E+00 0. -1.
</event>
<event>
 7    1  0.2834226E-010  0.4778724E+02  0.7816164E-02  0.1312668E+00
        -11   -1    0    0    0    0  0.00000000000E+00  0.00000000000E+00  0.45593999997E+02  0.45594000000E+02  0.51100000000E-03 0.  1.
         11   -1    0    0    0    0 -0.00000000000E+00 -0.00000000000E+00 -0.45593999997E+02  0.45594000000E+02  0.51100000000E-03 0. -1.
    9900012    2    1    2    0    0  0.36425650292E+02  0.17145065740E+02 -0.16212481220E+02  0.47787241646E+02  0.19999865958E+02 0.  0.
        -12    1    1    2    0    0 -0.36425650292E+02 -0.17145065740E+02  0.16212481220E+02  0.43400758354E+02  0.00000000000E+00 0.  1.
         11    1    3    3    0    0  0.13685103673E+01  0.17753530580E+01 -0.71471669143E+01  0.74904401919E+01  0.51100000000E-03 0. -1.
        -11    1    3    3    0    0  0.30779096016E+02  0.16143251657E+02 -0.68762980195E+01  0.35429377645E+02  0.51100000000E-03 0.  1.
        -12    1    3    3    0    0  0.42780439085E+01 -0.77353897452E+00 -0.21890162865E+01  0.48674238084E+01  0.00000000000E+00 0.  1.
</event>
<event>
 7    1  0.2834226E-010  0.4778727E+02  0.7816164E-02  0.1312668E+00
        -11   -1    0    0    0    0  0.00000000000E+00  0.00000000000E+00  0.45593999997E+02  0.45594000000E+02  0.51100000000E-03 0. -1.
         11   -1    0    0    0    0 -0.00000000000E+00 -0.00000000000E+00 -0.45593999997E+02  0.45594000000E+02  0.51100000000E-03 0.  1.
    9900012    2    1    2    0    0 -0.43128002451E+02 -0.41591474459E+01 -0.25100310852E+01  0.47787270064E+02  0.19999995531E+02 0.  0.
        -12    1    1    2    0    0  0.43128002451E+02  0.41591474459E+01  0.25100310852E+01  0.43400729936E+02  0.00000000000E+00 0.  1.
         11    1    3    3    0    0 -0.15709270430E+02  0.49082619807E+00  0.76715574855E+01  0.17489279068E+02  0.51100000000E-03 0. -1.
        -11    1    3    3    0    0 -0.17208995662E+02 -0.54289800939E+01 -0.84015426291E+01  0.19905006289E+02  0.51100000000E-03 0.  1.
         12    1    3    3    0    0 -0.10209736359E+02  0.77900644993E+00 -0.17800459417E+01  0.10392984707E+02  0.00000000000E+00 0. -1.
</event>
<event>
 7    1  0.2834226E-010  0.4778727E+02  0.7816164E-02  0.1312668E+00
        -11   -1    0    0    0    0  0.00000000000E+00  0.00000000000E+00  0.45593999997E+02  0.45594000000E+02  0.51100000000E-03 0.  1.
         11   -1    0    0    0    0 -0.00000000000E+00 -0.00000000000E+00 -0.45593999997E+02  0.45594000000E+02  0.51100000000E-03 0. -1.
    9900012    2    1    2    0    0 -0.22114046518E+02 -0.64969359988E+00 -0.37338583853E+02  0.47787274208E+02  0.20000014423E+02 0.  0.
        -12    1    1    2    0    0  0.22114046518E+02  0.64969359988E+00  0.37338583853E+02  0.43400725792E+02  0.00000000000E+00 0.  1.
         11    1    3    3    0    0 -0.80397486038E+01 -0.68263951094E+01 -0.11699541350E+02  0.15751714061E+02  0.51100000000E-03 0. -1.
        -11    1    3    3    0    0 -0.42131231349E+01  0.80022771180E+01 -0.10274322589E+02  0.13687532669E+02  0.51100000000E-03 0.  1.
         12    1    3    3    0    0 -0.98611747792E+01 -0.18255756085E+01 -0.15364719913E+02  0.18348027478E+02  0.00000000000E+00 0. -1.
</event>
<event>
 7    1  0.2834226E-010  0.4778727E+02  0.7816164E-02  0.1312668E+00
        -11   -1    0    0    0    0  0.00000000000E+00  0.00000000000E+00  0.45593999997E+02  0.45594000000E+02  0.51100000000E-03 0. -1.
         11   -1    0    0    0    0 -0.00000000000E+00 -0.00000000000E+00 -0.45593999997E+02  0.45594000000E+02  0.51100000000E-03 0.  1.
    9900012    2    1    2    0    0  0.10732278037E+02 -0.39566383471E+02 -0.14245805557E+02  0.47787268798E+02  0.19999989759E+02 0.  0.
        -12    1    1    2    0    0 -0.10732278037E+02  0.39566383471E+02  0.14245805557E+02  0.43400731202E+02  0.00000000000E+00 0.  1.
         11    1    3    3    0    0  0.56785521226E+01 -0.23846539706E+02 -0.19013140857E+01  0.24586956006E+02  0.51100000000E-03 0. -1.
        -11    1    3    3    0    0 -0.11763697167E+01 -0.20484785583E+01 -0.67787043680E+01  0.71785056442E+01  0.51100000000E-03 0.  1.
        -12    1    3    3    0    0  0.62300956307E+01 -0.13671365207E+02 -0.55657871037E+01  0.16021807148E+02  0.00000000000E+00 0.  1.
</event>
<event>
 7    1  0.2834226E-010  0.4778727E+02  0.7816164E-02  0.1312668E+00
        -11   -1    0    0    0    0  0.00000000000E+00  0.00000000000E+00  0.45593999997E+02  0.45594000000E+02  0.51100000000E-03 0. -1.
         11   -1    0    0    0    0 -0.00000000000E+00 -0.00000000000E+00 -0.45593999997E+02  0.45594000000E+02  0.51100000000E-03 0.  1.
    9900012    2    1    2    0    0  0.20001253263E+02  0.14187864912E+02  0.35808910464E+02  0.47787266003E+02  0.19999977013E+02 0.  0.
        -12    1    1    2    0    0 -0.20001253263E+02 -0.14187864912E+02 -0.35808910464E+02  0.43400733997E+02  0.00000000000E+00 0.  1.
         11    1    3    3    0    0  0.26251776491E+01  0.10730598082E+02  0.10085090348E+02  0.14958152977E+02  0.51100000000E-03 0. -1.
        -11    1    3    3    0    0  0.18242471278E+01  0.34297647720E+01  0.99340179657E+01  0.10666577576E+02  0.51100000000E-03 0.  1.
         12    1    3    3    0    0  0.15551828486E+02  0.27502058065E-01  0.15789802151E+02  0.22162535450E+02  0.00000000000E+00 0. -1.
</event>
<event>
 7    1  0.2834226E-010  0.4778727E+02  0.7816164E-02  0.1312668E+00
        -11   -1    0    0    0    0  0.00000000000E+00  0.00000000000E+00  0.45593999997E+02  0.45594000000E+02  0.51100000000E-03 0.  1.
         11   -1    0    0    0    0 -0.00000000000E+00 -0.00000000000E+00 -0.45593999997E+02  0.45594000000E+02  0.51100000000E-03 0. -1.
    9900012    2    1    2    0    0 -0.35146341509E+02  0.28530807574E+01 -0.25302529834E+02  0.47787269507E+02  0.19999992992E+02 0.  0.
        -12    1    1    2    0    0  0.35146341509E+02 -0.28530807574E+01  0.25302529834E+02  0.43400730493E+02  0.00000000000E+00 0.  1.
         11    1    3    3    0    0 -0.16873250309E+02  0.46672529404E+01 -0.30962918829E+01  0.17778550270E+02  0.51100000000E-03 0. -1.
        -11    1    3    3    0    0 -0.20372640349E+01  0.21879081049E+01 -0.13596276645E+01  0.32842007050E+01  0.51100000000E-03 0.  1.
         12    1    3    3    0    0 -0.16235827165E+02 -0.40020802880E+01 -0.20846610287E+02  0.26724518533E+02  0.00000000000E+00 0. -1.
</event>
<event>
 7    1  0.2834226E-010  0.4778727E+02  0.7816164E-02  0.1312668E+00
        -11   -1    0    0    0    0  0.00000000000E+00  0.00000000000E+00  0.45593999997E+02  0.45594000000E+02  0.51100000000E-03 0.  1.
         11   -1    0    0    0    0 -0.00000000000E+00 -0.00000000000E+00 -0.45593999997E+02  0.45594000000E+02  0.51100000000E-03 0. -1.
    9900012    2    1    2    0    0 -0.27515902961E+02 -0.19884495389E+02 -0.27038958673E+02  0.47787270067E+02  0.19999995542E+02 0.  0.
        -12    1    1    2    0    0  0.27515902961E+02  0.19884495389E+02  0.27038958673E+02  0.43400729933E+02  0.00000000000E+00 0.  1.
         11    1    3    3    0    0 -0.18259161791E+02 -0.59239280998E+01 -0.19339745730E+02  0.27249140878E+02  0.51100000000E-03 0. -1.
        -11    1    3    3    0    0  0.13902128941E+00 -0.43804186654E+00  0.15743341403E+01  0.16400414148E+01  0.51100000000E-03 0.  1.
         12    1    3    3    0    0 -0.93957624598E+01 -0.13522525423E+02 -0.92735470830E+01  0.18898087774E+02  0.00000000000E+00 0. -1.
</event>
<event>
 7    1  0.2834226E-010  0.4778728E+02  0.7816164E-02  0.1312668E+00
        -11   -1    0    0    0    0  0.00000000000E+00  0.00000000000E+00  0.45593999997E+02  0.45594000000E+02  0.51100000000E-03 0.  1.
         11   -1    0    0    0    0 -0.00000000000E+00 -0.00000000000E+00 -0.45593999997E+02  0.45594000000E+02  0.51100000000E-03 0. -1.
    9900012    2    1    2    0    0  0.31154728777E+02 -0.29465442507E+02  0.66927610097E+01  0.47787280223E+02  0.20000041847E+02 0.  0.
        -12    1    1    2    0    0 -0.31154728777E+02  0.29465442507E+02 -0.66927610097E+01  0.43400719777E+02  0.00000000000E+00 0.  1.
         11    1    3    3    0    0  0.21762995810E+02 -0.10244630590E+02  0.63894683947E+00  0.24062183939E+02  0.51100000000E-03 0. -1.
        -11    1    3    3    0    0  0.86714977924E+01 -0.19299789014E+02  0.39814425237E+01  0.21529714693E+02  0.51100000000E-03 0.  1.
        -12    1    3    3    0    0  0.72023517398E+00  0.78977097553E-01  0.20723716465E+01  0.21953815907E+01  0.00000000000E+00 0.  1.
</event>
<event>
 7    1  0.2834226E-010  0.4778727E+02  0.7816164E-02  0.1312668E+00
        -11   -1    0    0    0    0  0.00000000000E+00  0.00000000000E+00  0.45593999997E+02  0.45594000000E+02  0.51100000000E-03 0. -1.
         11   -1    0    0    0    0 -0.00000000000E+00 -0.00000000000E+00 -0.45593999997E+02  0.45594000000E+02  0.51100000000E-03 0.  1.
    9900012    2    1    2    0    0  0.13566156048E+02 -0.32730792843E+02 -0.25065468256E+02  0.47787273175E+02  0.20000009714E+02 0.  0.
        -12    1    1    2    0    0 -0.13566156048E+02  0.32730792843E+02  0.25065468256E+02  0.43400726825E+02  0.00000000000E+00 0.  1.
         11    1    3    3    0    0 -0.45559122193E+01 -0.80805851593E+01 -0.35749115862E+01  0.99414378123E+01  0.51100000000E-03 0. -1.
        -11    1    3    3    0    0  0.13891024853E+02 -0.18816498710E+02 -0.19271771376E+02  0.30305484115E+02  0.51100000000E-03 0.  1.
         12    1    3    3    0    0  0.42310434144E+01 -0.58337089734E+01 -0.22187852938E+01  0.75403512479E+01  0.00000000000E+00 0. -1.
</event>
<event>
 7    1  0.2834226E-010  0.4778727E+02  0.7816164E-02  0.1312668E+00
        -11   -1    0    0    0    0  0.00000000000E+00  0.00000000000E+00  0.45593999997E+02  0.45594000000E+02  0.51100000000E-03 0. -1.
         11   -1    0    0    0    0 -0.00000000000E+00 -0.00000000000E+00 -0.45593999997E+02  0.45594000000E+02  0.51100000000E-03 0.  1.
    9900012    2    1    2    0    0 -0.56507274459E+00  0.39365671877E+02  0.18266036236E+02  0.47787268332E+02  0.19999987631E+02 0.  0.
        -12    1    1    2    0    0  0.56507274459E+00 -0.39365671877E+02 -0.18266036236E+02  0.43400731668E+02  0.00000000000E+00 0.  1.
         11    1    3    3    0    0  0.26487687274E+01  0.13747257252E+02 -0.58473364639E+00  0.14012314991E+02  0.51100000000E-03 0. -1.
        -11    1    3    3    0    0 -0.40827867867E+01  0.55451075977E+01  0.91826885927E+01  0.11477767042E+02  0.51100000000E-03 0.  1.
        -12    1    3    3    0    0  0.86894531472E+00  0.20073307028E+02  0.96680812898E+01  0.22297186299E+02  0.00000000000E+00 0.  1.
</event>
<event>
 7    1  0.2834226E-010  0.4778728E+02  0.7816164E-02  0.1312668E+00
        -11   -1    0    0    0    0  0.00000000000E+00  0.00000000000E+00  0.45593999997E+02  0.45594000000E+02  0.51100000000E-03 0.  1.
         11   -1    0    0    0    0 -0.00000000000E+00 -0.00000000000E+00 -0.45593999997E+02  0.45594000000E+02  0.51100000000E-03 0. -1.
    9900012    2    1    2    0    0  0.22718952994E+02 -0.69290206392E+01 -0.36324370925E+02  0.47787284853E+02  0.20000062959E+02 0.  0.
        -12    1    1    2    0    0 -0.22718952994E+02  0.69290206392E+01  0.36324370925E+02  0.43400715147E+02  0.00000000000E+00 0.  1.
         11    1    3    3    0    0  0.69208518956E+01  0.63874137672E+01 -0.12315772305E+02  0.15504047644E+02  0.51100000000E-03 0. -1.
        -11    1    3    3    0    0  0.94519078493E+01 -0.11664511188E+02 -0.17185463333E+02  0.22819718085E+02  0.51100000000E-03 0.  1.
         12    1    3    3    0    0  0.63461932494E+01 -0.16519232183E+01 -0.68231352864E+01  0.94635191242E+01  0.00000000000E+00 0. -1.
</event>
<event>
 7    1  0.2834226E-010  0.4778727E+02  0.7816164E-02  0.1312668E+00
        -11   -1    0    0    0    0  0.00000000000E+00  0.00000000000E+00  0.45593999997E+02  0.45594000000E+02  0.51100000000E-03 0. -1.
         11   -1    0    0    0    0 -0.00000000000E+00 -0.00000000000E+00 -0.45593999997E+02  0.45594000000E+02  0.51100000000E-03 0.  1.
    9900012    2    1    2    0    0  0.27970683210E+02  0.20414070948E+02  0.26163519848E+02  0.47787272094E+02  0.20000004787E+02 0.  0.
        -12    1    1    2    0    0 -0.27970683210E+02 -0.20414070948E+02 -0.26163519848E+02  0.43400727906E+02  0.00000000000E+00 0.  1.
         11    1    3    3    0    0  0.17411199440E+01  0.40047391141E+01  0.10209796931E+02  0.11104476020E+02  0.51100000000E-03 0. -1.
        -11    1    3    3    0    0  0.14865642879E+02  0.47753874750E+01  0.30187377612E+01  0.15902969587E+02  0.51100000000E-03 0.  1.
        -12    1    3    3    0    0  0.11363920386E+02  0.11633944359E+02  0.12934985156E+02  0.20779826488E+02  0.00000000000E+00 0.  1.
</event>
<event>
 7    1  0.2834226E-010  0.4778726E+02  0.7816164E-02  0.1312668E+00
        -11   -1    0    0    0    0  0.00000000000E+00  0.00000000000E+00  0.45593999997E+02  0.45594000000E+02  0.51100000000E-03 0.  1.
         11   -1    0    0    0    0 -0.00000000000E+00 -0.00000000000E+00 -0.45593999997E+02  0.45594000000E+02  0.51100000000E-03 0. -1.
    9900012    2    1    2    0    0 -0.21722500477E+02 -0.16693736712E+02 -0.33661196692E+02  0.47787262275E+02  0.19999960015E+02 0.  0.
        -12    1    1    2    0    0  0.21722500477E+02  0.16693736712E+02  0.33661196692E+02  0.43400737725E+02  0.00000000000E+00 0.  1.
         11    1    3    3    0    0 -0.14808723937E+02 -0.11167971801E+02 -0.30808078257E+02  0.35960528152E+02  0.51100000000E-03 0. -1.
        -11    1    3    3    0    0  0.29284040904E+00 -0.30822305787E+01  0.10566757273E+01  0.32714621654E+01  0.51100000000E-03 0.  1.
         12    1    3    3    0    0 -0.72066169487E+01 -0.24435343322E+01 -0.39097941617E+01  0.85552719574E+01  0.00000000000E+00 0. -1.
</event>
<event>
 7    1  0.2834226E-010  0.4778727E+02  0.7816164E-02  0.1312668E+00
        -11   -1    0    0    0    0  0.00000000000E+00  0.00000000000E+00  0.45593999997E+02  0.45594000000E+02  0.51100000000E-03 0.  1.
         11   -1    0    0    0    0 -0.00000000000E+00 -0.00000000000E+00 -0.45593999997E+02  0.45594000000E+02  0.51100000000E-03 0. -1.
    9900012    2    1    2    0    0  0.37117954699E+02 -0.21438050537E+02 -0.68037601131E+01  0.47787265864E+02  0.19999976381E+02 0.  0.
        -12    1    1    2    0    0 -0.37117954699E+02  0.21438050537E+02  0.68037601131E+01  0.43400734136E+02  0.00000000000E+00 0.  1.
         11    1    3    3    0    0  0.71867486905E+01 -0.89325269059E-01  0.39069219462E+01  0.81805485818E+01  0.51100000000E-03 0. -1.
        -11    1    3    3    0    0  0.29468851997E+02 -0.18025779231E+02 -0.10962045122E+02  0.36242356276E+02  0.51100000000E-03 0.  1.
        -12    1    3    3    0    0  0.46235401145E+00 -0.33229460363E+01  0.25136306259E+00  0.33643610064E+01  0.00000000000E+00 0.  1.
</event>
<event>
 7    1  0.2834226E-010  0.4778727E+02  0.7816164E-02  0.1312668E+00
        -11   -1    0    0    0    0  0.00000000000E+00  0.00000000000E+00  0.45593999997E+02  0.45594000000E+02  0.51100000000E-03 0.  1.
         11   -1    0    0    0    0 -0.00000000000E+00 -0.00000000000E+00 -0.45593999997E+02  0.45594000000E+02  0.51100000000E-03 0. -1.
    9900012    2    1    2    0    0  0.36049127716E+02 -0.82694283265E+01 -0.22709037454E+02  0.47787269177E+02  0.19999991486E+02 0.  0.
        -12    1    1    2    0    0 -0.36049127716E+02  0.82694283265E+01  0.22709037454E+02  0.43400730823E+02  0.00000000000E+00 0.  1.
         11    1    3    3    0    0  0.35260926981E+02 -0.43085841530E+01 -0.16801909554E+02  0.39296323414E+02  0.51100000000E-03 0. -1.
        -11    1    3    3    0    0 -0.16697480613E+01 -0.76572106043E+00 -0.85095622178E+00  0.20244787188E+01  0.51100000000E-03 0.  1.
        -12    1    3    3    0    0  0.24579487957E+01 -0.31951231131E+01 -0.50561716780E+01  0.64664670437E+01  0.00000000000E+00 0.  1.
</event>
<event>
 7    1  0.2834226E-010  0.4778728E+02  0.7816164E-02  0.1312668E+00
        -11   -1    0    0    0    0  0.00000000000E+00  0.00000000000E+00  0.45593999997E+02  0.45594000000E+02  0.51100000000E-03 0. -1.
         11   -1    0    0    0    0 -0.00000000000E+00 -0.00000000000E+00 -0.45593999997E+02  0.45594000000E+02  0.51100000000E-03 0.  1.
    9900012    2    1    2    0    0 -0.42330145323E+02  0.62992168994E+01 -0.72181364358E+01  0.47787276155E+02  0.20000023302E+02 0.  0.
        -12    1    1    2    0    0  0.42330145323E+02 -0.62992168994E+01  0.72181364358E+01  0.43400723845E+02  0.00000000000E+00 0.  1.
         11    1    3    3    0    0 -0.14293111081E+02  0.28334045299E+01  0.52946276707E+01  0.15503363765E+02  0.51100000000E-03 0.  1.
        -11    1    3    3    0    0 -0.85955864353E+01 -0.70114380010E+00  0.30138973137E+00  0.86294000270E+01  0.51100000000E-03 0. -1.
         12    1    3    3    0    0 -0.19441447807E+02  0.41669561696E+01 -0.12814153838E+02  0.23654512363E+02  0.00000000000E+00 0. -1.
</event>
<event>
 7    1  0.2834226E-010  0.4778727E+02  0.7816164E-02  0.1312668E+00
        -11   -1    0    0    0    0  0.00000000000E+00  0.00000000000E+00  0.45593999997E+02  0.45594000000E+02  0.51100000000E-03 0.  1.
         11   -1    0    0    0    0 -0.00000000000E+00 -0.00000000000E+00 -0.45593999997E+02  0.45594000000E+02  0.51100000000E-03 0. -1.
    9900012    2    1    2    0    0 -0.26500687711E+02  0.14162740067E+02 -0.31316986495E+02  0.47787270761E+02  0.19999998708E+02 0.  0.
        -12    1    1    2    0    0  0.26500687711E+02 -0.14162740067E+02  0.31316986495E+02  0.43400729239E+02  0.00000000000E+00 0.  1.
         11    1    3    3    0    0 -0.86768059907E+01  0.23869309718E+01 -0.16027438495E+02  0.18381055101E+02  0.51100000000E-03 0. -1.
        -11    1    3    3    0    0 -0.22727211092E+01  0.85785235871E+01 -0.31371012326E+01  0.94126368558E+01  0.51100000000E-03 0.  1.
        -12    1    3    3    0    0 -0.15551160611E+02  0.31972855083E+01 -0.12152446767E+02  0.19993578804E+02  0.00000000000E+00 0.  1.
</event>
<event>
 7    1  0.2834226E-010  0.4778727E+02  0.7816164E-02  0.1312668E+00
        -11   -1    0    0    0    0  0.00000000000E+00  0.00000000000E+00  0.45593999997E+02  0.45594000000E+02  0.51100000000E-03 0. -1.
         11   -1    0    0    0    0 -0.00000000000E+00 -0.00000000000E+00 -0.45593999997E+02  0.45594000000E+02  0.51100000000E-03 0.  1.
    9900012    2    1    2    0    0 -0.33417193528E+02  0.24650038220E+02  0.12621008925E+02  0.47787273349E+02  0.20000010508E+02 0.  0.
        -12    1    1    2    0    0  0.33417193528E+02 -0.24650038220E+02 -0.12621008925E+02  0.43400726651E+02  0.00000000000E+00 0.  1.
         11    1    3    3    0    0 -0.17004879619E+02  0.15266970267E+02  0.15008878261E+02  0.27340679196E+02  0.51100000000E-03 0. -1.
        -11    1    3    3    0    0 -0.14240919355E+02  0.46350559944E+01 -0.83462024347E+00  0.14999470636E+02  0.51100000000E-03 0.  1.
        -12    1    3    3    0    0 -0.21713945545E+01  0.47480119586E+01 -0.15532490927E+01  0.54471235174E+01  0.00000000000E+00 0.  1.
</event>
<event>
 7    1  0.2834226E-010  0.4778727E+02  0.7816164E-02  0.1312668E+00
        -11   -1    0    0    0    0  0.00000000000E+00  0.00000000000E+00  0.45593999997E+02  0.45594000000E+02  0.51100000000E-03 0.  1.
         11   -1    0    0    0    0 -0.00000000000E+00 -0.00000000000E+00 -0.45593999997E+02  0.45594000000E+02  0.51100000000E-03 0. -1.
    9900012    2    1    2    0    0 -0.39349286158E+02  0.95063201202E+01 -0.15648867956E+02  0.47787268305E+02  0.19999987508E+02 0.  0.
        -12    1    1    2    0    0  0.39349286158E+02 -0.95063201202E+01  0.15648867956E+02  0.43400731695E+02  0.00000000000E+00 0.  1.
         11    1    3    3    0    0 -0.26723302283E+02  0.12330240824E+02 -0.12154370859E+02  0.31841772170E+02  0.51100000000E-03 0. -1.
        -11    1    3    3    0    0 -0.46713967845E+01 -0.36117250714E+01 -0.50882439957E+01  0.77946605526E+01  0.51100000000E-03 0.  1.
        -12    1    3    3    0    0 -0.79545870911E+01  0.78780436779E+00  0.15937468987E+01  0.81508355823E+01  0.00000000000E+00 0.  1.
</event>
<event>
 7    1  0.2834226E-010  0.4778727E+02  0.7816164E-02  0.1312668E+00
        -11   -1    0    0    0    0  0.00000000000E+00  0.00000000000E+00  0.45593999997E+02  0.45594000000E+02  0.51100000000E-03 0.  1.
         11   -1    0    0    0    0 -0.00000000000E+00 -0.00000000000E+00 -0.45593999997E+02  0.45594000000E+02  0.51100000000E-03 0. -1.
    9900012    2    1    2    0    0 -0.79847076062E+01 -0.53706782791E+01 -0.42320482937E+02  0.47787274006E+02  0.20000013504E+02 0.  0.
        -12    1    1    2    0    0  0.79847076062E+01  0.53706782791E+01  0.42320482937E+02  0.43400725994E+02  0.00000000000E+00 0.  1.
         11    1    3    3    0    0 -0.48689366934E+01 -0.10428109658E+02 -0.28980277900E+02  0.31181862084E+02  0.51100000000E-03 0. -1.
        -11    1    3    3    0    0 -0.13517233524E+01  0.34075153945E+00  0.79166519180E+00  0.16031224751E+01  0.51100000000E-03 0.  1.
         12    1    3    3    0    0 -0.17640475604E+01  0.47166798393E+01 -0.14131870229E+02  0.15002289447E+02  0.00000000000E+00 0. -1.
</event>
<event>
 7    1  0.2834226E-010  0.4778727E+02  0.7816164E-02  0.1312668E+00
        -11   -1    0    0    0    0  0.00000000000E+00  0.00000000000E+00  0.45593999997E+02  0.45594000000E+02  0.51100000000E-03 0. -1.
         11   -1    0    0    0    0 -0.00000000000E+00 -0.00000000000E+00 -0.45593999997E+02  0.45594000000E+02  0.51100000000E-03 0.  1.
    9900012    2    1    2    0    0 -0.27375869664E+02 -0.90458583962E+01  0.32440055727E+02  0.47787274090E+02  0.20000013885E+02 0.  0.
        -12    1    1    2    0    0  0.27375869664E+02  0.90458583962E+01 -0.32440055727E+02  0.43400725910E+02  0.00000000000E+00 0.  1.
         11    1    3    3    0    0 -0.87908457869E+01 -0.35375540701E+01  0.10017871611E+02  0.13789525384E+02  0.51100000000E-03 0. -1.
        -11    1    3    3    0    0 -0.59414874758E+01  0.22793538705E+01  0.17062579171E+02  0.18210665439E+02  0.51100000000E-03 0.  1.
        -12    1    3    3    0    0 -0.12643536401E+02 -0.77876581966E+01  0.53596049450E+01  0.15787083267E+02  0.00000000000E+00 0.  1.
</event>
<event>
 7    1  0.2834226E-010  0.4778727E+02  0.7816164E-02  0.1312668E+00
        -11   -1    0    0    0    0  0.00000000000E+00  0.00000000000E+00  0.45593999997E+02  0.45594000000E+02  0.51100000000E-03 0. -1.
         11   -1    0    0    0    0 -0.00000000000E+00 -0.00000000000E+00 -0.45593999997E+02  0.45594000000E+02  0.51100000000E-03 0.  1.
    9900012    2    1    2    0    0  0.37271833791E+02 -0.22152138597E+02  0.19278477380E+01  0.47787269183E+02  0.19999991511E+02 0.  0.
        -12    1    1    2    0    0 -0.37271833791E+02  0.22152138597E+02 -0.19278477380E+01  0.43400730817E+02  0.00000000000E+00 0.  1.
         11    1    3    3    0    0  0.25056298953E+02 -0.15694839434E+02  0.60151256023E+01  0.30171639636E+02  0.51100000000E-03 0. -1.
        -11    1    3    3    0    0  0.61553133289E+01  0.21843578970E+01 -0.22098423713E+01  0.68951218384E+01  0.51100000000E-03 0.  1.
        -12    1    3    3    0    0  0.60602215096E+01 -0.86416570599E+01 -0.18774354931E+01  0.10720507708E+02  0.00000000000E+00 0.  1.
</event>
<event>
 7    1  0.2834226E-010  0.4778725E+02  0.7816164E-02  0.1312668E+00
        -11   -1    0    0    0    0  0.00000000000E+00  0.00000000000E+00  0.45593999997E+02  0.45594000000E+02  0.51100000000E-03 0.  1.
         11   -1    0    0    0    0 -0.00000000000E+00 -0.00000000000E+00 -0.45593999997E+02  0.45594000000E+02  0.51100000000E-03 0. -1.
    9900012    2    1    2    0    0 -0.38195618520E+02 -0.45083098254E+01 -0.20109567184E+02  0.47787253187E+02  0.19999918580E+02 0.  0.
        -12    1    1    2    0    0  0.38195618520E+02  0.45083098254E+01  0.20109567184E+02  0.43400746813E+02  0.00000000000E+00 0.  1.
         11    1    3    3    0    0 -0.11563137014E+02 -0.68018399008E+01 -0.79455049159E+01  0.15591735384E+02  0.51100000000E-03 0. -1.
        -11    1    3    3    0    0 -0.20188349423E+02  0.74488871905E+01 -0.95120828443E+01  0.23527326518E+02  0.51100000000E-03 0.  1.
        -12    1    3    3    0    0 -0.64441320829E+01 -0.51553571152E+01 -0.26519794239E+01  0.86681912849E+01  0.00000000000E+00 0.  1.
</event>
<event>
 7    1  0.2834226E-010  0.4778727E+02  0.7816164E-02  0.1312668E+00
        -11   -1    0    0    0    0  0.00000000000E+00  0.00000000000E+00  0.45593999997E+02  0.45594000000E+02  0.51100000000E-03 0.  1.
         11   -1    0    0    0    0 -0.00000000000E+00 -0.00000000000E+00 -0.45593999997E+02  0.45594000000E+02  0.51100000000E-03 0. -1.
    9900012    2    1    2    0    0  0.34496856724E+01 -0.94996316052E+01 -0.42207581876E+02  0.47787270747E+02  0.19999998645E+02 0.  0.
        -12    1    1    2    0    0 -0.34496856724E+01  0.94996316052E+01  0.42207581876E+02  0.43400729253E+02  0.00000000000E+00 0.  1.
         11    1    3    3    0    0 -0.24068611937E+01 -0.66184783388E+01 -0.89184751346E+01  0.11363821334E+02  0.51100000000E-03 0. -1.
        -11    1    3    3    0    0  0.92463402171E+01  0.98703539036E+00 -0.24941401289E+02  0.26618462480E+02  0.51100000000E-03 0.  1.
        -12    1    3    3    0    0 -0.33897933509E+01 -0.38681886567E+01 -0.83477054523E+01  0.98049869334E+01  0.00000000000E+00 0.  1.
</event>
<event>
 7    1  0.2834226E-010  0.4778727E+02  0.7816164E-02  0.1312668E+00
        -11   -1    0    0    0    0  0.00000000000E+00  0.00000000000E+00  0.45593999997E+02  0.45594000000E+02  0.51100000000E-03 0.  1.
         11   -1    0    0    0    0 -0.00000000000E+00 -0.00000000000E+00 -0.45593999997E+02  0.45594000000E+02  0.51100000000E-03 0. -1.
    9900012    2    1    2    0    0 -0.29611804308E+02  0.22937454858E+02 -0.21923445007E+02  0.47787271541E+02  0.20000002264E+02 0.  0.
        -12    1    1    2    0    0  0.29611804308E+02 -0.22937454858E+02  0.21923445007E+02  0.43400728459E+02  0.00000000000E+00 0.  1.
         11    1    3    3    0    0 -0.54009813664E+01  0.14358393626E+02 -0.46677353669E+01  0.16035018583E+02  0.51100000000E-03 0. -1.
        -11    1    3    3    0    0 -0.32124516885E+01 -0.12750797715E+01 -0.23804142988E+01  0.41966709151E+01  0.51100000000E-03 0.  1.
         12    1    3    3    0    0 -0.20998371254E+02  0.98541410041E+01 -0.14875295342E+02  0.27555582043E+02  0.00000000000E+00 0. -1.
</event>
<event>
 7    1  0.2834226E-010  0.4778727E+02  0.7816164E-02  0.1312668E+00
        -11   -1    0    0    0    0  0.00000000000E+00  0.00000000000E+00  0.45593999997E+02  0.45594000000E+02  0.51100000000E-03 0.  1.
         11   -1    0    0    0    0 -0.00000000000E+00 -0.00000000000E+00 -0.45593999997E+02  0.45594000000E+02  0.51100000000E-03 0. -1.
    9900012    2    1    2    0    0  0.64828547404E+01  0.38430491467E+02 -0.19096949269E+02  0.47787267848E+02  0.19999985426E+02 0.  0.
        -12    1    1    2    0    0 -0.64828547404E+01 -0.38430491467E+02  0.19096949269E+02  0.43400732152E+02  0.00000000000E+00 0.  1.
         11    1    3    3    0    0  0.43404136547E+01  0.31367390662E+02 -0.87144546176E+01  0.32843478914E+02  0.51100000000E-03 0. -1.
        -11    1    3    3    0    0  0.47160546818E+01  0.65712265072E+01 -0.72719735007E+01  0.10876754499E+02  0.51100000000E-03 0.  1.
         12    1    3    3    0    0 -0.25736135961E+01  0.49187429728E+00 -0.31105211506E+01  0.40670344349E+01  0.00000000000E+00 0. -1.
</event>
<event>
 7    1  0.2834226E-010  0.4778727E+02  0.7816164E-02  0.1312668E+00
        -11   -1    0    0    0    0  0.00000000000E+00  0.00000000000E+00  0.45593999997E+02  0.45594000000E+02  0.51100000000E-03 0.  1.
         11   -1    0    0    0    0 -0.00000000000E+00 -0.00000000000E+00 -0.45593999997E+02  0.45594000000E+02  0.51100000000E-03 0. -1.
    9900012    2    1    2    0    0 -0.25814623964E+02 -0.29379502513E+02 -0.18816835719E+02  0.47787270919E+02  0.19999999427E+02 0.  0.
        -12    1    1    2    0    0  0.25814623964E+02  0.29379502513E+02  0.18816835719E+02  0.43400729081E+02  0.00000000000E+00 0.  1.
         11    1    3    3    0    0 -0.84756553524E+01 -0.16818212889E+02 -0.89088145149E+01  0.20834010530E+02  0.51100000000E-03 0. -1.
        -11    1    3    3    0    0 -0.11105853904E+02 -0.96194427361E+00 -0.13039009163E+01  0.11223434661E+02  0.51100000000E-03 0.  1.
        -12    1    3    3    0    0 -0.62331147076E+01 -0.11599345350E+02 -0.86041202876E+01  0.15729825728E+02  0.00000000000E+00 0.  1.
</event>
<event>
 7    1  0.2834226E-010  0.4778727E+02  0.7816164E-02  0.1312668E+00
        -11   -1    0    0    0    0  0.00000000000E+00  0.00000000000E+00  0.45593999997E+02  0.45594000000E+02  0.51100000000E-03 0.  1.
         11   -1    0    0    0    0 -0.00000000000E+00 -0.00000000000E+00 -0.45593999997E+02  0.45594000000E+02  0.51100000000E-03 0. -1.
    9900012    2    1    2    0    0 -0.14388112175E+02 -0.76851437504E+01 -0.40218700636E+02  0.47787273194E+02  0.20000009801E+02 0.  0.
        -12    1    1    2    0    0  0.14388112175E+02  0.76851437504E+01  0.40218700636E+02  0.43400726806E+02  0.00000000000E+00 0.  1.
         11    1    3    3    0    0 -0.75926702273E+01 -0.10838611766E+02 -0.34214606351E+02  0.36684648481E+02  0.51100000000E-03 0. -1.
        -11    1    3    3    0    0 -0.39266845542E+01  0.32202563376E+01 -0.64387146562E+01  0.82003627452E+01  0.51100000000E-03 0.  1.
         12    1    3    3    0    0 -0.28687573933E+01 -0.66788322203E-01  0.43462037071E+00  0.29022619675E+01  0.00000000000E+00 0. -1.
</event>
<event>
 7    1  0.2834226E-010  0.4778727E+02  0.7816164E-02  0.1312668E+00
        -11   -1    0    0    0    0  0.00000000000E+00  0.00000000000E+00  0.45593999997E+02  0.45594000000E+02  0.51100000000E-03 0.  1.
         11   -1    0    0    0    0 -0.00000000000E+00 -0.00000000000E+00 -0.45593999997E+02  0.45594000000E+02  0.51100000000E-03 0. -1.
    9900012    2    1    2    0    0  0.29587397914E+02 -0.16950877252E+02 -0.26849154144E+02  0.47787269209E+02  0.19999991633E+02 0.  0.
        -12    1    1    2    0    0 -0.29587397914E+02  0.16950877252E+02  0.26849154144E+02  0.43400730791E+02  0.00000000000E+00 0.  1.
         11    1    3    3    0    0  0.15911354811E+02 -0.14750312427E+02 -0.10862430403E+02  0.24263868676E+02  0.51100000000E-03 0. -1.
        -11    1    3    3    0    0  0.43546717842E+01  0.22456646136E+01 -0.11027393110E+02  0.12066879256E+02  0.51100000000E-03 0.  1.
        -12    1    3    3    0    0  0.93213713183E+01 -0.44462294385E+01 -0.49593306313E+01  0.11456521278E+02  0.00000000000E+00 0.  1.
</event>
<event>
 7    1  0.2834226E-010  0.4778727E+02  0.7816164E-02  0.1312668E+00
        -11   -1    0    0    0    0  0.00000000000E+00  0.00000000000E+00  0.45593999997E+02  0.45594000000E+02  0.51100000000E-03 0.  1.
         11   -1    0    0    0    0 -0.00000000000E+00 -0.00000000000E+00 -0.45593999997E+02  0.45594000000E+02  0.51100000000E-03 0. -1.
    9900012    2    1    2    0    0 -0.29855244798E+01  0.41470855747E+02 -0.12444993738E+02  0.47787273025E+02  0.20000009030E+02 0.  0.
        -12    1    1    2    0    0  0.29855244798E+01 -0.41470855747E+02  0.12444993738E+02  0.43400726975E+02  0.00000000000E+00 0.  1.
         11    1    3    3    0    0 -0.57821538081E+01  0.19053544568E+02 -0.97898652135E+01  0.22188112232E+02  0.51100000000E-03 0. -1.
        -11    1    3    3    0    0  0.42087927052E+01  0.22690079239E+01  0.14335728129E+01  0.49917396031E+01  0.51100000000E-03 0.  1.
        -12    1    3    3    0    0 -0.14121633768E+01  0.20148303256E+02 -0.40887013377E+01  0.20607421190E+02  0.00000000000E+00 0.  1.
</event>
<event>
 7    1  0.2834226E-010  0.4778727E+02  0.7816164E-02  0.1312668E+00
        -11   -1    0    0    0    0  0.00000000000E+00  0.00000000000E+00  0.45593999997E+02  0.45594000000E+02  0.51100000000E-03 0.  1.
         11   -1    0    0    0    0 -0.00000000000E+00 -0.00000000000E+00 -0.45593999997E+02  0.45594000000E+02  0.51100000000E-03 0. -1.
    9900012    2    1    2    0    0  0.25039363842E+02  0.25382925053E+02 -0.24745916987E+02  0.47787273815E+02  0.20000012631E+02 0.  0.
        -12    1    1    2    0    0 -0.25039363842E+02 -0.25382925053E+02  0.24745916987E+02  0.43400726185E+02  0.00000000000E+00 0.  1.
         11    1    3    3    0    0  0.14790441562E+01  0.10602123567E+01 -0.75584721739E+01  0.77744532748E+01  0.51100000000E-03 0. -1.
        -11    1    3    3    0    0  0.10181307621E+02  0.14709858617E+02 -0.27348398626E+01  0.18097467081E+02  0.51100000000E-03 0.  1.
         12    1    3    3    0    0  0.13379012065E+02  0.96128540790E+01 -0.14452604951E+02  0.21915353459E+02  0.00000000000E+00 0. -1.
</event>
<event>
 7    1  0.2834226E-010  0.4778727E+02  0.7816164E-02  0.1312668E+00
        -11   -1    0    0    0    0  0.00000000000E+00  0.00000000000E+00  0.45593999997E+02  0.45594000000E+02  0.51100000000E-03 0.  1.
         11   -1    0    0    0    0 -0.00000000000E+00 -0.00000000000E+00 -0.45593999997E+02  0.45594000000E+02  0.51100000000E-03 0. -1.
    9900012    2    1    2    0    0  0.34775870982E+02 -0.22326299841E+02 -0.13258892441E+02  0.47787273095E+02  0.20000009349E+02 0.  0.
        -12    1    1    2    0    0 -0.34775870982E+02  0.22326299841E+02  0.13258892441E+02  0.43400726905E+02  0.00000000000E+00 0.  1.
         11    1    3    3    0    0  0.16017801490E+01  0.34456167980E+00  0.29786358453E+01  0.33995138119E+01  0.51100000000E-03 0.  1.
        -11    1    3    3    0    0  0.33471412440E+02 -0.22328831264E+02 -0.14784991391E+02  0.42866165294E+02  0.51100000000E-03 0. -1.
        -12    1    3    3    0    0 -0.29732160736E+00 -0.34203025715E+00 -0.14525368951E+01  0.15215939888E+01  0.00000000000E+00 0.  1.
</event>
<event>
 7    1  0.2834226E-010  0.4778726E+02  0.7816164E-02  0.1312668E+00
        -11   -1    0    0    0    0  0.00000000000E+00  0.00000000000E+00  0.45593999997E+02  0.45594000000E+02  0.51100000000E-03 0.  1.
         11   -1    0    0    0    0 -0.00000000000E+00 -0.00000000000E+00 -0.45593999997E+02  0.45594000000E+02  0.51100000000E-03 0. -1.
    9900012    2    1    2    0    0  0.21021130464E+02  0.16655903132E+02 -0.34122086562E+02  0.47787264678E+02  0.19999970974E+02 0.  0.
        -12    1    1    2    0    0 -0.21021130464E+02 -0.16655903132E+02  0.34122086562E+02  0.43400735322E+02  0.00000000000E+00 0.  1.
         11    1    3    3    0    0  0.11259011429E+02  0.12044457155E+02 -0.18855071642E+02  0.25046916245E+02  0.51100000000E-03 0. -1.
        -11    1    3    3    0    0  0.78908133557E+01 -0.23082410206E+01 -0.34433310920E+01  0.89134416077E+01  0.51100000000E-03 0.  1.
         12    1    3    3    0    0  0.18713056796E+01  0.69196869981E+01 -0.11823683828E+02  0.13826906826E+02  0.00000000000E+00 0. -1.
</event>
<event>
 7    1  0.2834226E-010  0.4778728E+02  0.7816164E-02  0.1312668E+00
        -11   -1    0    0    0    0  0.00000000000E+00  0.00000000000E+00  0.45593999997E+02  0.45594000000E+02  0.51100000000E-03 0.  1.
         11   -1    0    0    0    0 -0.00000000000E+00 -0.00000000000E+00 -0.45593999997E+02  0.45594000000E+02  0.51100000000E-03 0. -1.
    9900012    2    1    2    0    0  0.11340861155E+02 -0.25583160385E+02 -0.33173922840E+02  0.47787281301E+02  0.20000046763E+02 0.  0.
        -12    1    1    2    0    0 -0.11340861155E+02  0.25583160385E+02  0.33173922840E+02  0.43400718699E+02  0.00000000000E+00 0.  1.
         11    1    3    3    0    0  0.81385134656E+00 -0.79168792137E+01 -0.17326922022E+02  0.19067290251E+02  0.51100000000E-03 0. -1.
        -11    1    3    3    0    0  0.12932767357E+02 -0.12480676448E+02 -0.10110481303E+02  0.20621483664E+02  0.51100000000E-03 0.  1.
        -12    1    3    3    0    0 -0.24057575477E+01 -0.51856047235E+01 -0.57365195154E+01  0.80985073858E+01  0.00000000000E+00 0.  1.
</event>
<event>
 7    1  0.2834226E-010  0.4778727E+02  0.7816164E-02  0.1312668E+00
        -11   -1    0    0    0    0  0.00000000000E+00  0.00000000000E+00  0.45593999997E+02  0.45594000000E+02  0.51100000000E-03 0.  1.
         11   -1    0    0    0    0 -0.00000000000E+00 -0.00000000000E+00 -0.45593999997E+02  0.45594000000E+02  0.51100000000E-03 0. -1.
    9900012    2    1    2    0    0 -0.13475596779E+01  0.19379919448E+02 -0.38810129415E+02  0.47787270281E+02  0.19999996519E+02 0.  0.
        -12    1    1    2    0    0  0.13475596779E+01 -0.19379919448E+02  0.38810129415E+02  0.43400729719E+02  0.00000000000E+00 0.  1.
         11    1    3    3    0    0  0.82559243895E+01  0.80041089394E+01 -0.13530412406E+02  0.17756635593E+02  0.51100000000E-03 0. -1.
        -11    1    3    3    0    0 -0.65172472663E+01  0.11307483334E+02 -0.19258608420E+02  0.23264300759E+02  0.51100000000E-03 0.  1.
         12    1    3    3    0    0 -0.30862368010E+01  0.68327175159E-01 -0.60211085896E+01  0.67663339292E+01  0.00000000000E+00 0. -1.
</event>
<event>
 7    1  0.2834226E-010  0.4778726E+02  0.7816164E-02  0.1312668E+00
        -11   -1    0    0    0    0  0.00000000000E+00  0.00000000000E+00  0.45593999997E+02  0.45594000000E+02  0.51100000000E-03 0. -1.
         11   -1    0    0    0    0 -0.00000000000E+00 -0.00000000000E+00 -0.45593999997E+02  0.45594000000E+02  0.51100000000E-03 0.  1.
    9900012    2    1    2    0    0  0.15389728825E+02 -0.36935031337E+02  0.16810237079E+02  0.47787258488E+02  0.19999942748E+02 0.  0.
        -12    1    1    2    0    0 -0.15389728825E+02  0.36935031337E+02 -0.16810237079E+02  0.43400741512E+02  0.00000000000E+00 0.  1.
         11    1    3    3    0    0  0.97458387850E+01 -0.34129151879E+02  0.15594539579E+02  0.38768157636E+02  0.51100000000E-03 0. -1.
        -11    1    3    3    0    0  0.59072798606E+01 -0.24767915004E+01  0.30801562424E+01  0.71075884959E+01  0.51100000000E-03 0.  1.
         12    1    3    3    0    0 -0.26338982104E+00 -0.32908795829E+00 -0.18644587425E+01  0.19115123553E+01  0.00000000000E+00 0. -1.
</event>
<event>
 7    1  0.2834226E-010  0.4778728E+02  0.7816164E-02  0.1312668E+00
        -11   -1    0    0    0    0  0.00000000000E+00  0.00000000000E+00  0.45593999997E+02  0.45594000000E+02  0.51100000000E-03 0.  1.
         11   -1    0    0    0    0 -0.00000000000E+00 -0.00000000000E+00 -0.45593999997E+02  0.45594000000E+02  0.51100000000E-03 0. -1.
    9900012    2    1    2    0    0  0.24529358972E+02  0.20860244214E+00 -0.35803488924E+02  0.47787276668E+02  0.20000025640E+02 0.  0.
        -12    1    1    2    0    0 -0.24529358972E+02 -0.20860244214E+00  0.35803488924E+02  0.43400723332E+02  0.00000000000E+00 0.  1.
         11    1    3    3    0    0  0.69718505680E+01 -0.57683679123E+01 -0.18416571407E+02  0.20519524151E+02  0.51100000000E-03 0. -1.
        -11    1    3    3    0    0  0.37300634436E+01  0.19166060866E+01  0.58185633453E+00  0.42338291462E+01  0.51100000000E-03 0.  1.
         12    1    3    3    0    0  0.13827444961E+02  0.40603642678E+01 -0.17968773852E+02  0.23033923371E+02  0.00000000000E+00 0. -1.
</event>
<event>
 7    1  0.2834226E-010  0.4778724E+02  0.7816164E-02  0.1312668E+00
        -11   -1    0    0    0    0  0.00000000000E+00  0.00000000000E+00  0.45593999997E+02  0.45594000000E+02  0.51100000000E-03 0.  1.
         11   -1    0    0    0    0 -0.00000000000E+00 -0.00000000000E+00 -0.45593999997E+02  0.45594000000E+02  0.51100000000E-03 0. -1.
    9900012    2    1    2    0    0 -0.47653831802E+01  0.11729210892E+02 -0.41513166904E+02  0.47787236280E+02  0.19999841496E+02 0.  0.
        -12    1    1    2    0    0  0.47653831802E+01 -0.11729210892E+02  0.41513166904E+02  0.43400763720E+02  0.00000000000E+00 0.  1.
         11    1    3    3    0    0 -0.72287839231E+01  0.44195581406E+01 -0.11436099036E+02  0.14232785131E+02  0.51100000000E-03 0. -1.
        -11    1    3    3    0    0  0.41470026454E+01 -0.23624084634E+01 -0.69613716426E+01  0.84403376767E+01  0.51100000000E-03 0.  1.
        -12    1    3    3    0    0 -0.16836019025E+01  0.96720612149E+01 -0.23115696226E+02  0.25114113473E+02  0.00000000000E+00 0.  1.
</event>
<event>
 7    1  0.2834226E-010  0.4778727E+02  0.7816164E-02  0.1312668E+00
        -11   -1    0    0    0    0  0.00000000000E+00  0.00000000000E+00  0.45593999997E+02  0.45594000000E+02  0.51100000000E-03 0. -1.
         11   -1    0    0    0    0 -0.00000000000E+00 -0.00000000000E+00 -0.45593999997E+02  0.45594000000E+02  0.51100000000E-03 0.  1.
    9900012    2    1    2    0    0  0.29313950852E+02 -0.36320338050E+00 -0.32002864441E+02  0.47787274618E+02  0.20000016295E+02 0.  0.
        -12    1    1    2    0    0 -0.29313950852E+02  0.36320338050E+00  0.32002864441E+02  0.43400725382E+02  0.00000000000E+00 0.  1.
         11    1    3    3    0    0  0.32180088316E+01  0.49814154757E+00  0.17809523938E+01  0.37115384319E+01  0.51100000000E-03 0. -1.
        -11    1    3    3    0    0  0.13969496122E+02  0.43419440233E+01 -0.21782220994E+02  0.26238606127E+02  0.51100000000E-03 0.  1.
         12    1    3    3    0    0  0.12126445898E+02 -0.52032889514E+01 -0.12001595840E+02  0.17837130059E+02  0.00000000000E+00 0. -1.
</event>
<event>
 7    1  0.2834226E-010  0.4778727E+02  0.7816164E-02  0.1312668E+00
        -11   -1    0    0    0    0  0.00000000000E+00  0.00000000000E+00  0.45593999997E+02  0.45594000000E+02  0.51100000000E-03 0.  1.
         11   -1    0    0    0    0 -0.00000000000E+00 -0.00000000000E+00 -0.45593999997E+02  0.45594000000E+02  0.51100000000E-03 0. -1.
    9900012    2    1    2    0    0 -0.24498401890E+02 -0.84058194715E+01 -0.34825185666E+02  0.47787273591E+02  0.20000011611E+02 0.  0.
        -12    1    1    2    0    0  0.24498401890E+02  0.84058194715E+01  0.34825185666E+02  0.43400726409E+02  0.00000000000E+00 0.  1.
         11    1    3    3    0    0 -0.13261787105E+02 -0.10997305011E+02 -0.15544516859E+02  0.23204476278E+02  0.51100000000E-03 0. -1.
        -11    1    3    3    0    0 -0.41801391076E+01  0.48496917931E+01 -0.38639991205E+01  0.74782058618E+01  0.51100000000E-03 0.  1.
        -12    1    3    3    0    0 -0.70564756774E+01 -0.22582062540E+01 -0.15416669687E+02  0.17104591451E+02  0.00000000000E+00 0.  1.
</event>
<event>
 7    1  0.2834226E-010  0.4778727E+02  0.7816164E-02  0.1312668E+00
        -11   -1    0    0    0    0  0.00000000000E+00  0.00000000000E+00  0.45593999997E+02  0.45594000000E+02  0.51100000000E-03 0.  1.
         11   -1    0    0    0    0 -0.00000000000E+00 -0.00000000000E+00 -0.45593999997E+02  0.45594000000E+02  0.51100000000E-03 0. -1.
    9900012    2    1    2    0    0  0.30753687809E+02  0.22941947003E+02 -0.20285487494E+02  0.47787271331E+02  0.20000001307E+02 0.  0.
        -12    1    1    2    0    0 -0.30753687809E+02 -0.22941947003E+02  0.20285487494E+02  0.43400728669E+02  0.00000000000E+00 0.  1.
         11    1    3    3    0    0  0.22600547765E+02  0.16557633213E+02 -0.22334724413E+02  0.35829874292E+02  0.51100000000E-03 0. -1.
        -11    1    3    3    0    0  0.80535968767E+01  0.37170226728E+01  0.25766185021E+01  0.92366467600E+01  0.51100000000E-03 0.  1.
         12    1    3    3    0    0  0.99543166644E-01  0.26672911176E+01 -0.52738158243E+00  0.27207502791E+01  0.00000000000E+00 0. -1.
</event>
<event>
 7    1  0.2834226E-010  0.4778727E+02  0.7816164E-02  0.1312668E+00
        -11   -1    0    0    0    0  0.00000000000E+00  0.00000000000E+00  0.45593999997E+02  0.45594000000E+02  0.51100000000E-03 0. -1.
         11   -1    0    0    0    0 -0.00000000000E+00 -0.00000000000E+00 -0.45593999997E+02  0.45594000000E+02  0.51100000000E-03 0.  1.
    9900012    2    1    2    0    0  0.36063583476E+02  0.18278609810E+02  0.15777626421E+02  0.47787272757E+02  0.20000007808E+02 0.  0.
        -12    1    1    2    0    0 -0.36063583476E+02 -0.18278609810E+02 -0.15777626421E+02  0.43400727243E+02  0.00000000000E+00 0.  1.
         11    1    3    3    0    0  0.40218409882E+01  0.32843063973E+01 -0.30785571721E+01  0.60365046151E+01  0.51100000000E-03 0. -1.
        -11    1    3    3    0    0 -0.71545433735E+00 -0.53990425868E+00  0.22205825657E-01  0.89658511988E+00  0.51100000000E-03 0.  1.
         12    1    3    3    0    0  0.32757196825E+02  0.15534207672E+02  0.18833977767E+02  0.40854183022E+02  0.00000000000E+00 0. -1.
</event>
<event>
 7    1  0.2834226E-010  0.4778727E+02  0.7816164E-02  0.1312668E+00
        -11   -1    0    0    0    0  0.00000000000E+00  0.00000000000E+00  0.45593999997E+02  0.45594000000E+02  0.51100000000E-03 0. -1.
         11   -1    0    0    0    0 -0.00000000000E+00 -0.00000000000E+00 -0.45593999997E+02  0.45594000000E+02  0.51100000000E-03 0.  1.
    9900012    2    1    2    0    0 -0.34870303801E+02 -0.25580032364E+02  0.36533378947E+01  0.47787273961E+02  0.20000013298E+02 0.  0.
        -12    1    1    2    0    0  0.34870303801E+02  0.25580032364E+02 -0.36533378947E+01  0.43400726039E+02  0.00000000000E+00 0.  1.
         11    1    3    3    0    0  0.64519289240E+00  0.69116034673E+00 -0.27578228113E+01  0.29154010724E+01  0.51100000000E-03 0.  1.
        -11    1    3    3    0    0 -0.29885680229E+02 -0.19996290633E+02  0.57563919974E+01  0.36416226753E+02  0.51100000000E-03 0. -1.
        -12    1    3    3    0    0 -0.56298164643E+01 -0.62749020777E+01  0.65476870856E+00  0.84556461355E+01  0.00000000000E+00 0.  1.
</event>
<event>
 7    1  0.2834226E-010  0.4778726E+02  0.7816164E-02  0.1312668E+00
        -11   -1    0    0    0    0  0.00000000000E+00  0.00000000000E+00  0.45593999997E+02  0.45594000000E+02  0.51100000000E-03 0.  1.
         11   -1    0    0    0    0 -0.00000000000E+00 -0.00000000000E+00 -0.45593999997E+02  0.45594000000E+02  0.51100000000E-03 0. -1.
    9900012    2    1    2    0    0 -0.35040916183E+02  0.25520925039E+02  0.21074034480E+01  0.47787256100E+02  0.19999931862E+02 0.  0.
        -12    1    1    2    0    0  0.35040916183E+02 -0.25520925039E+02 -0.21074034480E+01  0.43400743900E+02  0.00000000000E+00 0.  1.
         11    1    3    3    0    0 -0.17997337847E+02  0.13314735862E+02  0.79607070539E+01  0.23760454913E+02  0.51100000000E-03 0. -1.
        -11    1    3    3    0    0 -0.13078504954E+02  0.97710029726E+01 -0.87731235170E+01  0.18533415428E+02  0.51100000000E-03 0.  1.
        -12    1    3    3    0    0 -0.39650733821E+01  0.24351862050E+01  0.29198199111E+01  0.54933857585E+01  0.00000000000E+00 0.  1.
</event>
<event>
 7    1  0.2834226E-010  0.4778727E+02  0.7816164E-02  0.1312668E+00
        -11   -1    0    0    0    0  0.00000000000E+00  0.00000000000E+00  0.45593999997E+02  0.45594000000E+02  0.51100000000E-03 0.  1.
         11   -1    0    0    0    0 -0.00000000000E+00 -0.00000000000E+00 -0.45593999997E+02  0.45594000000E+02  0.51100000000E-03 0. -1.
    9900012    2    1    2    0    0  0.38332950771E+02  0.71483423656E+01 -0.19055429760E+02  0.47787270551E+02  0.19999997748E+02 0.  0.
        -12    1    1    2    0    0 -0.38332950771E+02 -0.71483423656E+01  0.19055429760E+02  0.43400729449E+02  0.00000000000E+00 0.  1.
         11    1    3    3    0    0  0.33633288711E+02  0.66125060723E+01 -0.14401197623E+02  0.37179535222E+02  0.51100000000E-03 0. -1.
        -11    1    3    3    0    0  0.10235178026E+01  0.34078783680E+01 -0.47582090275E+01  0.59415298597E+01  0.51100000000E-03 0.  1.
         12    1    3    3    0    0  0.36761442580E+01 -0.28720420747E+01  0.10397689112E+00  0.46662054690E+01  0.00000000000E+00 0. -1.
</event>
<event>
 7    1  0.2834226E-010  0.4778727E+02  0.7816164E-02  0.1312668E+00
        -11   -1    0    0    0    0  0.00000000000E+00  0.00000000000E+00  0.45593999997E+02  0.45594000000E+02  0.51100000000E-03 0.  1.
         11   -1    0    0    0    0 -0.00000000000E+00 -0.00000000000E+00 -0.45593999997E+02  0.45594000000E+02  0.51100000000E-03 0. -1.
    9900012    2    1    2    0    0  0.29356847185E+02  0.25474291005E+02 -0.19309564723E+02  0.47787271104E+02  0.20000000272E+02 0.  0.
        -12    1    1    2    0    0 -0.29356847185E+02 -0.25474291005E+02  0.19309564723E+02  0.43400728896E+02  0.00000000000E+00 0.  1.
         11    1    3    3    0    0  0.16725757059E+02  0.13903896128E+02 -0.18430449796E+02  0.28508783851E+02  0.51100000000E-03 0. -1.
        -11    1    3    3    0    0  0.38727041681E+00  0.41850926571E+01 -0.24966011831E+01  0.48885577273E+01  0.51100000000E-03 0.  1.
         12    1    3    3    0    0  0.12243819710E+02  0.73853022206E+01  0.16174862555E+01  0.14389929526E+02  0.00000000000E+00 0. -1.
</event>
<event>
 7    1  0.2834226E-010  0.4778728E+02  0.7816164E-02  0.1312668E+00
        -11   -1    0    0    0    0  0.00000000000E+00  0.00000000000E+00  0.45593999997E+02  0.45594000000E+02  0.51100000000E-03 0. -1.
         11   -1    0    0    0    0 -0.00000000000E+00 -0.00000000000E+00 -0.45593999997E+02  0.45594000000E+02  0.51100000000E-03 0.  1.
    9900012    2    1    2    0    0 -0.69343290999E+01  0.41086613922E+02 -0.12141993507E+02  0.47787276850E+02  0.20000026470E+02 0.  0.
        -12    1    1    2    0    0  0.69343290999E+01 -0.41086613922E+02  0.12141993507E+02  0.43400723150E+02  0.00000000000E+00 0.  1.
         11    1    3    3    0    0  0.42825895332E+01  0.22489015475E+02 -0.19666685037E+01  0.22977471040E+02  0.51100000000E-03 0. -1.
        -11    1    3    3    0    0 -0.74127253774E+01  0.16800603017E+02 -0.89471062792E+01  0.20426930026E+02  0.51100000000E-03 0.  1.
         12    1    3    3    0    0 -0.38041932557E+01  0.17969954297E+01 -0.12282187241E+01  0.43828757837E+01  0.00000000000E+00 0. -1.
</event>
<event>
 7    1  0.2834226E-010  0.4778727E+02  0.7816164E-02  0.1312668E+00
        -11   -1    0    0    0    0  0.00000000000E+00  0.00000000000E+00  0.45593999997E+02  0.45594000000E+02  0.51100000000E-03 0. -1.
         11   -1    0    0    0    0 -0.00000000000E+00 -0.00000000000E+00 -0.45593999997E+02  0.45594000000E+02  0.51100000000E-03 0.  1.
    9900012    2    1    2    0    0  0.39320887713E+02 -0.58431837694E+01  0.17416892595E+02  0.47787272417E+02  0.20000006256E+02 0.  0.
        -12    1    1    2    0    0 -0.39320887713E+02  0.58431837694E+01 -0.17416892595E+02  0.43400727583E+02  0.00000000000E+00 0.  1.
         11    1    3    3    0    0  0.14890566074E+02  0.16863475084E+01  0.14400025311E+01  0.15054777762E+02  0.51100000000E-03 0.  1.
        -11    1    3    3    0    0  0.25214747923E+02 -0.48155104942E+01  0.13658900502E+02  0.29078139853E+02  0.51100000000E-03 0. -1.
        -12    1    3    3    0    0 -0.78442628312E+00 -0.27140207837E+01  0.23179895621E+01  0.36543548018E+01  0.00000000000E+00 0.  1.
</event>
<event>
 7    1  0.2834226E-010  0.4778727E+02  0.7816164E-02  0.1312668E+00
        -11   -1    0    0    0    0  0.00000000000E+00  0.00000000000E+00  0.45593999997E+02  0.45594000000E+02  0.51100000000E-03 0. -1.
         11   -1    0    0    0    0 -0.00000000000E+00 -0.00000000000E+00 -0.45593999997E+02  0.45594000000E+02  0.51100000000E-03 0.  1.
    9900012    2    1    2    0    0 -0.44410982349E+01 -0.10197873014E+01  0.43160860491E+02  0.47787271919E+02  0.20000003986E+02 0.  0.
        -12    1    1    2    0    0  0.44410982349E+01  0.10197873014E+01 -0.43160860491E+02  0.43400728081E+02  0.00000000000E+00 0.  1.
         11    1    3    3    0    0  0.40948344251E+01 -0.49594901053E+01  0.22755874544E+02  0.23647283937E+02  0.51100000000E-03 0. -1.
        -11    1    3    3    0    0 -0.96780920591E+01  0.45432857126E+01  0.20167946278E+02  0.22826584683E+02  0.51100000000E-03 0.  1.
        -12    1    3    3    0    0  0.11421593992E+01 -0.60358290865E+00  0.23703966943E+00  0.13134032989E+01  0.00000000000E+00 0.  1.
</event>
<event>
 7    1  0.2834226E-010  0.4778727E+02  0.7816164E-02  0.1312668E+00
        -11   -1    0    0    0    0  0.00000000000E+00  0.00000000000E+00  0.45593999997E+02  0.45594000000E+02  0.51100000000E-03 0.  1.
         11   -1    0    0    0    0 -0.00000000000E+00 -0.00000000000E+00 -0.45593999997E+02  0.45594000000E+02  0.51100000000E-03 0. -1.
    9900012    2    1    2    0    0 -0.24815751596E+02  0.11075968563E+02 -0.33839690843E+02  0.47787270936E+02  0.19999999507E+02 0.  0.
        -12    1    1    2    0    0  0.24815751596E+02 -0.11075968563E+02  0.33839690843E+02  0.43400729064E+02  0.00000000000E+00 0.  1.
         11    1    3    3    0    0 -0.13970096924E+02  0.37804728219E+01 -0.56456849282E+01  0.15534778447E+02  0.51100000000E-03 0. -1.
        -11    1    3    3    0    0 -0.31533256902E+01  0.73198605281E+01 -0.14268620600E+02  0.16343725253E+02  0.51100000000E-03 0.  1.
        -12    1    3    3    0    0 -0.76923289819E+01 -0.24364787218E-01 -0.13925385315E+02  0.15908767236E+02  0.00000000000E+00 0.  1.
</event>
<event>
 7    1  0.2834226E-010  0.4778727E+02  0.7816164E-02  0.1312668E+00
        -11   -1    0    0    0    0  0.00000000000E+00  0.00000000000E+00  0.45593999997E+02  0.45594000000E+02  0.51100000000E-03 0.  1.
         11   -1    0    0    0    0 -0.00000000000E+00 -0.00000000000E+00 -0.45593999997E+02  0.45594000000E+02  0.51100000000E-03 0. -1.
    9900012    2    1    2    0    0 -0.40891030560E+02  0.14096469884E+02  0.35828164773E+01  0.47787269391E+02  0.19999992463E+02 0.  0.
        -12    1    1    2    0    0  0.40891030560E+02 -0.14096469884E+02 -0.35828164773E+01  0.43400730609E+02  0.00000000000E+00 0.  1.
         11    1    3    3    0    0 -0.23369462685E+02  0.21504872198E+01  0.11488012490E+01  0.23496300263E+02  0.51100000000E-03 0. -1.
        -11    1    3    3    0    0 -0.84227169702E+01  0.64543829749E+01  0.70124125617E+01  0.12719086089E+02  0.51100000000E-03 0.  1.
        -12    1    3    3    0    0 -0.90988509043E+01  0.54915996893E+01 -0.45783973334E+01  0.11571883039E+02  0.00000000000E+00 0.  1.
</event>
<event>
 7    1  0.2834226E-010  0.4778728E+02  0.7816164E-02  0.1312668E+00
        -11   -1    0    0    0    0  0.00000000000E+00  0.00000000000E+00  0.45593999997E+02  0.45594000000E+02  0.51100000000E-03 0.  1.
         11   -1    0    0    0    0 -0.00000000000E+00 -0.00000000000E+00 -0.45593999997E+02  0.45594000000E+02  0.51100000000E-03 0. -1.
    9900012    2    1    2    0    0  0.24008128908E+01  0.58610821527E+01 -0.42936076575E+02  0.47787275833E+02  0.20000021832E+02 0.  0.
        -12    1    1    2    0    0 -0.24008128908E+01 -0.58610821527E+01  0.42936076575E+02  0.43400724167E+02  0.00000000000E+00 0.  1.
         11    1    3    3    0    0  0.60759334226E+01  0.63972925200E+00 -0.24383852877E+02  0.25137591409E+02  0.51100000000E-03 0. -1.
        -11    1    3    3    0    0 -0.76309291855E+01  0.35727885430E+01 -0.14391070995E+02  0.16676295238E+02  0.51100000000E-03 0.  1.
         12    1    3    3    0    0  0.39558086536E+01  0.16485643578E+01 -0.41611527034E+01  0.59733891859E+01  0.00000000000E+00 0. -1.
</event>
<event>
 7    1  0.2834226E-010  0.4778727E+02  0.7816164E-02  0.1312668E+00
        -11   -1    0    0    0    0  0.00000000000E+00  0.00000000000E+00  0.45593999997E+02  0.45594000000E+02  0.51100000000E-03 0. -1.
         11   -1    0    0    0    0 -0.00000000000E+00 -0.00000000000E+00 -0.45593999997E+02  0.45594000000E+02  0.51100000000E-03 0.  1.
    9900012    2    1    2    0    0 -0.22389951255E+02  0.19128440087E+02  0.31881277989E+02  0.47787273928E+02  0.20000013147E+02 0.  0.
        -12    1    1    2    0    0  0.22389951255E+02 -0.19128440087E+02 -0.31881277989E+02  0.43400726072E+02  0.00000000000E+00 0.  1.
         11    1    3    3    0    0 -0.50729361729E+01  0.89412909263E+01  0.22857526407E+02  0.25062878497E+02  0.51100000000E-03 0. -1.
        -11    1    3    3    0    0 -0.16046592903E+02  0.98315406191E+01  0.97750379921E+01  0.21206218492E+02  0.51100000000E-03 0.  1.
         12    1    3    3    0    0 -0.12704221792E+01  0.35560854178E+00 -0.75128640981E+00  0.15181769389E+01  0.00000000000E+00 0. -1.
</event>
<event>
 7    1  0.2834226E-010  0.4778727E+02  0.7816164E-02  0.1312668E+00
        -11   -1    0    0    0    0  0.00000000000E+00  0.00000000000E+00  0.45593999997E+02  0.45594000000E+02  0.51100000000E-03 0. -1.
         11   -1    0    0    0    0 -0.00000000000E+00 -0.00000000000E+00 -0.45593999997E+02  0.45594000000E+02  0.51100000000E-03 0.  1.
    9900012    2    1    2    0    0  0.12858731476E+02  0.40934447694E+02 -0.65304939499E+01  0.47787270347E+02  0.19999996818E+02 0.  0.
        -12    1    1    2    0    0 -0.12858731476E+02 -0.40934447694E+02  0.65304939499E+01  0.43400729653E+02  0.00000000000E+00 0.  1.
         11    1    3    3    0    0  0.10886413574E+02  0.29819108090E+02  0.21008790659E+01  0.31813627597E+02  0.51100000000E-03 0. -1.
        -11    1    3    3    0    0  0.25897821973E+01  0.32817672616E+01 -0.66746996910E+01  0.78758227770E+01  0.51100000000E-03 0.  1.
        -12    1    3    3    0    0 -0.61746429507E+00  0.78335723430E+01 -0.19566733248E+01  0.80978199726E+01  0.00000000000E+00 0.  1.
</event>
<event>
 7    1  0.2834226E-010  0.4778727E+02  0.7816164E-02  0.1312668E+00
        -11   -1    0    0    0    0  0.00000000000E+00  0.00000000000E+00  0.45593999997E+02  0.45594000000E+02  0.51100000000E-03 0.  1.
         11   -1    0    0    0    0 -0.00000000000E+00 -0.00000000000E+00 -0.45593999997E+02  0.45594000000E+02  0.51100000000E-03 0. -1.
    9900012    2    1    2    0    0  0.38916694177E+02 -0.17309538251E+02  0.83363141920E+01  0.47787270347E+02  0.19999996820E+02 0.  0.
        -12    1    1    2    0    0 -0.38916694177E+02  0.17309538251E+02 -0.83363141920E+01  0.43400729653E+02  0.00000000000E+00 0.  1.
         11    1    3    3    0    0  0.10452911409E+01 -0.75171545492E+01  0.19168400263E+01  0.78278044197E+01  0.51100000000E-03 0. -1.
        -11    1    3    3    0    0  0.25119735123E+02 -0.77197509413E+01  0.63706813367E+01  0.27040362945E+02  0.51100000000E-03 0.  1.
         12    1    3    3    0    0  0.12751667913E+02 -0.20726327602E+01  0.48792828953E-01  0.12919102982E+02  0.00000000000E+00 0. -1.
</event>
<event>
 7    1  0.2834226E-010  0.4778727E+02  0.7816164E-02  0.1312668E+00
        -11   -1    0    0    0    0  0.00000000000E+00  0.00000000000E+00  0.45593999997E+02  0.45594000000E+02  0.51100000000E-03 0.  1.
         11   -1    0    0    0    0 -0.00000000000E+00 -0.00000000000E+00 -0.45593999997E+02  0.45594000000E+02  0.51100000000E-03 0. -1.
    9900012    2    1    2    0    0  0.62479267902E+01  0.58345093423E+00 -0.42944688194E+02  0.47787271340E+02  0.20000001347E+02 0.  0.
        -12    1    1    2    0    0 -0.62479267902E+01 -0.58345093423E+00  0.42944688194E+02  0.43400728660E+02  0.00000000000E+00 0.  1.
         11    1    3    3    0    0 -0.25696818735E+01  0.10068908230E+01 -0.82775007028E+01  0.87254863593E+01  0.51100000000E-03 0. -1.
        -11    1    3    3    0    0  0.98387819621E+01  0.21652781134E+01 -0.34846147368E+02  0.36273186329E+02  0.51100000000E-03 0.  1.
        -12    1    3    3    0    0 -0.10211732984E+01 -0.25887180021E+01  0.17895987733E+00  0.27885986512E+01  0.00000000000E+00 0.  1.
</event>
<event>
 7    1  0.2834226E-010  0.4778727E+02  0.7816164E-02  0.1312668E+00
        -11   -1    0    0    0    0  0.00000000000E+00  0.00000000000E+00  0.45593999997E+02  0.45594000000E+02  0.51100000000E-03 0.  1.
         11   -1    0    0    0    0 -0.00000000000E+00 -0.00000000000E+00 -0.45593999997E+02  0.45594000000E+02  0.51100000000E-03 0. -1.
    9900012    2    1    2    0    0  0.38599074802E+02 -0.15217684078E+00 -0.19842163004E+02  0.47787272287E+02  0.20000005665E+02 0.  0.
        -12    1    1    2    0    0 -0.38599074802E+02  0.15217684078E+00  0.19842163004E+02  0.43400727713E+02  0.00000000000E+00 0.  1.
         11    1    3    3    0    0  0.29537850407E+02 -0.41829613755E+00 -0.89150352665E+01  0.30856724265E+02  0.51100000000E-03 0. -1.
        -11    1    3    3    0    0  0.84000594915E+00  0.38378680099E+01 -0.39548804693E+01  0.55745780687E+01  0.51100000000E-03 0.  1.
         12    1    3    3    0    0  0.82212184461E+01 -0.35717487131E+01 -0.69722472680E+01  0.11355969953E+02  0.00000000000E+00 0. -1.
</event>
<event>
 7    1  0.2834226E-010  0.4778727E+02  0.7816164E-02  0.1312668E+00
        -11   -1    0    0    0    0  0.00000000000E+00  0.00000000000E+00  0.45593999997E+02  0.45594000000E+02  0.51100000000E-03 0. -1.
         11   -1    0    0    0    0 -0.00000000000E+00 -0.00000000000E+00 -0.45593999997E+02  0.45594000000E+02  0.51100000000E-03 0.  1.
    9900012    2    1    2    0    0  0.10734604486E+02  0.26038073511E+02  0.33021366375E+02  0.47787266793E+02  0.19999980616E+02 0.  0.
        -12    1    1    2    0    0 -0.10734604486E+02 -0.26038073511E+02 -0.33021366375E+02  0.43400733207E+02  0.00000000000E+00 0.  1.
         11    1    3    3    0    0 -0.31388556118E+01  0.84456177152E+01  0.64307922069E+01  0.11069596280E+02  0.51100000000E-03 0. -1.
        -11    1    3    3    0    0  0.47881696845E+01  0.11978702734E+02  0.77176622794E+01  0.15032571285E+02  0.51100000000E-03 0.  1.
         12    1    3    3    0    0  0.90852904131E+01  0.56137530611E+01  0.18872911889E+02  0.21685099227E+02  0.00000000000E+00 0. -1.
</event>
<event>
 7    1  0.2834226E-010  0.4778727E+02  0.7816164E-02  0.1312668E+00
        -11   -1    0    0    0    0  0.00000000000E+00  0.00000000000E+00  0.45593999997E+02  0.45594000000E+02  0.51100000000E-03 0.  1.
         11   -1    0    0    0    0 -0.00000000000E+00 -0.00000000000E+00 -0.45593999997E+02  0.45594000000E+02  0.51100000000E-03 0. -1.
    9900012    2    1    2    0    0 -0.81536900010E+01 -0.33626883643E+01 -0.42495089577E+02  0.47787274524E+02  0.20000015864E+02 0.  0.
        -12    1    1    2    0    0  0.81536900010E+01  0.33626883643E+01  0.42495089577E+02  0.43400725476E+02  0.00000000000E+00 0.  1.
         11    1    3    3    0    0 -0.98042297393E+01 -0.96929208043E+01 -0.23131457929E+02  0.26928423286E+02  0.51100000000E-03 0. -1.
        -11    1    3    3    0    0  0.16144426428E+01  0.64233923137E+01 -0.13930746854E+02  0.15425047878E+02  0.51100000000E-03 0.  1.
         12    1    3    3    0    0  0.36097095506E-01 -0.93159873732E-01 -0.54328847944E+01  0.54338033596E+01  0.00000000000E+00 0. -1.
</event>
<event>
 7    1  0.2834226E-010  0.4778728E+02  0.7816164E-02  0.1312668E+00
        -11   -1    0    0    0    0  0.00000000000E+00  0.00000000000E+00  0.45593999997E+02  0.45594000000E+02  0.51100000000E-03 0.  1.
         11   -1    0    0    0    0 -0.00000000000E+00 -0.00000000000E+00 -0.45593999997E+02  0.45594000000E+02  0.51100000000E-03 0. -1.
    9900012    2    1    2    0    0 -0.20668151122E+02 -0.30818517378E+02 -0.22509310312E+02  0.47787279558E+02  0.20000038816E+02 0.  0.
        -12    1    1    2    0    0  0.20668151122E+02  0.30818517378E+02  0.22509310312E+02  0.43400720442E+02  0.00000000000E+00 0.  1.
         11    1    3    3    0    0 -0.13555394572E+02 -0.27711949088E+02 -0.12343030682E+02  0.33227266679E+02  0.51100000000E-03 0. -1.
        -11    1    3    3    0    0 -0.46508184799E+01 -0.21156469006E+01 -0.10696066622E+02  0.11853772218E+02  0.51100000000E-03 0.  1.
        -12    1    3    3    0    0 -0.24619380700E+01 -0.99092138954E+00  0.52978699197E+00  0.27062406615E+01  0.00000000000E+00 0.  1.
</event>
<event>
 7    1  0.2834226E-010  0.4778727E+02  0.7816164E-02  0.1312668E+00
        -11   -1    0    0    0    0  0.00000000000E+00  0.00000000000E+00  0.45593999997E+02  0.45594000000E+02  0.51100000000E-03 0.  1.
         11   -1    0    0    0    0 -0.00000000000E+00 -0.00000000000E+00 -0.45593999997E+02  0.45594000000E+02  0.51100000000E-03 0. -1.
    9900012    2    1    2    0    0  0.13111616224E+02 -0.31286799113E+02 -0.27071107582E+02  0.47787272535E+02  0.20000006798E+02 0.  0.
        -12    1    1    2    0    0 -0.13111616224E+02  0.31286799113E+02  0.27071107582E+02  0.43400727465E+02  0.00000000000E+00 0.  1.
         11    1    3    3    0    0  0.73803347317E+01 -0.75014806284E+01 -0.60486104510E+01  0.12137843343E+02  0.51100000000E-03 0. -1.
        -11    1    3    3    0    0  0.57467261958E+01 -0.10701630800E+02 -0.18793318631E+02  0.22377189037E+02  0.51100000000E-03 0.  1.
        -12    1    3    3    0    0 -0.15444703795E-01 -0.13083687684E+02 -0.22291784999E+01  0.13272240156E+02  0.00000000000E+00 0.  1.
</event>
<event>
 7    1  0.2834226E-010  0.4778727E+02  0.7816164E-02  0.1312668E+00
        -11   -1    0    0    0    0  0.00000000000E+00  0.00000000000E+00  0.45593999997E+02  0.45594000000E+02  0.51100000000E-03 0. -1.
         11   -1    0    0    0    0 -0.00000000000E+00 -0.00000000000E+00 -0.45593999997E+02  0.45594000000E+02  0.51100000000E-03 0.  1.
    9900012    2    1    2    0    0 -0.34079878318E+02 -0.16679502217E+02  0.21070816193E+02  0.47787271948E+02  0.20000004122E+02 0.  0.
        -12    1    1    2    0    0  0.34079878318E+02  0.16679502217E+02 -0.21070816193E+02  0.43400728052E+02  0.00000000000E+00 0.  1.
         11    1    3    3    0    0 -0.24517099329E+02 -0.86319825459E+01  0.22603196753E+02  0.34445664253E+02  0.51100000000E-03 0. -1.
        -11    1    3    3    0    0 -0.77451819647E+01 -0.56595577851E+01 -0.29313905332E+01  0.10030527838E+02  0.51100000000E-03 0.  1.
         12    1    3    3    0    0 -0.18175970247E+01 -0.23879618863E+01  0.13990099733E+01  0.33110798571E+01  0.00000000000E+00 0. -1.
</event>
<event>
 7    1  0.2834226E-010  0.4778727E+02  0.7816164E-02  0.1312668E+00
        -11   -1    0    0    0    0  0.00000000000E+00  0.00000000000E+00  0.45593999997E+02  0.45594000000E+02  0.51100000000E-03 0.  1.
         11   -1    0    0    0    0 -0.00000000000E+00 -0.00000000000E+00 -0.45593999997E+02  0.45594000000E+02  0.51100000000E-03 0. -1.
    9900012    2    1    2    0    0  0.31268728879E+01  0.39132598692E+02 -0.18506366588E+02  0.47787271679E+02  0.20000002895E+02 0.  0.
        -12    1    1    2    0    0 -0.31268728879E+01 -0.39132598692E+02  0.18506366588E+02  0.43400728321E+02  0.00000000000E+00 0.  1.
         11    1    3    3    0    0 -0.35165650581E+01  0.15497167262E+02 -0.70090793476E+01  0.17368235849E+02  0.51100000000E-03 0. -1.
        -11    1    3    3    0    0  0.10551546379E+02  0.18267351012E+02 -0.10918550264E+02  0.23753862510E+02  0.51100000000E-03 0.  1.
        -12    1    3    3    0    0 -0.39081084333E+01  0.53680804187E+01 -0.57873697556E+00  0.66651733207E+01  0.00000000000E+00 0.  1.
</event>
<event>
 7    1  0.2834226E-010  0.4778727E+02  0.7816164E-02  0.1312668E+00
        -11   -1    0    0    0    0  0.00000000000E+00  0.00000000000E+00  0.45593999997E+02  0.45594000000E+02  0.51100000000E-03 0.  1.
         11   -1    0    0    0    0 -0.00000000000E+00 -0.00000000000E+00 -0.45593999997E+02  0.45594000000E+02  0.51100000000E-03 0. -1.
    9900012    2    1    2    0    0  0.43204752776E+00  0.27704812414E+02 -0.33404791919E+02  0.47787269371E+02  0.19999992372E+02 0.  0.
        -12    1    1    2    0    0 -0.43204752776E+00 -0.27704812414E+02  0.33404791919E+02  0.43400730629E+02  0.00000000000E+00 0.  1.
         11    1    3    3    0    0 -0.74555771587E+00  0.35144479424E+01 -0.11358434873E+02  0.11913070288E+02  0.51100000000E-03 0. -1.
        -11    1    3    3    0    0  0.45096690205E+01  0.24523207115E+02 -0.19018965085E+02  0.31359939972E+02  0.51100000000E-03 0.  1.
        -12    1    3    3    0    0 -0.33320637769E+01 -0.33284264406E+00 -0.30273919610E+01  0.45142591114E+01  0.00000000000E+00 0.  1.
</event>
<event>
 7    1  0.2834226E-010  0.4778727E+02  0.7816164E-02  0.1312668E+00
        -11   -1    0    0    0    0  0.00000000000E+00  0.00000000000E+00  0.45593999997E+02  0.45594000000E+02  0.51100000000E-03 0.  1.
         11   -1    0    0    0    0 -0.00000000000E+00 -0.00000000000E+00 -0.45593999997E+02  0.45594000000E+02  0.51100000000E-03 0. -1.
    9900012    2    1    2    0    0 -0.21086821212E+02  0.20090872273E+02 -0.32176489807E+02  0.47787266437E+02  0.19999978991E+02 0.  0.
        -12    1    1    2    0    0  0.21086821212E+02 -0.20090872273E+02  0.32176489807E+02  0.43400733563E+02  0.00000000000E+00 0.  1.
         11    1    3    3    0    0 -0.11431943026E+02  0.88405960626E+01 -0.77730960260E+01  0.16409341309E+02  0.51100000000E-03 0. -1.
        -11    1    3    3    0    0  0.13496845628E+01 -0.14511472708E+01 -0.66191453660E+01  0.69094545703E+01  0.51100000000E-03 0.  1.
        -12    1    3    3    0    0 -0.11004562749E+02  0.12701423481E+02 -0.17784248415E+02  0.24468470558E+02  0.00000000000E+00 0.  1.
</event>
<event>
 7    1  0.2834226E-010  0.4778727E+02  0.7816164E-02  0.1312668E+00
        -11   -1    0    0    0    0  0.00000000000E+00  0.00000000000E+00  0.45593999997E+02  0.45594000000E+02  0.51100000000E-03 0.  1.
         11   -1    0    0    0    0 -0.00000000000E+00 -0.00000000000E+00 -0.45593999997E+02  0.45594000000E+02  0.51100000000E-03 0. -1.
    9900012    2    1    2    0    0  0.28397389297E+02  0.19379396782E+02 -0.26488687806E+02  0.47787270511E+02  0.19999997566E+02 0.  0.
        -12    1    1    2    0    0 -0.28397389297E+02 -0.19379396782E+02  0.26488687806E+02  0.43400729489E+02  0.00000000000E+00 0.  1.
         11    1    3    3    0    0 -0.84933778824E+00 -0.86089937155E-01 -0.99459738118E+00  0.13107289451E+01  0.51100000000E-03 0. -1.
        -11    1    3    3    0    0  0.17467464329E+01  0.52639965308E+01  0.11185046638E+01  0.56579002749E+01  0.51100000000E-03 0.  1.
         12    1    3    3    0    0  0.27499980653E+02  0.14201490188E+02 -0.26612595089E+02  0.40818641291E+02  0.00000000000E+00 0. -1.
</event>
<event>
 7    1  0.2834226E-010  0.4778727E+02  0.7816164E-02  0.1312668E+00
        -11   -1    0    0    0    0  0.00000000000E+00  0.00000000000E+00  0.45593999997E+02  0.45594000000E+02  0.51100000000E-03 0.  1.
         11   -1    0    0    0    0 -0.00000000000E+00 -0.00000000000E+00 -0.45593999997E+02  0.45594000000E+02  0.51100000000E-03 0. -1.
    9900012    2    1    2    0    0  0.36976652218E+02  0.59935941450E+01 -0.21918650113E+02  0.47787271863E+02  0.20000003733E+02 0.  0.
        -12    1    1    2    0    0 -0.36976652218E+02 -0.59935941450E+01  0.21918650113E+02  0.43400728137E+02  0.00000000000E+00 0.  1.
         11    1    3    3    0    0  0.33711118513E+02  0.69440440275E+01 -0.14692958108E+02  0.37423819648E+02  0.51100000000E-03 0. -1.
        -11    1    3    3    0    0  0.21826879619E+01 -0.26251450008E+01 -0.76025065780E+01  0.83338838212E+01  0.51100000000E-03 0.  1.
        -12    1    3    3    0    0  0.10828457433E+01  0.16746951183E+01  0.37681457308E+00  0.20295683939E+01  0.00000000000E+00 0.  1.
</event>
<event>
 7    1  0.2834226E-010  0.4778728E+02  0.7816164E-02  0.1312668E+00
        -11   -1    0    0    0    0  0.00000000000E+00  0.00000000000E+00  0.45593999997E+02  0.45594000000E+02  0.51100000000E-03 0. -1.
         11   -1    0    0    0    0 -0.00000000000E+00 -0.00000000000E+00 -0.45593999997E+02  0.45594000000E+02  0.51100000000E-03 0.  1.
    9900012    2    1    2    0    0 -0.53362593285E+01 -0.14099321686E+02  0.40698350829E+02  0.47787282312E+02  0.20000051374E+02 0.  0.
        -12    1    1    2    0    0  0.53362593285E+01  0.14099321686E+02 -0.40698350829E+02  0.43400717688E+02  0.00000000000E+00 0.  1.
         11    1    3    3    0    0  0.31759329987E+01 -0.10807814616E+02  0.20278921607E+02  0.23197630676E+02  0.51100000000E-03 0. -1.
        -11    1    3    3    0    0 -0.25711802305E+01  0.36543858024E+01  0.54148731629E+01  0.70204241326E+01  0.51100000000E-03 0.  1.
         12    1    3    3    0    0 -0.59410120967E+01 -0.69458928717E+01  0.15004556059E+02  0.17569227503E+02  0.00000000000E+00 0. -1.
</event>
<event>
 7    1  0.2834226E-010  0.4778727E+02  0.7816164E-02  0.1312668E+00
        -11   -1    0    0    0    0  0.00000000000E+00  0.00000000000E+00  0.45593999997E+02  0.45594000000E+02  0.51100000000E-03 0. -1.
         11   -1    0    0    0    0 -0.00000000000E+00 -0.00000000000E+00 -0.45593999997E+02  0.45594000000E+02  0.51100000000E-03 0.  1.
    9900012    2    1    2    0    0 -0.13879674998E+02 -0.27083343093E+02  0.30943018852E+02  0.47787271125E+02  0.20000000368E+02 0.  0.
        -12    1    1    2    0    0  0.13879674998E+02  0.27083343093E+02 -0.30943018852E+02  0.43400728875E+02  0.00000000000E+00 0.  1.
         11    1    3    3    0    0 -0.17771530883E+02 -0.22364258653E+02  0.25823284092E+02  0.38507523635E+02  0.51100000000E-03 0. -1.
        -11    1    3    3    0    0  0.26961017159E+00  0.88380359248E+00  0.97892018192E-01  0.92918326666E+00  0.51100000000E-03 0.  1.
         12    1    3    3    0    0  0.36222457126E+01 -0.56028880333E+01  0.50218427422E+01  0.83505642230E+01  0.00000000000E+00 0. -1.
</event>
<event>
 7    1  0.2834226E-010  0.4778727E+02  0.7816164E-02  0.1312668E+00
        -11   -1    0    0    0    0  0.00000000000E+00  0.00000000000E+00  0.45593999997E+02  0.45594000000E+02  0.51100000000E-03 0.  1.
         11   -1    0    0    0    0 -0.00000000000E+00 -0.00000000000E+00 -0.45593999997E+02  0.45594000000E+02  0.51100000000E-03 0. -1.
    9900012    2    1    2    0    0 -0.12949158993E+02 -0.57076043779E+01 -0.41028843126E+02  0.47787269193E+02  0.19999991559E+02 0.  0.
        -12    1    1    2    0    0  0.12949158993E+02  0.57076043779E+01  0.41028843126E+02  0.43400730807E+02  0.00000000000E+00 0.  1.
         11    1    3    3    0    0 -0.17188827655E+02 -0.38021732654E+01 -0.26569691731E+02  0.31872571855E+02  0.51100000000E-03 0. -1.
        -11    1    3    3    0    0  0.29493769848E+01  0.44978055821E+00 -0.33516610162E+01  0.44871771725E+01  0.51100000000E-03 0.  1.
         12    1    3    3    0    0  0.12902916778E+01 -0.23552116707E+01 -0.11107490379E+02  0.11427520166E+02  0.00000000000E+00 0. -1.
</event>
<event>
 7    1  0.2834226E-010  0.4778728E+02  0.7816164E-02  0.1312668E+00
        -11   -1    0    0    0    0  0.00000000000E+00  0.00000000000E+00  0.45593999997E+02  0.45594000000E+02  0.51100000000E-03 0.  1.
         11   -1    0    0    0    0 -0.00000000000E+00 -0.00000000000E+00 -0.45593999997E+02  0.45594000000E+02  0.51100000000E-03 0. -1.
    9900012    2    1    2    0    0 -0.42917554135E+02 -0.62935498390E+01  0.14482796567E+01  0.47787277236E+02  0.20000028230E+02 0.  0.
        -12    1    1    2    0    0  0.42917554135E+02  0.62935498390E+01 -0.14482796567E+01  0.43400722764E+02  0.00000000000E+00 0.  1.
         11    1    3    3    0    0 -0.21409527975E+02 -0.37781364568E+01 -0.28696719997E+01  0.21928912897E+02  0.51100000000E-03 0. -1.
        -11    1    3    3    0    0 -0.67213617177E+01  0.52848518684E+01  0.31046982213E+01  0.90964561186E+01  0.51100000000E-03 0.  1.
         12    1    3    3    0    0 -0.14786664441E+02 -0.78002652506E+01  0.12132534351E+01  0.16761908220E+02  0.00000000000E+00 0. -1.
</event>
<event>
 7    1  0.2834226E-010  0.4778727E+02  0.7816164E-02  0.1312668E+00
        -11   -1    0    0    0    0  0.00000000000E+00  0.00000000000E+00  0.45593999997E+02  0.45594000000E+02  0.51100000000E-03 0.  1.
         11   -1    0    0    0    0 -0.00000000000E+00 -0.00000000000E+00 -0.45593999997E+02  0.45594000000E+02  0.51100000000E-03 0. -1.
    9900012    2    1    2    0    0  0.70689742450E+01 -0.25742944948E+02 -0.34219207560E+02  0.47787265242E+02  0.19999973546E+02 0.  0.
        -12    1    1    2    0    0 -0.70689742450E+01  0.25742944948E+02  0.34219207560E+02  0.43400734758E+02  0.00000000000E+00 0.  1.
         11    1    3    3    0    0  0.61572468900E+01 -0.60991093048E+01 -0.23319687440E+02  0.24878075612E+02  0.51100000000E-03 0. -1.
        -11    1    3    3    0    0 -0.11632085024E+01 -0.10230683372E+02 -0.72916776934E+01  0.12616992515E+02  0.51100000000E-03 0.  1.
         12    1    3    3    0    0  0.20749358574E+01 -0.94131522708E+01 -0.36078424262E+01  0.10292197115E+02  0.00000000000E+00 0. -1.
</event>
<event>
 7    1  0.2834226E-010  0.4778727E+02  0.7816164E-02  0.1312668E+00
        -11   -1    0    0    0    0  0.00000000000E+00  0.00000000000E+00  0.45593999997E+02  0.45594000000E+02  0.51100000000E-03 0. -1.
         11   -1    0    0    0    0 -0.00000000000E+00 -0.00000000000E+00 -0.45593999997E+02  0.45594000000E+02  0.51100000000E-03 0.  1.
    9900012    2    1    2    0    0 -0.42676299092E+02  0.22869076260E+01  0.75582526569E+01  0.47787266897E+02  0.19999981089E+02 0.  0.
        -12    1    1    2    0    0  0.42676299092E+02 -0.22869076260E+01 -0.75582526569E+01  0.43400733103E+02  0.00000000000E+00 0.  1.
         11    1    3    3    0    0 -0.25297535285E+02 -0.65487460638E+00  0.11901879071E+02  0.27965136831E+02  0.51100000000E-03 0. -1.
        -11    1    3    3    0    0 -0.11805469236E+02 -0.18977132910E+01 -0.28284174022E+01  0.12286999832E+02  0.51100000000E-03 0.  1.
         12    1    3    3    0    0 -0.55732945708E+01  0.48394955234E+01 -0.15152090123E+01  0.75351302341E+01  0.00000000000E+00 0. -1.
</event>
<event>
 7    1  0.2834226E-010  0.4778727E+02  0.7816164E-02  0.1312668E+00
        -11   -1    0    0    0    0  0.00000000000E+00  0.00000000000E+00  0.45593999997E+02  0.45594000000E+02  0.51100000000E-03 0. -1.
         11   -1    0    0    0    0 -0.00000000000E+00 -0.00000000000E+00 -0.45593999997E+02  0.45594000000E+02  0.51100000000E-03 0.  1.
    9900012    2    1    2    0    0  0.10092713916E+02  0.26993579289E+02  0.32451614697E+02  0.47787268515E+02  0.19999988466E+02 0.  0.
        -12    1    1    2    0    0 -0.10092713916E+02 -0.26993579289E+02 -0.32451614697E+02  0.43400731485E+02  0.00000000000E+00 0.  1.
         11    1    3    3    0    0 -0.39832392841E+01  0.17345601849E+02  0.18071701588E+02  0.25363802894E+02  0.51100000000E-03 0. -1.
        -11    1    3    3    0    0  0.11034247885E+02  0.72843546970E+01  0.99146679529E+01  0.16526254585E+02  0.51100000000E-03 0.  1.
         12    1    3    3    0    0  0.30417053145E+01  0.23636227431E+01  0.44652451561E+01  0.58972110354E+01  0.00000000000E+00 0. -1.
</event>
<event>
 7    1  0.2834226E-010  0.4778727E+02  0.7816164E-02  0.1312668E+00
        -11   -1    0    0    0    0  0.00000000000E+00  0.00000000000E+00  0.45593999997E+02  0.45594000000E+02  0.51100000000E-03 0. -1.
         11   -1    0    0    0    0 -0.00000000000E+00 -0.00000000000E+00 -0.45593999997E+02  0.45594000000E+02  0.51100000000E-03 0.  1.
    9900012    2    1    2    0    0  0.33077554512E+02 -0.22034102165E+02  0.17435510231E+02  0.47787270885E+02  0.19999999271E+02 0.  0.
        -12    1    1    2    0    0 -0.33077554512E+02  0.22034102165E+02 -0.17435510231E+02  0.43400729115E+02  0.00000000000E+00 0.  1.
         11    1    3    3    0    0  0.19248784424E+02 -0.19251348822E+02  0.49833989102E+01  0.27676061827E+02  0.51100000000E-03 0. -1.
        -11    1    3    3    0    0  0.71632291742E+01 -0.42138756080E+01  0.96630390575E+01  0.12745309880E+02  0.51100000000E-03 0.  1.
         12    1    3    3    0    0  0.66655409138E+01  0.14311222650E+01  0.27890722638E+01  0.73658991782E+01  0.00000000000E+00 0. -1.
</event>
<event>
 7    1  0.2834226E-010  0.4778727E+02  0.7816164E-02  0.1312668E+00
        -11   -1    0    0    0    0  0.00000000000E+00  0.00000000000E+00  0.45593999997E+02  0.45594000000E+02  0.51100000000E-03 0. -1.
         11   -1    0    0    0    0 -0.00000000000E+00 -0.00000000000E+00 -0.45593999997E+02  0.45594000000E+02  0.51100000000E-03 0.  1.
    9900012    2    1    2    0    0  0.14873613439E+02 -0.13338845543E+02  0.38528872929E+02  0.47787271592E+02  0.20000002497E+02 0.  0.
        -12    1    1    2    0    0 -0.14873613439E+02  0.13338845543E+02 -0.38528872929E+02  0.43400728408E+02  0.00000000000E+00 0.  1.
         11    1    3    3    0    0  0.10524121247E+02 -0.11154664482E+02  0.30297061079E+02  0.33957261049E+02  0.51100000000E-03 0. -1.
        -11    1    3    3    0    0  0.28646852434E+01 -0.61632724610E+01  0.58070942807E+01  0.89395018440E+01  0.51100000000E-03 0.  1.
         12    1    3    3    0    0  0.14848069486E+01  0.39790913996E+01  0.24247175698E+01  0.48905086989E+01  0.00000000000E+00 0. -1.
</event>
<event>
 7    1  0.2834226E-010  0.4778727E+02  0.7816164E-02  0.1312668E+00
        -11   -1    0    0    0    0  0.00000000000E+00  0.00000000000E+00  0.45593999997E+02  0.45594000000E+02  0.51100000000E-03 0.  1.
         11   -1    0    0    0    0 -0.00000000000E+00 -0.00000000000E+00 -0.45593999997E+02  0.45594000000E+02  0.51100000000E-03 0. -1.
    9900012    2    1    2    0    0  0.37362833291E+02 -0.19511665509E+02  0.10341031108E+02  0.47787270434E+02  0.19999997217E+02 0.  0.
        -12    1    1    2    0    0 -0.37362833291E+02  0.19511665509E+02 -0.10341031108E+02  0.43400729566E+02  0.00000000000E+00 0.  1.
         11    1    3    3    0    0  0.25085108306E+02 -0.18011007881E+02  0.14938150039E+02  0.34304626371E+02  0.51100000000E-03 0. -1.
        -11    1    3    3    0    0  0.93087747588E+01 -0.21795032230E+01 -0.40745441846E+01  0.10392566208E+02  0.51100000000E-03 0.  1.
         12    1    3    3    0    0  0.29689502263E+01  0.67884559444E+00 -0.52257474641E+00  0.30900778555E+01  0.00000000000E+00 0. -1.
</event>
<event>
 7    1  0.2834226E-010  0.4778727E+02  0.7816164E-02  0.1312668E+00
        -11   -1    0    0    0    0  0.00000000000E+00  0.00000000000E+00  0.45593999997E+02  0.45594000000E+02  0.51100000000E-03 0. -1.
         11   -1    0    0    0    0 -0.00000000000E+00 -0.00000000000E+00 -0.45593999997E+02  0.45594000000E+02  0.51100000000E-03 0.  1.
    9900012    2    1    2    0    0  0.35352518181E+02 -0.25175824330E+02 -0.24433906783E-01  0.47787271096E+02  0.20000000233E+02 0.  0.
        -12    1    1    2    0    0 -0.35352518181E+02  0.25175824330E+02  0.24433906783E-01  0.43400728904E+02  0.00000000000E+00 0.  1.
         11    1    3    3    0    0  0.13661450764E+02 -0.51994146348E+01  0.54722356232E+01  0.15608155321E+02  0.51100000000E-03 0. -1.
        -11    1    3    3    0    0  0.12849848114E+02 -0.11007188409E+02 -0.89212469193E+01  0.19127609367E+02  0.51100000000E-03 0.  1.
         12    1    3    3    0    0  0.88412193022E+01 -0.89692212855E+01  0.34245773894E+01  0.13051506408E+02  0.00000000000E+00 0. -1.
</event>
<event>
 7    1  0.2834226E-010  0.4778727E+02  0.7816164E-02  0.1312668E+00
        -11   -1    0    0    0    0  0.00000000000E+00  0.00000000000E+00  0.45593999997E+02  0.45594000000E+02  0.51100000000E-03 0. -1.
         11   -1    0    0    0    0 -0.00000000000E+00 -0.00000000000E+00 -0.45593999997E+02  0.45594000000E+02  0.51100000000E-03 0.  1.
    9900012    2    1    2    0    0 -0.68851570334E+01 -0.36564579333E+02  0.22343894553E+02  0.47787268751E+02  0.19999989543E+02 0.  0.
        -12    1    1    2    0    0  0.68851570334E+01  0.36564579333E+02 -0.22343894553E+02  0.43400731249E+02  0.00000000000E+00 0.  1.
         11    1    3    3    0    0 -0.59240213407E+01 -0.17278301789E+01  0.17031587962E+01  0.64015760651E+01  0.51100000000E-03 0. -1.
        -11    1    3    3    0    0  0.32979736363E+01 -0.23607396792E+02  0.14442883954E+02  0.27870821849E+02  0.51100000000E-03 0.  1.
         12    1    3    3    0    0 -0.42591093290E+01 -0.11229352363E+02  0.61978518026E+01  0.13514870837E+02  0.00000000000E+00 0. -1.
</event>
<event>
 7    1  0.2834226E-010  0.4778727E+02  0.7816164E-02  0.1312668E+00
        -11   -1    0    0    0    0  0.00000000000E+00  0.00000000000E+00  0.45593999997E+02  0.45594000000E+02  0.51100000000E-03 0.  1.
         11   -1    0    0    0    0 -0.00000000000E+00 -0.00000000000E+00 -0.45593999997E+02  0.45594000000E+02  0.51100000000E-03 0. -1.
    9900012    2    1    2    0    0  0.12487149213E+02 -0.62108005892E+00 -0.41560903297E+02  0.47787270527E+02  0.19999997641E+02 0.  0.
        -12    1    1    2    0    0 -0.12487149213E+02  0.62108005892E+00  0.41560903297E+02  0.43400729473E+02  0.00000000000E+00 0.  1.
         11    1    3    3    0    0  0.61361504281E+00 -0.78385823428E+01 -0.10389228315E+02  0.13029043012E+02  0.51100000000E-03 0. -1.
        -11    1    3    3    0    0  0.10501635552E+02  0.36145891182E+01 -0.19196950043E+02  0.22178198641E+02  0.51100000000E-03 0.  1.
         12    1    3    3    0    0  0.13718986187E+01  0.36029131657E+01 -0.11974724939E+02  0.12580028874E+02  0.00000000000E+00 0. -1.
</event>
<event>
 7    1  0.2834226E-010  0.4778727E+02  0.7816164E-02  0.1312668E+00
        -11   -1    0    0    0    0  0.00000000000E+00  0.00000000000E+00  0.45593999997E+02  0.45594000000E+02  0.51100000000E-03 0.  1.
         11   -1    0    0    0    0 -0.00000000000E+00 -0.00000000000E+00 -0.45593999997E+02  0.45594000000E+02  0.51100000000E-03 0. -1.
    9900012    2    1    2    0    0  0.26222855105E+02 -0.29628082408E+02 -0.17837092933E+02  0.47787270959E+02  0.19999999609E+02 0.  0.
        -12    1    1    2    0    0 -0.26222855105E+02  0.29628082408E+02  0.17837092933E+02  0.43400729041E+02  0.00000000000E+00 0.  1.
         11    1    3    3    0    0  0.14200575615E+02 -0.50549344102E+01 -0.71365173173E+01  0.16677487502E+02  0.51100000000E-03 0.  1.
        -11    1    3    3    0    0  0.85613777247E+01 -0.73118806611E+01 -0.65383783564E+01  0.13019645892E+02  0.51100000000E-03 0. -1.
         12    1    3    3    0    0  0.34609017644E+01 -0.17261267337E+02 -0.41621972593E+01  0.18090137565E+02  0.00000000000E+00 0. -1.
</event>
<event>
 7    1  0.2834226E-010  0.4778726E+02  0.7816164E-02  0.1312668E+00
        -11   -1    0    0    0    0  0.00000000000E+00  0.00000000000E+00  0.45593999997E+02  0.45594000000E+02  0.51100000000E-03 0.  1.
         11   -1    0    0    0    0 -0.00000000000E+00 -0.00000000000E+00 -0.45593999997E+02  0.45594000000E+02  0.51100000000E-03 0. -1.
    9900012    2    1    2    0    0  0.57052424743E+01 -0.36063146663E+02 -0.23463245709E+02  0.47787259936E+02  0.19999949351E+02 0.  0.
        -12    1    1    2    0    0 -0.57052424743E+01  0.36063146663E+02  0.23463245709E+02  0.43400740064E+02  0.00000000000E+00 0.  1.
         11    1    3    3    0    0  0.81247588116E+01 -0.10704802508E+02 -0.11060187332E+01  0.13484353161E+02  0.51100000000E-03 0. -1.
        -11    1    3    3    0    0 -0.35348942370E+01 -0.12109158873E+02 -0.93436780294E+01  0.15698137637E+02  0.51100000000E-03 0.  1.
        -12    1    3    3    0    0  0.11153778996E+01 -0.13249185282E+02 -0.13013548946E+02  0.18604769138E+02  0.00000000000E+00 0.  1.
</event>
<event>
 7    1  0.2834226E-010  0.4778727E+02  0.7816164E-02  0.1312668E+00
        -11   -1    0    0    0    0  0.00000000000E+00  0.00000000000E+00  0.45593999997E+02  0.45594000000E+02  0.51100000000E-03 0. -1.
         11   -1    0    0    0    0 -0.00000000000E+00 -0.00000000000E+00 -0.45593999997E+02  0.45594000000E+02  0.51100000000E-03 0.  1.
    9900012    2    1    2    0    0 -0.40972389715E+02 -0.93198793174E+01 -0.10863988596E+02  0.47787272844E+02  0.20000008206E+02 0.  0.
        -12    1    1    2    0    0  0.40972389715E+02  0.93198793174E+01  0.10863988596E+02  0.43400727156E+02  0.00000000000E+00 0.  1.
         11    1    3    3    0    0 -0.74195176408E+01 -0.17711386794E-01 -0.48212564367E+01  0.88483936172E+01  0.51100000000E-03 0. -1.
        -11    1    3    3    0    0 -0.25702053314E+02 -0.10219648633E+02 -0.10823162436E+02  0.29701474847E+02  0.51100000000E-03 0.  1.
        -12    1    3    3    0    0 -0.78508187603E+01  0.91748070254E+00  0.47804302768E+01  0.92374043799E+01  0.00000000000E+00 0.  1.
</event>
<event>
 7    1  0.2834226E-010  0.4778728E+02  0.7816164E-02  0.1312668E+00
        -11   -1    0    0    0    0  0.00000000000E+00  0.00000000000E+00  0.45593999997E+02  0.45594000000E+02  0.51100000000E-03 0. -1.
         11   -1    0    0    0    0 -0.00000000000E+00 -0.00000000000E+00 -0.45593999997E+02  0.45594000000E+02  0.51100000000E-03 0.  1.
    9900012    2    1    2    0    0 -0.37828913912E+02  0.20272755035E+02  0.64506410370E+01  0.47787284635E+02  0.20000061964E+02 0.  0.
        -12    1    1    2    0    0  0.37828913912E+02 -0.20272755035E+02 -0.64506410370E+01  0.43400715365E+02  0.00000000000E+00 0.  1.
         11    1    3    3    0    0 -0.77707846632E+01  0.72790894194E+01  0.31927164143E+01  0.11115919909E+02  0.51100000000E-03 0.  1.
        -11    1    3    3    0    0 -0.39253693397E+01  0.31071789915E-01  0.62149178320E+01  0.73508294654E+01  0.51100000000E-03 0. -1.
        -12    1    3    3    0    0 -0.26132759909E+02  0.12962593825E+02 -0.29569932093E+01  0.29320535261E+02  0.00000000000E+00 0.  1.
</event>
<event>
 7    1  0.2834226E-010  0.4778727E+02  0.7816164E-02  0.1312668E+00
        -11   -1    0    0    0    0  0.00000000000E+00  0.00000000000E+00  0.45593999997E+02  0.45594000000E+02  0.51100000000E-03 0. -1.
         11   -1    0    0    0    0 -0.00000000000E+00 -0.00000000000E+00 -0.45593999997E+02  0.45594000000E+02  0.51100000000E-03 0.  1.
    9900012    2    1    2    0    0 -0.41473425653E+02  0.88135205236E+00  0.12759363415E+02  0.47787272223E+02  0.20000005374E+02 0.  0.
        -12    1    1    2    0    0  0.41473425653E+02 -0.88135205236E+00 -0.12759363415E+02  0.43400727777E+02  0.00000000000E+00 0.  1.
         11    1    3    3    0    0 -0.24027275678E+02  0.88205080613E+01  0.23883255433E+01  0.25706330701E+02  0.51100000000E-03 0. -1.
        -11    1    3    3    0    0 -0.68006081057E+01 -0.48748975413E+01  0.36941372331E+01  0.91465592877E+01  0.51100000000E-03 0.  1.
         12    1    3    3    0    0 -0.10645541869E+02 -0.30642584676E+01  0.66769006387E+01  0.12934382234E+02  0.00000000000E+00 0. -1.
</event>
<event>
 7    1  0.2834226E-010  0.4778725E+02  0.7816164E-02  0.1312668E+00
        -11   -1    0    0    0    0  0.00000000000E+00  0.00000000000E+00  0.45593999997E+02  0.45594000000E+02  0.51100000000E-03 0. -1.
         11   -1    0    0    0    0 -0.00000000000E+00 -0.00000000000E+00 -0.45593999997E+02  0.45594000000E+02  0.51100000000E-03 0.  1.
    9900012    2    1    2    0    0 -0.24167376553E+02  0.38398321232E+00  0.36047406767E+02  0.47787250385E+02  0.19999905805E+02 0.  0.
        -12    1    1    2    0    0  0.24167376553E+02 -0.38398321232E+00 -0.36047406767E+02  0.43400749615E+02  0.00000000000E+00 0.  1.
         11    1    3    3    0    0 -0.61619616480E+00  0.32802155582E+01 -0.16556312107E+00  0.33416946644E+01  0.51100000000E-03 0.  1.
        -11    1    3    3    0    0 -0.15643373552E+02 -0.52559509859E+01  0.17828894673E+02  0.24294230640E+02  0.51100000000E-03 0. -1.
         12    1    3    3    0    0 -0.79078068365E+01  0.23597186400E+01  0.18384075214E+02  0.20151325081E+02  0.00000000000E+00 0. -1.
</event>
<event>
 7    1  0.2834226E-010  0.4778728E+02  0.7816164E-02  0.1312668E+00
        -11   -1    0    0    0    0  0.00000000000E+00  0.00000000000E+00  0.45593999997E+02  0.45594000000E+02  0.51100000000E-03 0.  1.
         11   -1    0    0    0    0 -0.00000000000E+00 -0.00000000000E+00 -0.45593999997E+02  0.45594000000E+02  0.51100000000E-03 0. -1.
    9900012    2    1    2    0    0 -0.36340643493E+02  0.14655667864E+02 -0.18659899127E+02  0.47787276441E+02  0.20000024607E+02 0.  0.
        -12    1    1    2    0    0  0.36340643493E+02 -0.14655667864E+02  0.18659899127E+02  0.43400723559E+02  0.00000000000E+00 0.  1.
         11    1    3    3    0    0 -0.22934888547E+02  0.64144434102E+01 -0.72178185754E+01  0.24884756422E+02  0.51100000000E-03 0. -1.
        -11    1    3    3    0    0 -0.48710434183E+01 -0.21170959313E+01 -0.69545274346E+01  0.87506920449E+01  0.51100000000E-03 0.  1.
        -12    1    3    3    0    0 -0.85347115268E+01  0.10358320385E+02 -0.44875531166E+01  0.14151827974E+02  0.00000000000E+00 0.  1.
</event>
<event>
 7    1  0.2834226E-010  0.4778727E+02  0.7816164E-02  0.1312668E+00
        -11   -1    0    0    0    0  0.00000000000E+00  0.00000000000E+00  0.45593999997E+02  0.45594000000E+02  0.51100000000E-03 0.  1.
         11   -1    0    0    0    0 -0.00000000000E+00 -0.00000000000E+00 -0.45593999997E+02  0.45594000000E+02  0.51100000000E-03 0. -1.
    9900012    2    1    2    0    0  0.34738376610E+02 -0.15303901731E+01  0.25971642598E+02  0.47787272785E+02  0.20000007935E+02 0.  0.
        -12    1    1    2    0    0 -0.34738376610E+02  0.15303901731E+01 -0.25971642598E+02  0.43400727215E+02  0.00000000000E+00 0.  1.
         11    1    3    3    0    0  0.44566239067E+01 -0.30802729966E+01 -0.15220623129E+01  0.56272775233E+01  0.51100000000E-03 0. -1.
        -11    1    3    3    0    0  0.18479564284E+02 -0.54793304320E+00  0.22634823046E+02  0.29225498137E+02  0.51100000000E-03 0.  1.
         12    1    3    3    0    0  0.11802188420E+02  0.20978158667E+01  0.48588818642E+01  0.12934497125E+02  0.00000000000E+00 0. -1.
</event>
<event>
 7    1  0.2834226E-010  0.4778727E+02  0.7816164E-02  0.1312668E+00
        -11   -1    0    0    0    0  0.00000000000E+00  0.00000000000E+00  0.45593999997E+02  0.45594000000E+02  0.51100000000E-03 0. -1.
         11   -1    0    0    0    0 -0.00000000000E+00 -0.00000000000E+00 -0.45593999997E+02  0.45594000000E+02  0.51100000000E-03 0.  1.
    9900012    2    1    2    0    0  0.42559307912E+02 -0.55793990355E+01  0.64186485137E+01  0.47787269219E+02  0.19999991677E+02 0.  0.
        -12    1    1    2    0    0 -0.42559307912E+02  0.55793990355E+01 -0.64186485137E+01  0.43400730781E+02  0.00000000000E+00 0.  1.
         11    1    3    3    0    0  0.17973574303E+02  0.33294589630E+01  0.86011379901E+01  0.20201837669E+02  0.51100000000E-03 0. -1.
        -11    1    3    3    0    0  0.15497943299E+02 -0.35562756716E+01 -0.50005410432E+01  0.16668495857E+02  0.51100000000E-03 0.  1.
        -12    1    3    3    0    0  0.90877903107E+01 -0.53525823270E+01  0.28180515668E+01  0.10916935693E+02  0.00000000000E+00 0.  1.
</event>
<event>
 7    1  0.2834226E-010  0.4778728E+02  0.7816164E-02  0.1312668E+00
        -11   -1    0    0    0    0  0.00000000000E+00  0.00000000000E+00  0.45593999997E+02  0.45594000000E+02  0.51100000000E-03 0.  1.
         11   -1    0    0    0    0 -0.00000000000E+00 -0.00000000000E+00 -0.45593999997E+02  0.45594000000E+02  0.51100000000E-03 0. -1.
    9900012    2    1    2    0    0  0.16118898744E+02 -0.17570934865E+02 -0.36263838244E+02  0.47787278658E+02  0.20000034715E+02 0.  0.
        -12    1    1    2    0    0 -0.16118898744E+02  0.17570934865E+02  0.36263838244E+02  0.43400721342E+02  0.00000000000E+00 0.  1.
         11    1    3    3    0    0  0.66855926916E+01 -0.33912900919E+01 -0.18954755654E+02  0.20383345169E+02  0.51100000000E-03 0. -1.
        -11    1    3    3    0    0  0.10450726289E+02 -0.98165290919E+01 -0.65777433850E+01  0.15774936820E+02  0.51100000000E-03 0.  1.
        -12    1    3    3    0    0 -0.10174202363E+01 -0.43631156816E+01 -0.10731339205E+02  0.11628996669E+02  0.00000000000E+00 0.  1.
</event>
<event>
 7    1  0.2834226E-010  0.4778727E+02  0.7816164E-02  0.1312668E+00
        -11   -1    0    0    0    0  0.00000000000E+00  0.00000000000E+00  0.45593999997E+02  0.45594000000E+02  0.51100000000E-03 0.  1.
         11   -1    0    0    0    0 -0.00000000000E+00 -0.00000000000E+00 -0.45593999997E+02  0.45594000000E+02  0.51100000000E-03 0. -1.
    9900012    2    1    2    0    0  0.29404908700E+02 -0.29373252882E+02  0.12497465920E+02  0.47787270801E+02  0.19999998891E+02 0.  0.
        -12    1    1    2    0    0 -0.29404908700E+02  0.29373252882E+02 -0.12497465920E+02  0.43400729199E+02  0.00000000000E+00 0.  1.
         11    1    3    3    0    0  0.84367777653E+01 -0.10357202027E+02 -0.10652551598E+01  0.13400955999E+02  0.51100000000E-03 0. -1.
        -11    1    3    3    0    0  0.11622506075E+02 -0.16940961995E+02  0.13903575933E+02  0.24807020474E+02  0.51100000000E-03 0.  1.
        -12    1    3    3    0    0  0.93456248597E+01 -0.20750888604E+01 -0.34085485276E+00  0.95792943282E+01  0.00000000000E+00 0.  1.
</event>
<event>
 7    1  0.2834226E-010  0.4778727E+02  0.7816164E-02  0.1312668E+00
        -11   -1    0    0    0    0  0.00000000000E+00  0.00000000000E+00  0.45593999997E+02  0.45594000000E+02  0.51100000000E-03 0.  1.
         11   -1    0    0    0    0 -0.00000000000E+00 -0.00000000000E+00 -0.45593999997E+02  0.45594000000E+02  0.51100000000E-03 0. -1.
    9900012    2    1    2    0    0  0.26389654567E+02 -0.69954975273E+01 -0.33738288304E+02  0.47787274758E+02  0.20000016932E+02 0.  0.
        -12    1    1    2    0    0 -0.26389654567E+02  0.69954975273E+01  0.33738288304E+02  0.43400725242E+02  0.00000000000E+00 0.  1.
         11    1    3    3    0    0  0.20062544326E+02 -0.38364326490E+01 -0.12445448910E+02  0.23918885825E+02  0.51100000000E-03 0. -1.
        -11    1    3    3    0    0 -0.28426232187E+00  0.14816567269E+00 -0.11951728898E+02  0.11956027018E+02  0.51100000000E-03 0.  1.
         12    1    3    3    0    0  0.66113725632E+01 -0.33072305510E+01 -0.93411104964E+01  0.11912361915E+02  0.00000000000E+00 0. -1.
</event>
<event>
 7    1  0.2834226E-010  0.4778727E+02  0.7816164E-02  0.1312668E+00
        -11   -1    0    0    0    0  0.00000000000E+00  0.00000000000E+00  0.45593999997E+02  0.45594000000E+02  0.51100000000E-03 0. -1.
         11   -1    0    0    0    0 -0.00000000000E+00 -0.00000000000E+00 -0.45593999997E+02  0.45594000000E+02  0.51100000000E-03 0.  1.
    9900012    2    1    2    0    0  0.83811791998E+01 -0.41378212658E+02  0.10060931468E+02  0.47787274320E+02  0.20000014936E+02 0.  0.
        -12    1    1    2    0    0 -0.83811791998E+01  0.41378212658E+02 -0.10060931468E+02  0.43400725680E+02  0.00000000000E+00 0.  1.
         11    1    3    3    0    0  0.11876931208E+02 -0.37189780613E+02  0.11714515033E+02  0.40759920752E+02  0.51100000000E-03 0. -1.
        -11    1    3    3    0    0 -0.23420715773E+01 -0.30508686022E+01 -0.30340288748E+01  0.48988192429E+01  0.51100000000E-03 0.  1.
         12    1    3    3    0    0 -0.11536804307E+01 -0.11375634421E+01  0.13804453096E+01  0.21285343252E+01  0.00000000000E+00 0. -1.
</event>
<event>
 7    1  0.2834226E-010  0.4778727E+02  0.7816164E-02  0.1312668E+00
        -11   -1    0    0    0    0  0.00000000000E+00  0.00000000000E+00  0.45593999997E+02  0.45594000000E+02  0.51100000000E-03 0.  1.
         11   -1    0    0    0    0 -0.00000000000E+00 -0.00000000000E+00 -0.45593999997E+02  0.45594000000E+02  0.51100000000E-03 0. -1.
    9900012    2    1    2    0    0 -0.25052047545E+02 -0.16737134529E+01 -0.35400808956E+02  0.47787266393E+02  0.19999978793E+02 0.  0.
        -12    1    1    2    0    0  0.25052047545E+02  0.16737134529E+01  0.35400808956E+02  0.43400733607E+02  0.00000000000E+00 0.  1.
         11    1    3    3    0    0 -0.19519428700E+01  0.27174650305E+01 -0.92429002536E+01  0.98298475328E+01  0.51100000000E-03 0. -1.
        -11    1    3    3    0    0 -0.26926642774E+01  0.38618202587E+01 -0.85819688374E+01  0.97884772058E+01  0.51100000000E-03 0.  1.
        -12    1    3    3    0    0 -0.20407440397E+02 -0.82529987420E+01 -0.17575939865E+02  0.28168941654E+02  0.00000000000E+00 0.  1.
</event>
<event>
 7    1  0.2834226E-010  0.4778727E+02  0.7816164E-02  0.1312668E+00
        -11   -1    0    0    0    0  0.00000000000E+00  0.00000000000E+00  0.45593999997E+02  0.45594000000E+02  0.51100000000E-03 0.  1.
         11   -1    0    0    0    0 -0.00000000000E+00 -0.00000000000E+00 -0.45593999997E+02  0.45594000000E+02  0.51100000000E-03 0. -1.
    9900012    2    1    2    0    0  0.20104683902E+02  0.27298363185E+02 -0.27096572008E+02  0.47787272334E+02  0.20000005878E+02 0.  0.
        -12    1    1    2    0    0 -0.20104683902E+02 -0.27298363185E+02  0.27096572008E+02  0.43400727666E+02  0.00000000000E+00 0.  1.
         11    1    3    3    0    0  0.10630287205E+01  0.12684001042E+01 -0.10200179116E+02  0.10333562945E+02  0.51100000000E-03 0. -1.
        -11    1    3    3    0    0  0.13674325287E+02  0.12026375681E+02 -0.71272278131E+01  0.19555517396E+02  0.51100000000E-03 0.  1.
        -12    1    3    3    0    0  0.53673298951E+01  0.14003587399E+02 -0.97691650791E+01  0.17898191992E+02  0.00000000000E+00 0.  1.
</event>
<event>
 7    1  0.2834226E-010  0.4778727E+02  0.7816164E-02  0.1312668E+00
        -11   -1    0    0    0    0  0.00000000000E+00  0.00000000000E+00  0.45593999997E+02  0.45594000000E+02  0.51100000000E-03 0.  1.
         11   -1    0    0    0    0 -0.00000000000E+00 -0.00000000000E+00 -0.45593999997E+02  0.45594000000E+02  0.51100000000E-03 0. -1.
    9900012    2    1    2    0    0  0.25904794192E+02 -0.22879148677E+02 -0.26250894766E+02  0.47787270948E+02  0.19999999558E+02 0.  0.
        -12    1    1    2    0    0 -0.25904794192E+02  0.22879148677E+02  0.26250894766E+02  0.43400729052E+02  0.00000000000E+00 0.  1.
         11    1    3    3    0    0  0.94995452324E+01 -0.69947916600E+01 -0.58055711803E+01  0.13148122565E+02  0.51100000000E-03 0. -1.
        -11    1    3    3    0    0  0.26013850582E+01 -0.52795435476E+01  0.20168239067E+01  0.62216045537E+01  0.51100000000E-03 0.  1.
        -12    1    3    3    0    0  0.13803863901E+02 -0.10604813469E+02 -0.22462147492E+02  0.28417543829E+02  0.00000000000E+00 0.  1.
</event>
<event>
 7    1  0.2834226E-010  0.4778727E+02  0.7816164E-02  0.1312668E+00
        -11   -1    0    0    0    0  0.00000000000E+00  0.00000000000E+00  0.45593999997E+02  0.45594000000E+02  0.51100000000E-03 0.  1.
         11   -1    0    0    0    0 -0.00000000000E+00 -0.00000000000E+00 -0.45593999997E+02  0.45594000000E+02  0.51100000000E-03 0. -1.
    9900012    2    1    2    0    0  0.17467348249E+02  0.39545405346E+02  0.38309194965E+01  0.47787270939E+02  0.19999999520E+02 0.  0.
        -12    1    1    2    0    0 -0.17467348249E+02 -0.39545405346E+02 -0.38309194965E+01  0.43400729061E+02  0.00000000000E+00 0.  1.
         11    1    3    3    0    0  0.61572733351E+01  0.13880802343E+02  0.13742072866E+01  0.15247200875E+02  0.51100000000E-03 0. -1.
        -11    1    3    3    0    0 -0.64253404790E+00  0.34091935719E+01  0.60992140460E+01  0.70168271358E+01  0.51100000000E-03 0.  1.
        -12    1    3    3    0    0  0.11952608962E+02  0.22255409431E+02 -0.36425018361E+01  0.25523242928E+02  0.00000000000E+00 0.  1.
</event>
<event>
 7    1  0.2834226E-010  0.4778727E+02  0.7816164E-02  0.1312668E+00
        -11   -1    0    0    0    0  0.00000000000E+00  0.00000000000E+00  0.45593999997E+02  0.45594000000E+02  0.51100000000E-03 0. -1.
         11   -1    0    0    0    0 -0.00000000000E+00 -0.00000000000E+00 -0.45593999997E+02  0.45594000000E+02  0.51100000000E-03 0.  1.
    9900012    2    1    2    0    0 -0.33624324475E+02 -0.23891764338E+02  0.13498580331E+02  0.47787271083E+02  0.20000000175E+02 0.  0.
        -12    1    1    2    0    0  0.33624324475E+02  0.23891764338E+02 -0.13498580331E+02  0.43400728917E+02  0.00000000000E+00 0.  1.
         11    1    3    3    0    0 -0.26707801289E+02 -0.12528990143E+02  0.13384541775E+02  0.32394879263E+02  0.51100000000E-03 0. -1.
        -11    1    3    3    0    0  0.16136132967E+01 -0.16004247900E+01 -0.76651151470E+00  0.23984677490E+01  0.51100000000E-03 0.  1.
         12    1    3    3    0    0 -0.85301364833E+01 -0.97623494048E+01  0.88055007020E+00  0.12993924071E+02  0.00000000000E+00 0. -1.
</event>
<event>
 7    1  0.2834226E-010  0.4778728E+02  0.7816164E-02  0.1312668E+00
        -11   -1    0    0    0    0  0.00000000000E+00  0.00000000000E+00  0.45593999997E+02  0.45594000000E+02  0.51100000000E-03 0. -1.
         11   -1    0    0    0    0 -0.00000000000E+00 -0.00000000000E+00 -0.45593999997E+02  0.45594000000E+02  0.51100000000E-03 0.  1.
    9900012    2    1    2    0    0 -0.14544251777E+02 -0.11872829113E+02  0.39129574334E+02  0.47787275139E+02  0.20000018669E+02 0.  0.
        -12    1    1    2    0    0  0.14544251777E+02  0.11872829113E+02 -0.39129574334E+02  0.43400724861E+02  0.00000000000E+00 0.  1.
         11    1    3    3    0    0 -0.14383581781E+02 -0.30592897853E+01  0.28515552991E+02  0.32084006008E+02  0.51100000000E-03 0. -1.
        -11    1    3    3    0    0  0.28914947537E+01 -0.22001527173E+01  0.12551755569E+01  0.38440707368E+01  0.51100000000E-03 0.  1.
        -12    1    3    3    0    0 -0.30521647492E+01 -0.66133866108E+01  0.93588457855E+01  0.11859198394E+02  0.00000000000E+00 0.  1.
</event>
<event>
 7    1  0.2834226E-010  0.4778727E+02  0.7816164E-02  0.1312668E+00
        -11   -1    0    0    0    0  0.00000000000E+00  0.00000000000E+00  0.45593999997E+02  0.45594000000E+02  0.51100000000E-03 0.  1.
         11   -1    0    0    0    0 -0.00000000000E+00 -0.00000000000E+00 -0.45593999997E+02  0.45594000000E+02  0.51100000000E-03 0. -1.
    9900012    2    1    2    0    0  0.15169363469E+02  0.40130371109E+02 -0.65625421321E+01  0.47787271520E+02  0.20000002167E+02 0.  0.
        -12    1    1    2    0    0 -0.15169363469E+02 -0.40130371109E+02  0.65625421321E+01  0.43400728480E+02  0.00000000000E+00 0.  1.
         11    1    3    3    0    0  0.18188398652E+02  0.29879875433E+02 -0.36028113315E+01  0.35165395649E+02  0.51100000000E-03 0. -1.
        -11    1    3    3    0    0 -0.25808931775E+01  0.79587203515E+01 -0.48039109219E+01  0.96477872921E+01  0.51100000000E-03 0.  1.
         12    1    3    3    0    0 -0.43814200523E+00  0.22917753244E+01  0.18441801214E+01  0.29740885787E+01  0.00000000000E+00 0. -1.
</event>
<event>
 7    1  0.2834226E-010  0.4778727E+02  0.7816164E-02  0.1312668E+00
        -11   -1    0    0    0    0  0.00000000000E+00  0.00000000000E+00  0.45593999997E+02  0.45594000000E+02  0.51100000000E-03 0.  1.
         11   -1    0    0    0    0 -0.00000000000E+00 -0.00000000000E+00 -0.45593999997E+02  0.45594000000E+02  0.51100000000E-03 0. -1.
    9900012    2    1    2    0    0 -0.36226218306E+02  0.12036624707E+02 -0.20649549001E+02  0.47787273036E+02  0.20000009079E+02 0.  0.
        -12    1    1    2    0    0  0.36226218306E+02 -0.12036624707E+02  0.20649549001E+02  0.43400726964E+02  0.00000000000E+00 0.  1.
         11    1    3    3    0    0 -0.15460156371E+02 -0.36479707503E+01 -0.66487474817E+01  0.17220045556E+02  0.51100000000E-03 0. -1.
        -11    1    3    3    0    0 -0.15246081428E+02  0.14865800102E+02 -0.91630805208E+01  0.23181825995E+02  0.51100000000E-03 0.  1.
        -12    1    3    3    0    0 -0.55199805059E+01  0.81879535582E+00 -0.48377209989E+01  0.73854014843E+01  0.00000000000E+00 0.  1.
</event>
<event>
 7    1  0.2834226E-010  0.4778727E+02  0.7816164E-02  0.1312668E+00
        -11   -1    0    0    0    0  0.00000000000E+00  0.00000000000E+00  0.45593999997E+02  0.45594000000E+02  0.51100000000E-03 0.  1.
         11   -1    0    0    0    0 -0.00000000000E+00 -0.00000000000E+00 -0.45593999997E+02  0.45594000000E+02  0.51100000000E-03 0. -1.
    9900012    2    1    2    0    0  0.38960979982E+02 -0.16177219742E+02  0.10196205528E+02  0.47787274120E+02  0.20000014023E+02 0.  0.
        -12    1    1    2    0    0 -0.38960979982E+02  0.16177219742E+02 -0.10196205528E+02  0.43400725880E+02  0.00000000000E+00 0.  1.
         11    1    3    3    0    0  0.31594376967E+02 -0.89531515466E+01  0.99438179895E+01  0.34310976306E+02  0.51100000000E-03 0. -1.
        -11    1    3    3    0    0 -0.15457701604E+01 -0.21623365912E+01 -0.15390622690E+01  0.30714520754E+01  0.51100000000E-03 0.  1.
        -12    1    3    3    0    0  0.89123731747E+01 -0.50617316046E+01  0.17914498080E+01  0.10404845739E+02  0.00000000000E+00 0.  1.
</event>
<event>
 7    1  0.2834226E-010  0.4778727E+02  0.7816164E-02  0.1312668E+00
        -11   -1    0    0    0    0  0.00000000000E+00  0.00000000000E+00  0.45593999997E+02  0.45594000000E+02  0.51100000000E-03 0.  1.
         11   -1    0    0    0    0 -0.00000000000E+00 -0.00000000000E+00 -0.45593999997E+02  0.45594000000E+02  0.51100000000E-03 0. -1.
    9900012    2    1    2    0    0  0.42589428502E+01 -0.40855298269E+02  0.14011753009E+02  0.47787271743E+02  0.20000003184E+02 0.  0.
        -12    1    1    2    0    0 -0.42589428502E+01  0.40855298269E+02 -0.14011753009E+02  0.43400728257E+02  0.00000000000E+00 0.  1.
         11    1    3    3    0    0  0.14913279396E+01 -0.21590932270E+02 -0.17163557342E+01  0.21710326865E+02  0.51100000000E-03 0. -1.
        -11    1    3    3    0    0  0.42043748123E+01 -0.18005168540E+02  0.12475374316E+02  0.22304659296E+02  0.51100000000E-03 0.  1.
         12    1    3    3    0    0 -0.14367599016E+01 -0.12591974592E+01  0.32527344277E+01  0.37722855821E+01  0.00000000000E+00 0. -1.
</event>
<event>
 7    1  0.2834226E-010  0.4778726E+02  0.7816164E-02  0.1312668E+00
        -11   -1    0    0    0    0  0.00000000000E+00  0.00000000000E+00  0.45593999997E+02  0.45594000000E+02  0.51100000000E-03 0. -1.
         11   -1    0    0    0    0 -0.00000000000E+00 -0.00000000000E+00 -0.45593999997E+02  0.45594000000E+02  0.51100000000E-03 0.  1.
    9900012    2    1    2    0    0 -0.15925832840E+02  0.19523043759E+02  0.35338965985E+02  0.47787263760E+02  0.19999966789E+02 0.  0.
        -12    1    1    2    0    0  0.15925832840E+02 -0.19523043759E+02 -0.35338965985E+02  0.43400736240E+02  0.00000000000E+00 0.  1.
         11    1    3    3    0    0 -0.59918516642E+01  0.61235455264E+01  0.17290287945E+02  0.19296480344E+02  0.51100000000E-03 0. -1.
        -11    1    3    3    0    0 -0.75563182180E+01  0.61594283792E+01  0.18442049008E+02  0.20860145609E+02  0.51100000000E-03 0.  1.
        -12    1    3    3    0    0 -0.23776629574E+01  0.72400698535E+01 -0.39337096833E+00  0.76306378070E+01  0.00000000000E+00 0.  1.
</event>
<event>
 7    1  0.2834226E-010  0.4778727E+02  0.7816164E-02  0.1312668E+00
        -11   -1    0    0    0    0  0.00000000000E+00  0.00000000000E+00  0.45593999997E+02  0.45594000000E+02  0.51100000000E-03 0.  1.
         11   -1    0    0    0    0 -0.00000000000E+00 -0.00000000000E+00 -0.45593999997E+02  0.45594000000E+02  0.51100000000E-03 0. -1.
    9900012    2    1    2    0    0  0.32590592611E+02 -0.11760094164E+02 -0.26137652655E+02  0.47787269271E+02  0.19999991914E+02 0.  0.
        -12    1    1    2    0    0 -0.32590592611E+02  0.11760094164E+02  0.26137652655E+02  0.43400730729E+02  0.00000000000E+00 0.  1.
         11    1    3    3    0    0  0.17706830129E+02 -0.64870228091E+01 -0.13000446621E+02  0.22904691893E+02  0.51100000000E-03 0. -1.
        -11    1    3    3    0    0 -0.11889576527E+01 -0.44065076618E+01 -0.52545687229E+01  0.69599872700E+01  0.51100000000E-03 0.  1.
        -12    1    3    3    0    0  0.16072720135E+02 -0.86656369292E+00 -0.78826373115E+01  0.17922590108E+02  0.00000000000E+00 0.  1.
</event>
<event>
 7    1  0.2834226E-010  0.4778727E+02  0.7816164E-02  0.1312668E+00
        -11   -1    0    0    0    0  0.00000000000E+00  0.00000000000E+00  0.45593999997E+02  0.45594000000E+02  0.51100000000E-03 0.  1.
         11   -1    0    0    0    0 -0.00000000000E+00 -0.00000000000E+00 -0.45593999997E+02  0.45594000000E+02  0.51100000000E-03 0. -1.
    9900012    2    1    2    0    0 -0.35166178796E+02 -0.25435330159E+02 -0.84596251221E-01  0.47787270652E+02  0.19999998212E+02 0.  0.
        -12    1    1    2    0    0  0.35166178796E+02  0.25435330159E+02  0.84596251221E-01  0.43400729348E+02  0.00000000000E+00 0.  1.
         11    1    3    3    0    0 -0.43924075453E+01 -0.11969135869E+02 -0.93214048422E+00  0.12783674888E+02  0.51100000000E-03 0. -1.
        -11    1    3    3    0    0 -0.71953054656E+00 -0.31192717799E+01  0.27490599016E+00  0.32129665745E+01  0.51100000000E-03 0.  1.
         12    1    3    3    0    0 -0.30054240704E+02 -0.10346922510E+02  0.57263824284E+00  0.31790629190E+02  0.00000000000E+00 0. -1.
</event>
<event>
 7    1  0.2834226E-010  0.4778727E+02  0.7816164E-02  0.1312668E+00
        -11   -1    0    0    0    0  0.00000000000E+00  0.00000000000E+00  0.45593999997E+02  0.45594000000E+02  0.51100000000E-03 0.  1.
         11   -1    0    0    0    0 -0.00000000000E+00 -0.00000000000E+00 -0.45593999997E+02  0.45594000000E+02  0.51100000000E-03 0. -1.
    9900012    2    1    2    0    0 -0.31181884489E+02  0.27602876336E+01 -0.30061505554E+02  0.47787271615E+02  0.20000002602E+02 0.  0.
        -12    1    1    2    0    0  0.31181884489E+02 -0.27602876336E+01  0.30061505554E+02  0.43400728385E+02  0.00000000000E+00 0.  1.
         11    1    3    3    0    0 -0.57743810900E+01 -0.87822495978E+00 -0.75990853110E+01  0.95844068089E+01  0.51100000000E-03 0. -1.
        -11    1    3    3    0    0 -0.17757446104E+02 -0.28375563244E+01 -0.21653756346E+02  0.28147180715E+02  0.51100000000E-03 0.  1.
        -12    1    3    3    0    0 -0.76500572956E+01  0.64760689178E+01 -0.80866389729E+00  0.10055684092E+02  0.00000000000E+00 0.  1.
</event>
<event>
 7    1  0.2834226E-010  0.4778725E+02  0.7816164E-02  0.1312668E+00
        -11   -1    0    0    0    0  0.00000000000E+00  0.00000000000E+00  0.45593999997E+02  0.45594000000E+02  0.51100000000E-03 0.  1.
         11   -1    0    0    0    0 -0.00000000000E+00 -0.00000000000E+00 -0.45593999997E+02  0.45594000000E+02  0.51100000000E-03 0. -1.
    9900012    2    1    2    0    0  0.10868095412E+02  0.38561735859E+02  0.16688373217E+02  0.47787253797E+02  0.19999921364E+02 0.  0.
        -12    1    1    2    0    0 -0.10868095412E+02 -0.38561735859E+02 -0.16688373217E+02  0.43400746203E+02  0.00000000000E+00 0.  1.
         11    1    3    3    0    0  0.10480219662E+02  0.10006819721E+02  0.39413198100E+01  0.15016838789E+02  0.51100000000E-03 0.  1.
        -11    1    3    3    0    0 -0.20622762106E+01  0.15182956425E+02  0.20233672060E+01  0.15455392719E+02  0.51100000000E-03 0. -1.
        -12    1    3    3    0    0  0.24501519605E+01  0.13371959712E+02  0.10723686201E+02  0.17315022290E+02  0.00000000000E+00 0.  1.
</event>
<event>
 7    1  0.2834226E-010  0.4778727E+02  0.7816164E-02  0.1312668E+00
        -11   -1    0    0    0    0  0.00000000000E+00  0.00000000000E+00  0.45593999997E+02  0.45594000000E+02  0.51100000000E-03 0.  1.
         11   -1    0    0    0    0 -0.00000000000E+00 -0.00000000000E+00 -0.45593999997E+02  0.45594000000E+02  0.51100000000E-03 0. -1.
    9900012    2    1    2    0    0  0.73102598337E+01 -0.20177885302E+02 -0.37723159418E+02  0.47787266013E+02  0.19999977061E+02 0.  0.
        -12    1    1    2    0    0 -0.73102598337E+01  0.20177885302E+02  0.37723159418E+02  0.43400733987E+02  0.00000000000E+00 0.  1.
         11    1    3    3    0    0 -0.29064447084E+01 -0.13709382767E+02 -0.18630107893E+02  0.23312561358E+02  0.51100000000E-03 0. -1.
        -11    1    3    3    0    0  0.59649323477E+00 -0.45144890882E+01 -0.10435501853E+02  0.11385785660E+02  0.51100000000E-03 0.  1.
         12    1    3    3    0    0  0.96202113074E+01 -0.19540134465E+01 -0.86575496725E+01  0.13088918996E+02  0.00000000000E+00 0. -1.
</event>
<event>
 7    1  0.2834226E-010  0.4778727E+02  0.7816164E-02  0.1312668E+00
        -11   -1    0    0    0    0  0.00000000000E+00  0.00000000000E+00  0.45593999997E+02  0.45594000000E+02  0.51100000000E-03 0. -1.
         11   -1    0    0    0    0 -0.00000000000E+00 -0.00000000000E+00 -0.45593999997E+02  0.45594000000E+02  0.51100000000E-03 0.  1.
    9900012    2    1    2    0    0  0.66640139727E+00 -0.35399307421E+02  0.25101157610E+02  0.47787272240E+02  0.20000005452E+02 0.  0.
        -12    1    1    2    0    0 -0.66640139727E+00  0.35399307421E+02 -0.25101157610E+02  0.43400727760E+02  0.00000000000E+00 0.  1.
         11    1    3    3    0    0  0.90247516305E+01 -0.14482706466E+02  0.88844013019E+01  0.19238698379E+02  0.51100000000E-03 0.  1.
        -11    1    3    3    0    0 -0.92790386256E+01 -0.17526408735E+02  0.12539870663E+02  0.23463246099E+02  0.51100000000E-03 0. -1.
         12    1    3    3    0    0  0.92068839240E+00 -0.33901922193E+01  0.36768856450E+01  0.50853277620E+01  0.00000000000E+00 0. -1.
</event>
<event>
 7    1  0.2834226E-010  0.4778727E+02  0.7816164E-02  0.1312668E+00
        -11   -1    0    0    0    0  0.00000000000E+00  0.00000000000E+00  0.45593999997E+02  0.45594000000E+02  0.51100000000E-03 0.  1.
         11   -1    0    0    0    0 -0.00000000000E+00 -0.00000000000E+00 -0.45593999997E+02  0.45594000000E+02  0.51100000000E-03 0. -1.
    9900012    2    1    2    0    0  0.35881963332E+02 -0.71937234989E+01 -0.23331489324E+02  0.47787270232E+02  0.19999996295E+02 0.  0.
        -12    1    1    2    0    0 -0.35881963332E+02  0.71937234989E+01  0.23331489324E+02  0.43400729768E+02  0.00000000000E+00 0.  1.
         11    1    3    3    0    0  0.13407602106E+02 -0.49323395118E+01  0.32637461770E+00  0.14289796638E+02  0.51100000000E-03 0. -1.
        -11    1    3    3    0    0  0.25003955618E+01 -0.27683291162E+01 -0.35029219170E+01  0.51172342411E+01  0.51100000000E-03 0.  1.
         12    1    3    3    0    0  0.19973965664E+02  0.50694512908E+00 -0.20154942025E+02  0.28380239353E+02  0.00000000000E+00 0. -1.
</event>
<event>
 7    1  0.2834226E-010  0.4778727E+02  0.7816164E-02  0.1312668E+00
        -11   -1    0    0    0    0  0.00000000000E+00  0.00000000000E+00  0.45593999997E+02  0.45594000000E+02  0.51100000000E-03 0. -1.
         11   -1    0    0    0    0 -0.00000000000E+00 -0.00000000000E+00 -0.45593999997E+02  0.45594000000E+02  0.51100000000E-03 0.  1.
    9900012    2    1    2    0    0  0.42683544879E+02 -0.68316898855E+01  0.38815639065E+01  0.47787268111E+02  0.19999986624E+02 0.  0.
        -12    1    1    2    0    0 -0.42683544879E+02  0.68316898855E+01 -0.38815639065E+01  0.43400731889E+02  0.00000000000E+00 0.  1.
         11    1    3    3    0    0  0.23726033207E+02 -0.59291534582E+01  0.65771340584E+01  0.25324656072E+02  0.51100000000E-03 0. -1.
        -11    1    3    3    0    0  0.64161550363E+01  0.51632151718E+01 -0.21916662942E+01  0.85222789068E+01  0.51100000000E-03 0.  1.
        -12    1    3    3    0    0  0.12541356636E+02 -0.60657515992E+01 -0.50390385768E+00  0.13940333132E+02  0.00000000000E+00 0.  1.
</event>
<event>
 7    1  0.2834226E-010  0.4778727E+02  0.7816164E-02  0.1312668E+00
        -11   -1    0    0    0    0  0.00000000000E+00  0.00000000000E+00  0.45593999997E+02  0.45594000000E+02  0.51100000000E-03 0.  1.
         11   -1    0    0    0    0 -0.00000000000E+00 -0.00000000000E+00 -0.45593999997E+02  0.45594000000E+02  0.51100000000E-03 0. -1.
    9900012    2    1    2    0    0  0.20547632622E+00 -0.39726412333E+02 -0.17475504078E+02  0.47787270742E+02  0.19999998620E+02 0.  0.
        -12    1    1    2    0    0 -0.20547632622E+00  0.39726412333E+02  0.17475504078E+02  0.43400729258E+02  0.00000000000E+00 0.  1.
         11    1    3    3    0    0  0.33101712464E+01 -0.21874788525E+02 -0.86104774792E+01  0.23740343919E+02  0.51100000000E-03 0. -1.
        -11    1    3    3    0    0 -0.74221219088E+01 -0.88321117037E+01 -0.79394252423E+01  0.14004590826E+02  0.51100000000E-03 0.  1.
        -12    1    3    3    0    0  0.43174269886E+01 -0.90195121037E+01 -0.92560135694E+00  0.10042335996E+02  0.00000000000E+00 0.  1.
</event>
<event>
 7    1  0.2834226E-010  0.4778726E+02  0.7816164E-02  0.1312668E+00
        -11   -1    0    0    0    0  0.00000000000E+00  0.00000000000E+00  0.45593999997E+02  0.45594000000E+02  0.51100000000E-03 0.  1.
         11   -1    0    0    0    0 -0.00000000000E+00 -0.00000000000E+00 -0.45593999997E+02  0.45594000000E+02  0.51100000000E-03 0. -1.
    9900012    2    1    2    0    0  0.16347557125E+02 -0.18567117659E+02 -0.35660109231E+02  0.47787264148E+02  0.19999968558E+02 0.  0.
        -12    1    1    2    0    0 -0.16347557125E+02  0.18567117659E+02  0.35660109231E+02  0.43400735852E+02  0.00000000000E+00 0.  1.
         11    1    3    3    0    0  0.16483694436E+02 -0.16281539096E+02 -0.32188117810E+02  0.39659496038E+02  0.51100000000E-03 0. -1.
        -11    1    3    3    0    0 -0.22255223584E+01 -0.22212960473E+01  0.90941473677E+00  0.32732462971E+01  0.51100000000E-03 0.  1.
         12    1    3    3    0    0  0.20893850473E+01 -0.64282516039E-01 -0.43814061575E+01  0.48545218132E+01  0.00000000000E+00 0. -1.
</event>
<event>
 7    1  0.2834226E-010  0.4778727E+02  0.7816164E-02  0.1312668E+00
        -11   -1    0    0    0    0  0.00000000000E+00  0.00000000000E+00  0.45593999997E+02  0.45594000000E+02  0.51100000000E-03 0.  1.
         11   -1    0    0    0    0 -0.00000000000E+00 -0.00000000000E+00 -0.45593999997E+02  0.45594000000E+02  0.51100000000E-03 0. -1.
    9900012    2    1    2    0    0 -0.26028813553E+02 -0.19953333020E+01 -0.34671930498E+02  0.47787271269E+02  0.20000001023E+02 0.  0.
        -12    1    1    2    0    0  0.26028813553E+02  0.19953333020E+01  0.34671930498E+02  0.43400728731E+02  0.00000000000E+00 0.  1.
         11    1    3    3    0    0 -0.21961002417E+02 -0.48878600859E+01 -0.17705647433E+02  0.28629822819E+02  0.51100000000E-03 0. -1.
        -11    1    3    3    0    0 -0.11981398376E+01  0.48055010224E+01 -0.67309124235E+01  0.83566477406E+01  0.51100000000E-03 0.  1.
         12    1    3    3    0    0 -0.28696712984E+01 -0.19129742385E+01 -0.10235370641E+02  0.10800800709E+02  0.00000000000E+00 0. -1.
</event>
<event>
 7    1  0.2834226E-010  0.4778730E+02  0.7816164E-02  0.1312668E+00
        -11   -1    0    0    0    0  0.00000000000E+00  0.00000000000E+00  0.45593999997E+02  0.45594000000E+02  0.51100000000E-03 0.  1.
         11   -1    0    0    0    0 -0.00000000000E+00 -0.00000000000E+00 -0.45593999997E+02  0.45594000000E+02  0.51100000000E-03 0. -1.
    9900012    2    1    2    0    0 -0.21967294053E+02  0.11690582573E+02 -0.35558251820E+02  0.47787297225E+02  0.20000119365E+02 0.  0.
        -12    1    1    2    0    0  0.21967294053E+02 -0.11690582573E+02  0.35558251820E+02  0.43400702775E+02  0.00000000000E+00 0.  1.
         11    1    3    3    0    0 -0.16918393296E+02  0.13046891602E+02 -0.17394414278E+02  0.27550300552E+02  0.51100000000E-03 0. -1.
        -11    1    3    3    0    0 -0.29104922583E+01 -0.37120267146E+01 -0.58291759006E+01  0.74986265047E+01  0.51100000000E-03 0.  1.
         12    1    3    3    0    0 -0.21384084993E+01  0.23557176858E+01 -0.12334661641E+02  0.12738370168E+02  0.00000000000E+00 0. -1.
</event>
<event>
 7    1  0.2834226E-010  0.4778727E+02  0.7816164E-02  0.1312668E+00
        -11   -1    0    0    0    0  0.00000000000E+00  0.00000000000E+00  0.45593999997E+02  0.45594000000E+02  0.51100000000E-03 0.  1.
         11   -1    0    0    0    0 -0.00000000000E+00 -0.00000000000E+00 -0.45593999997E+02  0.45594000000E+02  0.51100000000E-03 0. -1.
    9900012    2    1    2    0    0  0.42071696491E+02  0.10273481220E+02 -0.28374301752E+01  0.47787273370E+02  0.20000010604E+02 0.  0.
        -12    1    1    2    0    0 -0.42071696491E+02 -0.10273481220E+02  0.28374301752E+01  0.43400726630E+02  0.00000000000E+00 0.  1.
         11    1    3    3    0    0  0.20648011883E+02  0.13843567086E+02 -0.44455337648E+01  0.25253663399E+02  0.51100000000E-03 0. -1.
        -11    1    3    3    0    0  0.19668770909E+02 -0.36677304755E+01  0.30769425295E+01  0.20243032665E+02  0.51100000000E-03 0.  1.
        -12    1    3    3    0    0  0.17549136995E+01  0.97644610051E-01 -0.14688389399E+01  0.22905773058E+01  0.00000000000E+00 0.  1.
</event>
<event>
 7    1  0.2834226E-010  0.4778727E+02  0.7816164E-02  0.1312668E+00
        -11   -1    0    0    0    0  0.00000000000E+00  0.00000000000E+00  0.45593999997E+02  0.45594000000E+02  0.51100000000E-03 0. -1.
         11   -1    0    0    0    0 -0.00000000000E+00 -0.00000000000E+00 -0.45593999997E+02  0.45594000000E+02  0.51100000000E-03 0.  1.
    9900012    2    1    2    0    0  0.48751750552E+01  0.18385780113E+02  0.39010498174E+02  0.47787271780E+02  0.20000003355E+02 0.  0.
        -12    1    1    2    0    0 -0.48751750552E+01 -0.18385780113E+02 -0.39010498174E+02  0.43400728220E+02  0.00000000000E+00 0.  1.
         11    1    3    3    0    0 -0.24662256021E+01  0.47446585148E+01  0.24766232932E+02  0.25336936418E+02  0.51100000000E-03 0. -1.
        -11    1    3    3    0    0  0.62302841931E+01  0.46739736739E+01  0.38839077526E+01  0.87032873515E+01  0.51100000000E-03 0.  1.
         12    1    3    3    0    0  0.11111164642E+01  0.89671479246E+01  0.10360357490E+02  0.13747048011E+02  0.00000000000E+00 0. -1.
</event>
<event>
 7    1  0.2834226E-010  0.4778727E+02  0.7816164E-02  0.1312668E+00
        -11   -1    0    0    0    0  0.00000000000E+00  0.00000000000E+00  0.45593999997E+02  0.45594000000E+02  0.51100000000E-03 0. -1.
         11   -1    0    0    0    0 -0.00000000000E+00 -0.00000000000E+00 -0.45593999997E+02  0.45594000000E+02  0.51100000000E-03 0.  1.
    9900012    2    1    2    0    0  0.28173994241E+02  0.66931249037E+01  0.32327251174E+02  0.47787273728E+02  0.20000012235E+02 0.  0.
        -12    1    1    2    0    0 -0.28173994241E+02 -0.66931249037E+01 -0.32327251174E+02  0.43400726272E+02  0.00000000000E+00 0.  1.
         11    1    3    3    0    0  0.10215529837E+02 -0.52886401923E+01  0.40820727071E+01  0.12206149384E+02  0.51100000000E-03 0. -1.
        -11    1    3    3    0    0  0.10037924546E+02  0.58429843708E+01  0.14871259450E+02  0.18869413172E+02  0.51100000000E-03 0.  1.
         12    1    3    3    0    0  0.79205398579E+01  0.61387807252E+01  0.13373919017E+02  0.16711711172E+02  0.00000000000E+00 0. -1.
</event>
<event>
 7    1  0.2834226E-010  0.4778727E+02  0.7816164E-02  0.1312668E+00
        -11   -1    0    0    0    0  0.00000000000E+00  0.00000000000E+00  0.45593999997E+02  0.45594000000E+02  0.51100000000E-03 0.  1.
         11   -1    0    0    0    0 -0.00000000000E+00 -0.00000000000E+00 -0.45593999997E+02  0.45594000000E+02  0.51100000000E-03 0. -1.
    9900012    2    1    2    0    0 -0.25172108026E+02  0.29373165812E+02 -0.19677534793E+02  0.47787271114E+02  0.20000000318E+02 0.  0.
        -12    1    1    2    0    0  0.25172108026E+02 -0.29373165812E+02  0.19677534793E+02  0.43400728886E+02  0.00000000000E+00 0.  1.
         11    1    3    3    0    0 -0.18586023423E+01  0.12106164900E+02 -0.17832082305E+01  0.12377134689E+02  0.51100000000E-03 0.  1.
        -11    1    3    3    0    0 -0.17410920212E+02  0.17332163937E+02 -0.13346183939E+02  0.27958266673E+02  0.51100000000E-03 0. -1.
         12    1    3    3    0    0 -0.59025854712E+01 -0.65163025800E-01 -0.45481426243E+01  0.74518697516E+01  0.00000000000E+00 0. -1.
</event>
<event>
 7    1  0.2834226E-010  0.4778730E+02  0.7816164E-02  0.1312668E+00
        -11   -1    0    0    0    0  0.00000000000E+00  0.00000000000E+00  0.45593999997E+02  0.45594000000E+02  0.51100000000E-03 0.  1.
         11   -1    0    0    0    0 -0.00000000000E+00 -0.00000000000E+00 -0.45593999997E+02  0.45594000000E+02  0.51100000000E-03 0. -1.
    9900012    2    1    2    0    0  0.99246694196E+01  0.54672824420E-01 -0.42250665060E+02  0.47787300118E+02  0.20000132557E+02 0.  0.
        -12    1    1    2    0    0 -0.99246694196E+01 -0.54672824420E-01  0.42250665060E+02  0.43400699882E+02  0.00000000000E+00 0.  1.
         11    1    3    3    0    0  0.39024030014E+01  0.53347591989E+01 -0.35571600181E+02  0.36180480160E+02  0.51100000000E-03 0. -1.
        -11    1    3    3    0    0  0.15689306742E+01 -0.23246574093E+01  0.29520515069E+00  0.28200570691E+01  0.51100000000E-03 0.  1.
         12    1    3    3    0    0  0.44533357440E+01 -0.29554289651E+01 -0.69742700303E+01  0.87867628893E+01  0.00000000000E+00 0. -1.
</event>
<event>
 7    1  0.2834226E-010  0.4778728E+02  0.7816164E-02  0.1312668E+00
        -11   -1    0    0    0    0  0.00000000000E+00  0.00000000000E+00  0.45593999997E+02  0.45594000000E+02  0.51100000000E-03 0.  1.
         11   -1    0    0    0    0 -0.00000000000E+00 -0.00000000000E+00 -0.45593999997E+02  0.45594000000E+02  0.51100000000E-03 0. -1.
    9900012    2    1    2    0    0 -0.41565611223E+02 -0.88616358773E+01  0.87973818059E+01  0.47787279344E+02  0.20000037842E+02 0.  0.
        -12    1    1    2    0    0  0.41565611223E+02  0.88616358773E+01 -0.87973818059E+01  0.43400720656E+02  0.00000000000E+00 0.  1.
         11    1    3    3    0    0 -0.90544163914E+01 -0.29779270306E+01  0.67668885950E+01  0.11689366412E+02  0.51100000000E-03 0. -1.
        -11    1    3    3    0    0 -0.27898151422E+02  0.80788931179E+00  0.13674323419E+01  0.27943324952E+02  0.51100000000E-03 0.  1.
        -12    1    3    3    0    0 -0.46130434099E+01 -0.66915981585E+01  0.66306086904E+00  0.81545879805E+01  0.00000000000E+00 0.  1.
</event>
<event>
 7    1  0.2834226E-010  0.4778727E+02  0.7816164E-02  0.1312668E+00
        -11   -1    0    0    0    0  0.00000000000E+00  0.00000000000E+00  0.45593999997E+02  0.45594000000E+02  0.51100000000E-03 0. -1.
         11   -1    0    0    0    0 -0.00000000000E+00 -0.00000000000E+00 -0.45593999997E+02  0.45594000000E+02  0.51100000000E-03 0.  1.
    9900012    2    1    2    0    0 -0.28665672243E+02 -0.31652874207E+02  0.77458517734E+01  0.47787269241E+02  0.19999991777E+02 0.  0.
        -12    1    1    2    0    0  0.28665672243E+02  0.31652874207E+02 -0.77458517734E+01  0.43400730759E+02  0.00000000000E+00 0.  1.
         11    1    3    3    0    0 -0.16838940877E+02 -0.19364249610E+02  0.13395046606E+02  0.28947389634E+02  0.51100000000E-03 0. -1.
        -11    1    3    3    0    0 -0.76477465909E+01 -0.38881500014E+01 -0.23683553408E+01  0.89002722225E+01  0.51100000000E-03 0.  1.
         12    1    3    3    0    0 -0.41789847757E+01 -0.84004745954E+01 -0.32808394914E+01  0.99396073842E+01  0.00000000000E+00 0. -1.
</event>
<event>
 7    1  0.2834226E-010  0.4778727E+02  0.7816164E-02  0.1312668E+00
        -11   -1    0    0    0    0  0.00000000000E+00  0.00000000000E+00  0.45593999997E+02  0.45594000000E+02  0.51100000000E-03 0. -1.
         11   -1    0    0    0    0 -0.00000000000E+00 -0.00000000000E+00 -0.45593999997E+02  0.45594000000E+02  0.51100000000E-03 0.  1.
    9900012    2    1    2    0    0 -0.31907434223E+02  0.32944762763E+01  0.29235002493E+02  0.47787270704E+02  0.19999998449E+02 0.  0.
        -12    1    1    2    0    0  0.31907434223E+02 -0.32944762763E+01 -0.29235002493E+02  0.43400729296E+02  0.00000000000E+00 0.  1.
         11    1    3    3    0    0 -0.19254185407E+02  0.32005523144E+00  0.12469482258E+02  0.22941536110E+02  0.51100000000E-03 0. -1.
        -11    1    3    3    0    0 -0.75289811649E+00  0.50746863287E+01  0.93574123002E+01  0.10671478910E+02  0.51100000000E-03 0.  1.
        -12    1    3    3    0    0 -0.11900350700E+02 -0.21002652838E+01  0.74081079349E+01  0.14174255685E+02  0.00000000000E+00 0.  1.
</event>
<event>
 7    1  0.2834226E-010  0.4778727E+02  0.7816164E-02  0.1312668E+00
        -11   -1    0    0    0    0  0.00000000000E+00  0.00000000000E+00  0.45593999997E+02  0.45594000000E+02  0.51100000000E-03 0.  1.
         11   -1    0    0    0    0 -0.00000000000E+00 -0.00000000000E+00 -0.45593999997E+02  0.45594000000E+02  0.51100000000E-03 0. -1.
    9900012    2    1    2    0    0  0.18536420272E+02 -0.12997118804E+02 -0.37028359981E+02  0.47787269400E+02  0.19999992504E+02 0.  0.
        -12    1    1    2    0    0 -0.18536420272E+02  0.12997118804E+02  0.37028359981E+02  0.43400730600E+02  0.00000000000E+00 0.  1.
         11    1    3    3    0    0  0.71303490403E+01 -0.13851717396E+02 -0.21166226931E+02  0.26281573678E+02  0.51100000000E-03 0. -1.
        -11    1    3    3    0    0  0.66275557072E+01  0.47400083426E+01 -0.10827727896E+02  0.13551083550E+02  0.51100000000E-03 0.  1.
        -12    1    3    3    0    0  0.47785155244E+01 -0.38854097497E+01 -0.50344051549E+01  0.79546121718E+01  0.00000000000E+00 0.  1.
</event>
<event>
 7    1  0.2834226E-010  0.4778727E+02  0.7816164E-02  0.1312668E+00
        -11   -1    0    0    0    0  0.00000000000E+00  0.00000000000E+00  0.45593999997E+02  0.45594000000E+02  0.51100000000E-03 0. -1.
         11   -1    0    0    0    0 -0.00000000000E+00 -0.00000000000E+00 -0.45593999997E+02  0.45594000000E+02  0.51100000000E-03 0.  1.
    9900012    2    1    2    0    0 -0.66608539553E+00  0.31932537237E+02  0.29385246672E+02  0.47787270443E+02  0.19999997257E+02 0.  0.
        -12    1    1    2    0    0  0.66608539553E+00 -0.31932537237E+02 -0.29385246672E+02  0.43400729557E+02  0.00000000000E+00 0.  1.
         11    1    3    3    0    0  0.45154745245E+01  0.25098993624E+02  0.27996711009E+02  0.37870368610E+02  0.51100000000E-03 0. -1.
        -11    1    3    3    0    0 -0.40141314296E+01  0.45635494443E+01  0.31206458435E+01  0.68321054885E+01  0.51100000000E-03 0.  1.
         12    1    3    3    0    0 -0.11674284905E+01  0.22699941688E+01 -0.17321101805E+01  0.30847963440E+01  0.00000000000E+00 0. -1.
</event>
<event>
 7    1  0.2834226E-010  0.4778727E+02  0.7816164E-02  0.1312668E+00
        -11   -1    0    0    0    0  0.00000000000E+00  0.00000000000E+00  0.45593999997E+02  0.45594000000E+02  0.51100000000E-03 0.  1.
         11   -1    0    0    0    0 -0.00000000000E+00 -0.00000000000E+00 -0.45593999997E+02  0.45594000000E+02  0.51100000000E-03 0. -1.
    9900012    2    1    2    0    0  0.10042132355E+02 -0.23953564250E+02 -0.34770761320E+02  0.47787268378E+02  0.19999987844E+02 0.  0.
        -12    1    1    2    0    0 -0.10042132355E+02  0.23953564250E+02  0.34770761320E+02  0.43400731622E+02  0.00000000000E+00 0.  1.
         11    1    3    3    0    0 -0.23644236142E+01 -0.24350820529E+01 -0.15254028759E+02  0.15627076414E+02  0.51100000000E-03 0.  1.
        -11    1    3    3    0    0  0.11312954435E+02 -0.19419659647E+02 -0.14878961679E+02  0.26953471386E+02  0.51100000000E-03 0. -1.
         12    1    3    3    0    0  0.10936015341E+01 -0.20988225498E+01 -0.46377708831E+01  0.52067205777E+01  0.00000000000E+00 0. -1.
</event>
<event>
 7    1  0.2834226E-010  0.4778727E+02  0.7816164E-02  0.1312668E+00
        -11   -1    0    0    0    0  0.00000000000E+00  0.00000000000E+00  0.45593999997E+02  0.45594000000E+02  0.51100000000E-03 0. -1.
         11   -1    0    0    0    0 -0.00000000000E+00 -0.00000000000E+00 -0.45593999997E+02  0.45594000000E+02  0.51100000000E-03 0.  1.
    9900012    2    1    2    0    0  0.14325803233E+02  0.13778129912E+02  0.38581835963E+02  0.47787267651E+02  0.19999984527E+02 0.  0.
        -12    1    1    2    0    0 -0.14325803233E+02 -0.13778129912E+02 -0.38581835963E+02  0.43400732349E+02  0.00000000000E+00 0.  1.
         11    1    3    3    0    0  0.18021700006E+01  0.36847424652E+01  0.60029088854E+01  0.72704923556E+01  0.51100000000E-03 0. -1.
        -11    1    3    3    0    0 -0.36260839597E+01  0.55104659310E+01  0.14004393834E+02  0.15480205638E+02  0.51100000000E-03 0.  1.
        -12    1    3    3    0    0  0.16149717192E+02  0.45829215161E+01  0.18574533244E+02  0.25036569658E+02  0.00000000000E+00 0.  1.
</event>
<event>
 7    1  0.2834226E-010  0.4778728E+02  0.7816164E-02  0.1312668E+00
        -11   -1    0    0    0    0  0.00000000000E+00  0.00000000000E+00  0.45593999997E+02  0.45594000000E+02  0.51100000000E-03 0.  1.
         11   -1    0    0    0    0 -0.00000000000E+00 -0.00000000000E+00 -0.45593999997E+02  0.45594000000E+02  0.51100000000E-03 0. -1.
    9900012    2    1    2    0    0 -0.33305539100E+02 -0.44521676433E+01 -0.27468927994E+02  0.47787277234E+02  0.20000028220E+02 0.  0.
        -12    1    1    2    0    0  0.33305539100E+02  0.44521676433E+01  0.27468927994E+02  0.43400722766E+02  0.00000000000E+00 0.  1.
         11    1    3    3    0    0 -0.12020220312E+02 -0.11450337791E+02 -0.11488838307E+02  0.20188841913E+02  0.51100000000E-03 0.  1.
        -11    1    3    3    0    0 -0.13672521286E+02  0.54457268716E+01 -0.10930466577E+02  0.18332181521E+02  0.51100000000E-03 0. -1.
        -12    1    3    3    0    0 -0.76127975024E+01  0.15524432757E+01 -0.50496231101E+01  0.92662538003E+01  0.00000000000E+00 0.  1.
</event>
<event>
 7    1  0.2834226E-010  0.4778728E+02  0.7816164E-02  0.1312668E+00
        -11   -1    0    0    0    0  0.00000000000E+00  0.00000000000E+00  0.45593999997E+02  0.45594000000E+02  0.51100000000E-03 0.  1.
         11   -1    0    0    0    0 -0.00000000000E+00 -0.00000000000E+00 -0.45593999997E+02  0.45594000000E+02  0.51100000000E-03 0. -1.
    9900012    2    1    2    0    0 -0.13760528737E+02  0.12102458978E+02 -0.39342102846E+02  0.47787277416E+02  0.20000029052E+02 0.  0.
        -12    1    1    2    0    0  0.13760528737E+02 -0.12102458978E+02  0.39342102846E+02  0.43400722584E+02  0.00000000000E+00 0.  1.
         11    1    3    3    0    0  0.18273998499E+01  0.42426215604E+01 -0.15689770275E+02  0.16355675451E+02  0.51100000000E-03 0. -1.
        -11    1    3    3    0    0 -0.10448964559E+02 -0.25875244732E+00 -0.84188269211E+01  0.13421045420E+02  0.51100000000E-03 0.  1.
        -12    1    3    3    0    0 -0.51389640286E+01  0.81185898653E+01 -0.15233505650E+02  0.18010556545E+02  0.00000000000E+00 0.  1.
</event>
<event>
 7    1  0.2834226E-010  0.4778727E+02  0.7816164E-02  0.1312668E+00
        -11   -1    0    0    0    0  0.00000000000E+00  0.00000000000E+00  0.45593999997E+02  0.45594000000E+02  0.51100000000E-03 0.  1.
         11   -1    0    0    0    0 -0.00000000000E+00 -0.00000000000E+00 -0.45593999997E+02  0.45594000000E+02  0.51100000000E-03 0. -1.
    9900012    2    1    2    0    0 -0.21179931265E+02  0.19809547335E+02 -0.32289563959E+02  0.47787267349E+02  0.19999983151E+02 0.  0.
        -12    1    1    2    0    0  0.21179931265E+02 -0.19809547335E+02  0.32289563959E+02  0.43400732651E+02  0.00000000000E+00 0.  1.
         11    1    3    3    0    0 -0.10509698718E+02  0.76561184791E+01 -0.26152578009E+02  0.29206630310E+02  0.51100000000E-03 0. -1.
        -11    1    3    3    0    0 -0.67888709584E+01  0.11238798321E+02 -0.63546864185E+01  0.14587028359E+02  0.51100000000E-03 0.  1.
         12    1    3    3    0    0 -0.38813615888E+01  0.91463053416E+00  0.21770046851E+00  0.39936086802E+01  0.00000000000E+00 0. -1.
</event>
<event>
 7    1  0.2834226E-010  0.4778727E+02  0.7816164E-02  0.1312668E+00
        -11   -1    0    0    0    0  0.00000000000E+00  0.00000000000E+00  0.45593999997E+02  0.45594000000E+02  0.51100000000E-03 0. -1.
         11   -1    0    0    0    0 -0.00000000000E+00 -0.00000000000E+00 -0.45593999997E+02  0.45594000000E+02  0.51100000000E-03 0.  1.
    9900012    2    1    2    0    0 -0.33835714551E+02 -0.24526166667E+02  0.11714718139E+02  0.47787273605E+02  0.20000011674E+02 0.  0.
        -12    1    1    2    0    0  0.33835714551E+02  0.24526166667E+02 -0.11714718139E+02  0.43400726395E+02  0.00000000000E+00 0.  1.
         11    1    3    3    0    0 -0.26866388687E+02 -0.18727160275E+02  0.51838970288E+01  0.33156932333E+02  0.51100000000E-03 0. -1.
        -11    1    3    3    0    0 -0.49323432728E+00 -0.65419437834E+01  0.35982837915E+01  0.74825099447E+01  0.51100000000E-03 0.  1.
        -12    1    3    3    0    0 -0.64760915371E+01  0.74293739159E+00  0.29325373182E+01  0.71478313275E+01  0.00000000000E+00 0.  1.
</event>
<event>
 7    1  0.2834226E-010  0.4778730E+02  0.7816164E-02  0.1312668E+00
        -11   -1    0    0    0    0  0.00000000000E+00  0.00000000000E+00  0.45593999997E+02  0.45594000000E+02  0.51100000000E-03 0. -1.
         11   -1    0    0    0    0 -0.00000000000E+00 -0.00000000000E+00 -0.45593999997E+02  0.45594000000E+02  0.51100000000E-03 0.  1.
    9900012    2    1    2    0    0  0.30733099312E+02  0.29670858581E+02 -0.76640533074E+01  0.47787297755E+02  0.20000121786E+02 0.  0.
        -12    1    1    2    0    0 -0.30733099312E+02 -0.29670858581E+02  0.76640533074E+01  0.43400702245E+02  0.00000000000E+00 0.  1.
         11    1    3    3    0    0  0.20208679039E+02  0.24520520141E+02 -0.98077602372E+01  0.33254154291E+02  0.51100000000E-03 0. -1.
        -11    1    3    3    0    0  0.72010137610E+01  0.59419044912E+01  0.45189956368E+01  0.10372181545E+02  0.51100000000E-03 0.  1.
         12    1    3    3    0    0  0.33234065121E+01 -0.79156605113E+00 -0.23752887070E+01  0.41609619200E+01  0.00000000000E+00 0. -1.
</event>
<event>
 7    1  0.2834226E-010  0.4778727E+02  0.7816164E-02  0.1312668E+00
        -11   -1    0    0    0    0  0.00000000000E+00  0.00000000000E+00  0.45593999997E+02  0.45594000000E+02  0.51100000000E-03 0. -1.
         11   -1    0    0    0    0 -0.00000000000E+00 -0.00000000000E+00 -0.45593999997E+02  0.45594000000E+02  0.51100000000E-03 0.  1.
    9900012    2    1    2    0    0 -0.36826491845E+02  0.69147405229E+00  0.22955490524E+02  0.47787272089E+02  0.20000004762E+02 0.  0.
        -12    1    1    2    0    0  0.36826491845E+02 -0.69147405229E+00 -0.22955490524E+02  0.43400727911E+02  0.00000000000E+00 0.  1.
         11    1    3    3    0    0 -0.10962763352E+02  0.22540945817E+01 -0.10020787731E+01  0.11236871665E+02  0.51100000000E-03 0. -1.
        -11    1    3    3    0    0 -0.72806709683E+00 -0.64244081960E+00 -0.79958813763E+00  0.12578367760E+01  0.51100000000E-03 0.  1.
         12    1    3    3    0    0 -0.25135661397E+02 -0.92017970986E+00  0.24757157435E+02  0.35292563647E+02  0.00000000000E+00 0. -1.
</event>
<event>
 7    1  0.2834226E-010  0.4778727E+02  0.7816164E-02  0.1312668E+00
        -11   -1    0    0    0    0  0.00000000000E+00  0.00000000000E+00  0.45593999997E+02  0.45594000000E+02  0.51100000000E-03 0.  1.
         11   -1    0    0    0    0 -0.00000000000E+00 -0.00000000000E+00 -0.45593999997E+02  0.45594000000E+02  0.51100000000E-03 0. -1.
    9900012    2    1    2    0    0  0.17142658515E+02 -0.38370972911E+01 -0.39686638220E+02  0.47787270631E+02  0.19999998114E+02 0.  0.
        -12    1    1    2    0    0 -0.17142658515E+02  0.38370972911E+01  0.39686638220E+02  0.43400729369E+02  0.00000000000E+00 0.  1.
         11    1    3    3    0    0  0.73684789783E+01 -0.71442341848E+01 -0.99473824869E+01  0.14292829781E+02  0.51100000000E-03 0. -1.
        -11    1    3    3    0    0  0.69202827403E+01  0.10980027103E+01 -0.28968738082E+02  0.29804088805E+02  0.51100000000E-03 0.  1.
        -12    1    3    3    0    0  0.28538967967E+01  0.22091341835E+01 -0.77051765063E+00  0.36903520451E+01  0.00000000000E+00 0.  1.
</event>
<event>
 7    1  0.2834226E-010  0.4778727E+02  0.7816164E-02  0.1312668E+00
        -11   -1    0    0    0    0  0.00000000000E+00  0.00000000000E+00  0.45593999997E+02  0.45594000000E+02  0.51100000000E-03 0.  1.
         11   -1    0    0    0    0 -0.00000000000E+00 -0.00000000000E+00 -0.45593999997E+02  0.45594000000E+02  0.51100000000E-03 0. -1.
    9900012    2    1    2    0    0  0.86665318901E+01 -0.25047413262E+02 -0.34367735851E+02  0.47787274734E+02  0.20000016820E+02 0.  0.
        -12    1    1    2    0    0 -0.86665318901E+01  0.25047413262E+02  0.34367735851E+02  0.43400725266E+02  0.00000000000E+00 0.  1.
         11    1    3    3    0    0 -0.42190346501E+01 -0.35260061540E+01 -0.12977190848E+02  0.14093986496E+02  0.51100000000E-03 0. -1.
        -11    1    3    3    0    0  0.12200622375E+02 -0.21377035828E+02 -0.21802277908E+02  0.32881182603E+02  0.51100000000E-03 0.  1.
        -12    1    3    3    0    0  0.68494416473E+00 -0.14437128023E+00  0.41173290559E+00  0.81210563408E+00  0.00000000000E+00 0.  1.
</event>
<event>
 7    1  0.2834226E-010  0.4778727E+02  0.7816164E-02  0.1312668E+00
        -11   -1    0    0    0    0  0.00000000000E+00  0.00000000000E+00  0.45593999997E+02  0.45594000000E+02  0.51100000000E-03 0. -1.
         11   -1    0    0    0    0 -0.00000000000E+00 -0.00000000000E+00 -0.45593999997E+02  0.45594000000E+02  0.51100000000E-03 0.  1.
    9900012    2    1    2    0    0  0.21925196077E+02 -0.15388429858E+02 -0.34148279873E+02  0.47787274029E+02  0.20000013609E+02 0.  0.
        -12    1    1    2    0    0 -0.21925196077E+02  0.15388429858E+02  0.34148279873E+02  0.43400725971E+02  0.00000000000E+00 0.  1.
         11    1    3    3    0    0 -0.32879083883E+00 -0.36379773022E+01 -0.32898309562E+00  0.36675894543E+01  0.51100000000E-03 0. -1.
        -11    1    3    3    0    0  0.11192231516E+01 -0.27229031661E+01 -0.12258684762E+02  0.12607228659E+02  0.51100000000E-03 0.  1.
         12    1    3    3    0    0  0.21134763765E+02 -0.90275493893E+01 -0.21560612015E+02  0.31512455916E+02  0.00000000000E+00 0. -1.
</event>
<event>
 7    1  0.2834226E-010  0.4778727E+02  0.7816164E-02  0.1312668E+00
        -11   -1    0    0    0    0  0.00000000000E+00  0.00000000000E+00  0.45593999997E+02  0.45594000000E+02  0.51100000000E-03 0.  1.
         11   -1    0    0    0    0 -0.00000000000E+00 -0.00000000000E+00 -0.45593999997E+02  0.45594000000E+02  0.51100000000E-03 0. -1.
    9900012    2    1    2    0    0  0.71951212618E+01  0.23917037800E+02 -0.35494069641E+02  0.47787269052E+02  0.19999990917E+02 0.  0.
        -12    1    1    2    0    0 -0.71951212618E+01 -0.23917037800E+02  0.35494069641E+02  0.43400730948E+02  0.00000000000E+00 0.  1.
         11    1    3    3    0    0  0.69854900319E+01  0.15787563376E+02 -0.28426062407E+02  0.33257860012E+02  0.51100000000E-03 0. -1.
        -11    1    3    3    0    0  0.14120516331E+01 -0.86818747880E+00  0.13587841284E+01  0.21433464212E+01  0.51100000000E-03 0.  1.
         12    1    3    3    0    0 -0.12024204032E+01  0.89976619031E+01 -0.84267913625E+01  0.12386062620E+02  0.00000000000E+00 0. -1.
</event>
<event>
 7    1  0.2834226E-010  0.4778728E+02  0.7816164E-02  0.1312668E+00
        -11   -1    0    0    0    0  0.00000000000E+00  0.00000000000E+00  0.45593999997E+02  0.45594000000E+02  0.51100000000E-03 0. -1.
         11   -1    0    0    0    0 -0.00000000000E+00 -0.00000000000E+00 -0.45593999997E+02  0.45594000000E+02  0.51100000000E-03 0.  1.
    9900012    2    1    2    0    0  0.21994196259E+02  0.98284605026E+01  0.36100961906E+02  0.47787277017E+02  0.20000027230E+02 0.  0.
        -12    1    1    2    0    0 -0.21994196259E+02 -0.98284605026E+01 -0.36100961906E+02  0.43400722983E+02  0.00000000000E+00 0.  1.
         11    1    3    3    0    0 -0.13438175713E+01  0.23887384931E+01 -0.95060298482E-01  0.27424357741E+01  0.51100000000E-03 0.  1.
        -11    1    3    3    0    0  0.18930045836E+02  0.10230438145E+02  0.30425943357E+02  0.37265889624E+02  0.51100000000E-03 0. -1.
        -12    1    3    3    0    0  0.44079679945E+01 -0.27907161353E+01  0.57700788472E+01  0.77789516190E+01  0.00000000000E+00 0.  1.
</event>
<event>
 7    1  0.2834226E-010  0.4778727E+02  0.7816164E-02  0.1312668E+00
        -11   -1    0    0    0    0  0.00000000000E+00  0.00000000000E+00  0.45593999997E+02  0.45594000000E+02  0.51100000000E-03 0. -1.
         11   -1    0    0    0    0 -0.00000000000E+00 -0.00000000000E+00 -0.45593999997E+02  0.45594000000E+02  0.51100000000E-03 0.  1.
    9900012    2    1    2    0    0  0.23089792004E+02  0.17473473926E+02  0.32328972156E+02  0.47787271590E+02  0.20000002485E+02 0.  0.
        -12    1    1    2    0    0 -0.23089792004E+02 -0.17473473926E+02 -0.32328972156E+02  0.43400728410E+02  0.00000000000E+00 0.  1.
         11    1    3    3    0    0  0.12643603712E+02  0.21897068824E+01  0.13469999241E+02  0.18603666598E+02  0.51100000000E-03 0.  1.
        -11    1    3    3    0    0 -0.23148190148E+01  0.57699515141E+01  0.68047746920E+01  0.92171409025E+01  0.51100000000E-03 0. -1.
        -12    1    3    3    0    0  0.12761007307E+02  0.95138155299E+01  0.12054198224E+02  0.19966464090E+02  0.00000000000E+00 0.  1.
</event>
<event>
 7    1  0.2834226E-010  0.4778727E+02  0.7816164E-02  0.1312668E+00
        -11   -1    0    0    0    0  0.00000000000E+00  0.00000000000E+00  0.45593999997E+02  0.45594000000E+02  0.51100000000E-03 0. -1.
         11   -1    0    0    0    0 -0.00000000000E+00 -0.00000000000E+00 -0.45593999997E+02  0.45594000000E+02  0.51100000000E-03 0.  1.
    9900012    2    1    2    0    0  0.28460804002E+02  0.22677101661E+02  0.23650679296E+02  0.47787274944E+02  0.20000017781E+02 0.  0.
        -12    1    1    2    0    0 -0.28460804002E+02 -0.22677101661E+02 -0.23650679296E+02  0.43400725056E+02  0.00000000000E+00 0.  1.
         11    1    3    3    0    0  0.14405724010E+02  0.20817241304E+02  0.13251096984E+02  0.28574009017E+02  0.51100000000E-03 0. -1.
        -11    1    3    3    0    0  0.20003690405E+01 -0.23777793861E+01  0.35410578844E+01  0.47110935364E+01  0.51100000000E-03 0.  1.
        -12    1    3    3    0    0  0.12054710951E+02  0.42376397424E+01  0.68585244282E+01  0.14502172390E+02  0.00000000000E+00 0.  1.
</event>
<event>
 7    1  0.2834226E-010  0.4778727E+02  0.7816164E-02  0.1312668E+00
        -11   -1    0    0    0    0  0.00000000000E+00  0.00000000000E+00  0.45593999997E+02  0.45594000000E+02  0.51100000000E-03 0. -1.
         11   -1    0    0    0    0 -0.00000000000E+00 -0.00000000000E+00 -0.45593999997E+02  0.45594000000E+02  0.51100000000E-03 0.  1.
    9900012    2    1    2    0    0  0.23998403629E+02  0.15602391352E+02  0.32623084618E+02  0.47787266796E+02  0.19999980630E+02 0.  0.
        -12    1    1    2    0    0 -0.23998403629E+02 -0.15602391352E+02 -0.32623084618E+02  0.43400733204E+02  0.00000000000E+00 0.  1.
         11    1    3    3    0    0  0.56785385990E+01  0.14526582768E+01 -0.18827521949E+01  0.61563603516E+01  0.51100000000E-03 0.  1.
        -11    1    3    3    0    0  0.12348763925E+02  0.84791754674E+01  0.20614497850E+02  0.25482266558E+02  0.51100000000E-03 0. -1.
        -12    1    3    3    0    0  0.59711011045E+01  0.56705576074E+01  0.13891338963E+02  0.16148639886E+02  0.00000000000E+00 0.  1.
</event>
<event>
 7    1  0.2834226E-010  0.4778727E+02  0.7816164E-02  0.1312668E+00
        -11   -1    0    0    0    0  0.00000000000E+00  0.00000000000E+00  0.45593999997E+02  0.45594000000E+02  0.51100000000E-03 0. -1.
         11   -1    0    0    0    0 -0.00000000000E+00 -0.00000000000E+00 -0.45593999997E+02  0.45594000000E+02  0.51100000000E-03 0.  1.
    9900012    2    1    2    0    0  0.12373298025E+02  0.34467521082E+02  0.23291942155E+02  0.47787273244E+02  0.20000010029E+02 0.  0.
        -12    1    1    2    0    0 -0.12373298025E+02 -0.34467521082E+02 -0.23291942155E+02  0.43400726756E+02  0.00000000000E+00 0.  1.
         11    1    3    3    0    0  0.49197391546E+00  0.23674773546E+01  0.33788123662E+01  0.41549200504E+01  0.51100000000E-03 0. -1.
        -11    1    3    3    0    0  0.12749604068E+02  0.20693749943E+02  0.49625981078E+01  0.24807480139E+02  0.51100000000E-03 0.  1.
        -12    1    3    3    0    0 -0.86827995835E+00  0.11406293785E+02  0.14950531681E+02  0.18824873055E+02  0.00000000000E+00 0.  1.
</event>
<event>
 7    1  0.2834226E-010  0.4778727E+02  0.7816164E-02  0.1312668E+00
        -11   -1    0    0    0    0  0.00000000000E+00  0.00000000000E+00  0.45593999997E+02  0.45594000000E+02  0.51100000000E-03 0.  1.
         11   -1    0    0    0    0 -0.00000000000E+00 -0.00000000000E+00 -0.45593999997E+02  0.45594000000E+02  0.51100000000E-03 0. -1.
    9900012    2    1    2    0    0 -0.30101725000E+02  0.30654770240E+02 -0.61477118714E+01  0.47787272498E+02  0.20000006628E+02 0.  0.
        -12    1    1    2    0    0  0.30101725000E+02 -0.30654770240E+02  0.61477118714E+01  0.43400727502E+02  0.00000000000E+00 0.  1.
         11    1    3    3    0    0 -0.69557485621E+01  0.48456522191E+01 -0.87009824039E+00  0.85217283867E+01  0.51100000000E-03 0. -1.
        -11    1    3    3    0    0 -0.12393357930E+02  0.41785578891E+01 -0.73820019608E+01  0.15018309493E+02  0.51100000000E-03 0.  1.
        -12    1    3    3    0    0 -0.10752618507E+02  0.21630560132E+02  0.21043883298E+01  0.24247234618E+02  0.00000000000E+00 0.  1.
</event>
<event>
 7    1  0.2834226E-010  0.4778728E+02  0.7816164E-02  0.1312668E+00
        -11   -1    0    0    0    0  0.00000000000E+00  0.00000000000E+00  0.45593999997E+02  0.45594000000E+02  0.51100000000E-03 0.  1.
         11   -1    0    0    0    0 -0.00000000000E+00 -0.00000000000E+00 -0.45593999997E+02  0.45594000000E+02  0.51100000000E-03 0. -1.
    9900012    2    1    2    0    0  0.39684672968E+02 -0.84517434166E+01 -0.15405118618E+02  0.47787275179E+02  0.20000018851E+02 0.  0.
        -12    1    1    2    0    0 -0.39684672968E+02  0.84517434166E+01  0.15405118618E+02  0.43400724821E+02  0.00000000000E+00 0.  1.
         11    1    3    3    0    0  0.35294587673E+01 -0.49342376745E+01 -0.78783471371E+01  0.99434468115E+01  0.51100000000E-03 0. -1.
        -11    1    3    3    0    0  0.15630435279E+02 -0.13631473596E+01  0.50645725515E+00  0.15697935436E+02  0.51100000000E-03 0.  1.
         12    1    3    3    0    0  0.20524778921E+02 -0.21543583825E+01 -0.80332287358E+01  0.22145892931E+02  0.00000000000E+00 0. -1.
</event>
<event>
 7    1  0.2834226E-010  0.4778728E+02  0.7816164E-02  0.1312668E+00
        -11   -1    0    0    0    0  0.00000000000E+00  0.00000000000E+00  0.45593999997E+02  0.45594000000E+02  0.51100000000E-03 0.  1.
         11   -1    0    0    0    0 -0.00000000000E+00 -0.00000000000E+00 -0.45593999997E+02  0.45594000000E+02  0.51100000000E-03 0. -1.
    9900012    2    1    2    0    0  0.31479567989E+01  0.99852566007E+01 -0.42118973010E+02  0.47787275711E+02  0.20000021277E+02 0.  0.
        -12    1    1    2    0    0 -0.31479567989E+01 -0.99852566007E+01  0.42118973010E+02  0.43400724289E+02  0.00000000000E+00 0.  1.
         11    1    3    3    0    0  0.49627944201E+00 -0.44943650293E+01 -0.18917843838E+02  0.19450717880E+02  0.51100000000E-03 0. -1.
        -11    1    3    3    0    0 -0.25204101705E+00  0.96505863828E+01 -0.18986668637E+02  0.21300021793E+02  0.51100000000E-03 0.  1.
         12    1    3    3    0    0  0.29037183739E+01  0.48290352471E+01 -0.42144605349E+01  0.70365360380E+01  0.00000000000E+00 0. -1.
</event>
<event>
 7    1  0.2834226E-010  0.4778727E+02  0.7816164E-02  0.1312668E+00
        -11   -1    0    0    0    0  0.00000000000E+00  0.00000000000E+00  0.45593999997E+02  0.45594000000E+02  0.51100000000E-03 0. -1.
         11   -1    0    0    0    0 -0.00000000000E+00 -0.00000000000E+00 -0.45593999997E+02  0.45594000000E+02  0.51100000000E-03 0.  1.
    9900012    2    1    2    0    0  0.83717114894E+01 -0.42261012394E+02  0.52482924640E+01  0.47787270794E+02  0.19999998859E+02 0.  0.
        -12    1    1    2    0    0 -0.83717114894E+01  0.42261012394E+02 -0.52482924640E+01  0.43400729206E+02  0.00000000000E+00 0.  1.
         11    1    3    3    0    0  0.24997766813E+01 -0.34452399214E+02  0.95431105868E+01  0.35836959344E+02  0.51100000000E-03 0. -1.
        -11    1    3    3    0    0  0.12549112962E+01 -0.33090715352E+01 -0.42139018240E+01  0.55028833924E+01  0.51100000000E-03 0.  1.
         12    1    3    3    0    0  0.46170235118E+01 -0.44995416443E+01 -0.80916298703E-01  0.64474280582E+01  0.00000000000E+00 0. -1.
</event>
<event>
 7    1  0.2834226E-010  0.4778728E+02  0.7816164E-02  0.1312668E+00
        -11   -1    0    0    0    0  0.00000000000E+00  0.00000000000E+00  0.45593999997E+02  0.45594000000E+02  0.51100000000E-03 0.  1.
         11   -1    0    0    0    0 -0.00000000000E+00 -0.00000000000E+00 -0.45593999997E+02  0.45594000000E+02  0.51100000000E-03 0. -1.
    9900012    2    1    2    0    0 -0.17012196197E+02  0.28044329492E+02 -0.28420474029E+02  0.47787279037E+02  0.20000036441E+02 0.  0.
        -12    1    1    2    0    0  0.17012196197E+02 -0.28044329492E+02  0.28420474029E+02  0.43400720963E+02  0.00000000000E+00 0.  1.
         11    1    3    3    0    0 -0.11357599477E+02  0.19768326195E+02 -0.12600281971E+02  0.26048971044E+02  0.51100000000E-03 0. -1.
        -11    1    3    3    0    0 -0.43226025358E+01 -0.15649637419E+01 -0.74326788959E+01  0.87394919776E+01  0.51100000000E-03 0.  1.
        -12    1    3    3    0    0 -0.13319941842E+01  0.98409670381E+01 -0.83875131622E+01  0.12998816015E+02  0.00000000000E+00 0.  1.
</event>
<event>
 7    1  0.2834226E-010  0.4778727E+02  0.7816164E-02  0.1312668E+00
        -11   -1    0    0    0    0  0.00000000000E+00  0.00000000000E+00  0.45593999997E+02  0.45594000000E+02  0.51100000000E-03 0.  1.
         11   -1    0    0    0    0 -0.00000000000E+00 -0.00000000000E+00 -0.45593999997E+02  0.45594000000E+02  0.51100000000E-03 0. -1.
    9900012    2    1    2    0    0  0.35604038395E+02 -0.24793093523E+02  0.11307117254E+01  0.47787267916E+02  0.19999985734E+02 0.  0.
        -12    1    1    2    0    0 -0.35604038395E+02  0.24793093523E+02 -0.11307117254E+01  0.43400732084E+02  0.00000000000E+00 0.  1.
         11    1    3    3    0    0 -0.73418741096E+00 -0.54515803203E+00 -0.26744952704E+01  0.28265090920E+01  0.51100000000E-03 0. -1.
        -11    1    3    3    0    0  0.72179021463E+00 -0.32840507530E+01 -0.53734599393E+00  0.34051007974E+01  0.51100000000E-03 0.  1.
         12    1    3    3    0    0  0.35616435591E+02 -0.20963884738E+02  0.43425529897E+01  0.41555658026E+02  0.00000000000E+00 0. -1.
</event>
<event>
 7    1  0.2834226E-010  0.4778727E+02  0.7816164E-02  0.1312668E+00
        -11   -1    0    0    0    0  0.00000000000E+00  0.00000000000E+00  0.45593999997E+02  0.45594000000E+02  0.51100000000E-03 0. -1.
         11   -1    0    0    0    0 -0.00000000000E+00 -0.00000000000E+00 -0.45593999997E+02  0.45594000000E+02  0.51100000000E-03 0.  1.
    9900012    2    1    2    0    0 -0.79036814637E+01  0.41374858552E+02 -0.10453522393E+02  0.47787271535E+02  0.20000002235E+02 0.  0.
        -12    1    1    2    0    0  0.79036814637E+01 -0.41374858552E+02  0.10453522393E+02  0.43400728465E+02  0.00000000000E+00 0.  1.
         11    1    3    3    0    0 -0.63639917781E+01  0.24271093990E+02 -0.12262082935E+02  0.27927496719E+02  0.51100000000E-03 0. -1.
        -11    1    3    3    0    0  0.21213948732E+01  0.51068847397E+00  0.18605385525E+01  0.28675290569E+01  0.51100000000E-03 0.  1.
         12    1    3    3    0    0 -0.36610845587E+01  0.16593076088E+02 -0.51978010399E-01  0.16992245759E+02  0.00000000000E+00 0. -1.
</event>
<event>
 7    1  0.2834226E-010  0.4778727E+02  0.7816164E-02  0.1312668E+00
        -11   -1    0    0    0    0  0.00000000000E+00  0.00000000000E+00  0.45593999997E+02  0.45594000000E+02  0.51100000000E-03 0. -1.
         11   -1    0    0    0    0 -0.00000000000E+00 -0.00000000000E+00 -0.45593999997E+02  0.45594000000E+02  0.51100000000E-03 0.  1.
    9900012    2    1    2    0    0  0.33104233093E+02  0.27828866129E+02 -0.36452376723E+01  0.47787265025E+02  0.19999972553E+02 0.  0.
        -12    1    1    2    0    0 -0.33104233093E+02 -0.27828866129E+02  0.36452376723E+01  0.43400734975E+02  0.00000000000E+00 0.  1.
         11    1    3    3    0    0  0.15628890598E+02  0.12903826200E+02 -0.21989679395E+01  0.20386427156E+02  0.51100000000E-03 0. -1.
        -11    1    3    3    0    0  0.97267912732E+01  0.33090718434E+01  0.56634474802E+01  0.11731797073E+02  0.51100000000E-03 0.  1.
        -12    1    3    3    0    0  0.77485512218E+01  0.11615968086E+02 -0.71097172130E+01  0.15669040796E+02  0.00000000000E+00 0.  1.
</event>
<event>
 7    1  0.2834226E-010  0.4778727E+02  0.7816164E-02  0.1312668E+00
        -11   -1    0    0    0    0  0.00000000000E+00  0.00000000000E+00  0.45593999997E+02  0.45594000000E+02  0.51100000000E-03 0.  1.
         11   -1    0    0    0    0 -0.00000000000E+00 -0.00000000000E+00 -0.45593999997E+02  0.45594000000E+02  0.51100000000E-03 0. -1.
    9900012    2    1    2    0    0 -0.48347563765E+01 -0.29247543486E+02 -0.31699047417E+02  0.47787271016E+02  0.19999999872E+02 0.  0.
        -12    1    1    2    0    0  0.48347563765E+01  0.29247543486E+02  0.31699047417E+02  0.43400728984E+02  0.00000000000E+00 0.  1.
         11    1    3    3    0    0  0.35146152566E+01 -0.22316525585E+02 -0.22020715742E+02  0.31548244905E+02  0.51100000000E-03 0. -1.
        -11    1    3    3    0    0 -0.59398213562E+01 -0.62407636313E+01 -0.30282985011E+01  0.91323162735E+01  0.51100000000E-03 0.  1.
        -12    1    3    3    0    0 -0.24095502769E+01 -0.69025426972E+00 -0.66500331744E+01  0.71067098375E+01  0.00000000000E+00 0.  1.
</event>
<event>
 7    1  0.2834226E-010  0.4778724E+02  0.7816164E-02  0.1312668E+00
        -11   -1    0    0    0    0  0.00000000000E+00  0.00000000000E+00  0.45593999997E+02  0.45594000000E+02  0.51100000000E-03 0.  1.
         11   -1    0    0    0    0 -0.00000000000E+00 -0.00000000000E+00 -0.45593999997E+02  0.45594000000E+02  0.51100000000E-03 0. -1.
    9900012    2    1    2    0    0 -0.53408708811E+01  0.19048917730E+02 -0.38629524513E+02  0.47787235807E+02  0.19999839338E+02 0.  0.
        -12    1    1    2    0    0  0.53408708811E+01 -0.19048917730E+02  0.38629524513E+02  0.43400764193E+02  0.00000000000E+00 0.  1.
         11    1    3    3    0    0 -0.12766948685E+01  0.40676195095E+01 -0.70609054906E+01  0.82481431165E+01  0.51100000000E-03 0. -1.
        -11    1    3    3    0    0  0.13423330242E+01  0.13014627257E+02 -0.31131859731E+02  0.33769439900E+02  0.51100000000E-03 0.  1.
        -12    1    3    3    0    0 -0.54065090369E+01  0.19666709630E+01 -0.43675929111E+00  0.57696527903E+01  0.00000000000E+00 0.  1.
</event>
<event>
 7    1  0.2834226E-010  0.4778727E+02  0.7816164E-02  0.1312668E+00
        -11   -1    0    0    0    0  0.00000000000E+00  0.00000000000E+00  0.45593999997E+02  0.45594000000E+02  0.51100000000E-03 0.  1.
         11   -1    0    0    0    0 -0.00000000000E+00 -0.00000000000E+00 -0.45593999997E+02  0.45594000000E+02  0.51100000000E-03 0. -1.
    9900012    2    1    2    0    0  0.34159459818E+01 -0.15363060730E+01 -0.43238806541E+02  0.47787270577E+02  0.19999997870E+02 0.  0.
        -12    1    1    2    0    0 -0.34159459818E+01  0.15363060730E+01  0.43238806541E+02  0.43400729423E+02  0.00000000000E+00 0.  1.
         11    1    3    3    0    0 -0.61608883881E+01 -0.31322192358E+01 -0.24919587089E+02  0.25860262258E+02  0.51100000000E-03 0. -1.
        -11    1    3    3    0    0  0.99343229946E+01  0.28345463928E+01 -0.17705875386E+02  0.20499352430E+02  0.51100000000E-03 0.  1.
         12    1    3    3    0    0 -0.35748862475E+00 -0.12386332300E+01 -0.61334406602E+00  0.14276558894E+01  0.00000000000E+00 0. -1.
</event>
<event>
 7    1  0.2834226E-010  0.4778727E+02  0.7816164E-02  0.1312668E+00
        -11   -1    0    0    0    0  0.00000000000E+00  0.00000000000E+00  0.45593999997E+02  0.45594000000E+02  0.51100000000E-03 0.  1.
         11   -1    0    0    0    0 -0.00000000000E+00 -0.00000000000E+00 -0.45593999997E+02  0.45594000000E+02  0.51100000000E-03 0. -1.
    9900012    2    1    2    0    0  0.99892600310E+01  0.39564648931E+02 -0.14780961442E+02  0.47787267493E+02  0.19999983809E+02 0.  0.
        -12    1    1    2    0    0 -0.99892600310E+01 -0.39564648931E+02  0.14780961442E+02  0.43400732507E+02  0.00000000000E+00 0.  1.
         11    1    3    3    0    0 -0.33315963791E+01  0.10526741157E+02 -0.38246126817E+01  0.11685010751E+02  0.51100000000E-03 0. -1.
        -11    1    3    3    0    0  0.12305601803E+02  0.13354832087E+02 -0.89917646058E+01  0.20264037278E+02  0.51100000000E-03 0.  1.
        -12    1    3    3    0    0  0.10152546067E+01  0.15683075687E+02 -0.19645841543E+01  0.15838219464E+02  0.00000000000E+00 0.  1.
</event>
<event>
 7    1  0.2834226E-010  0.4778727E+02  0.7816164E-02  0.1312668E+00
        -11   -1    0    0    0    0  0.00000000000E+00  0.00000000000E+00  0.45593999997E+02  0.45594000000E+02  0.51100000000E-03 0. -1.
         11   -1    0    0    0    0 -0.00000000000E+00 -0.00000000000E+00 -0.45593999997E+02  0.45594000000E+02  0.51100000000E-03 0.  1.
    9900012    2    1    2    0    0 -0.11832704624E+02  0.23030901959E+02  0.34830848853E+02  0.47787269873E+02  0.19999994657E+02 0.  0.
        -12    1    1    2    0    0  0.11832704624E+02 -0.23030901959E+02 -0.34830848853E+02  0.43400730127E+02  0.00000000000E+00 0.  1.
         11    1    3    3    0    0 -0.82568709783E+01  0.21749618829E+02  0.18723403572E+02  0.29862814321E+02  0.51100000000E-03 0. -1.
        -11    1    3    3    0    0  0.97366334883E+00  0.13173699191E+01  0.10844817658E+02  0.10967841816E+02  0.51100000000E-03 0.  1.
        -12    1    3    3    0    0 -0.45494969945E+01 -0.36086789650E-01  0.52626276236E+01  0.69566137355E+01  0.00000000000E+00 0.  1.
</event>
<event>
 7    1  0.2834226E-010  0.4778727E+02  0.7816164E-02  0.1312668E+00
        -11   -1    0    0    0    0  0.00000000000E+00  0.00000000000E+00  0.45593999997E+02  0.45594000000E+02  0.51100000000E-03 0.  1.
         11   -1    0    0    0    0 -0.00000000000E+00 -0.00000000000E+00 -0.45593999997E+02  0.45594000000E+02  0.51100000000E-03 0. -1.
    9900012    2    1    2    0    0 -0.26780484545E+02  0.25435769017E+02 -0.22791463038E+02  0.47787268608E+02  0.19999988891E+02 0.  0.
        -12    1    1    2    0    0  0.26780484545E+02 -0.25435769017E+02  0.22791463038E+02  0.43400731392E+02  0.00000000000E+00 0.  1.
         11    1    3    3    0    0 -0.29510948914E+01  0.10923768307E+02 -0.10236049897E+02  0.15258256546E+02  0.51100000000E-03 0. -1.
        -11    1    3    3    0    0 -0.16305314100E+02  0.10664907780E+02 -0.29003529393E+01  0.19698110907E+02  0.51100000000E-03 0.  1.
         12    1    3    3    0    0 -0.75240755532E+01  0.38470929303E+01 -0.96550602019E+01  0.12830901155E+02  0.00000000000E+00 0. -1.
</event>
<event>
 7    1  0.2834226E-010  0.4778727E+02  0.7816164E-02  0.1312668E+00
        -11   -1    0    0    0    0  0.00000000000E+00  0.00000000000E+00  0.45593999997E+02  0.45594000000E+02  0.51100000000E-03 0. -1.
         11   -1    0    0    0    0 -0.00000000000E+00 -0.00000000000E+00 -0.45593999997E+02  0.45594000000E+02  0.51100000000E-03 0.  1.
    9900012    2    1    2    0    0  0.30829896923E+02  0.30490897215E+02 -0.18563791056E+01  0.47787268432E+02  0.19999988090E+02 0.  0.
        -12    1    1    2    0    0 -0.30829896923E+02 -0.30490897215E+02  0.18563791056E+01  0.43400731568E+02  0.00000000000E+00 0.  1.
         11    1    3    3    0    0  0.26153046308E+02  0.24237365326E+02 -0.17615862103E+01  0.35700628781E+02  0.51100000000E-03 0. -1.
        -11    1    3    3    0    0 -0.89213600861E+00  0.57021830047E+00  0.32776880888E+01  0.34444585985E+01  0.51100000000E-03 0.  1.
        -12    1    3    3    0    0  0.55689866232E+01  0.56833135882E+01 -0.33724809842E+01  0.86421810522E+01  0.00000000000E+00 0.  1.
</event>
<event>
 7    1  0.2834226E-010  0.4778727E+02  0.7816164E-02  0.1312668E+00
        -11   -1    0    0    0    0  0.00000000000E+00  0.00000000000E+00  0.45593999997E+02  0.45594000000E+02  0.51100000000E-03 0.  1.
         11   -1    0    0    0    0 -0.00000000000E+00 -0.00000000000E+00 -0.45593999997E+02  0.45594000000E+02  0.51100000000E-03 0. -1.
    9900012    2    1    2    0    0  0.48820832160E+01  0.15139209928E+02 -0.40380601065E+02  0.47787270097E+02  0.19999995678E+02 0.  0.
        -12    1    1    2    0    0 -0.48820832160E+01 -0.15139209928E+02  0.40380601065E+02  0.43400729903E+02  0.00000000000E+00 0.  1.
         11    1    3    3    0    0  0.67417480741E+01 -0.11236943357E+01 -0.20198745089E+02  0.21323769823E+02  0.51100000000E-03 0. -1.
        -11    1    3    3    0    0 -0.14503806794E+01  0.88458373288E+01 -0.71625599353E+01  0.11474088515E+02  0.51100000000E-03 0.  1.
        -12    1    3    3    0    0 -0.40928417868E+00  0.74170669350E+01 -0.13019296041E+02  0.14989411758E+02  0.00000000000E+00 0.  1.
</event>
<event>
 7    1  0.2834226E-010  0.4778726E+02  0.7816164E-02  0.1312668E+00
        -11   -1    0    0    0    0  0.00000000000E+00  0.00000000000E+00  0.45593999997E+02  0.45594000000E+02  0.51100000000E-03 0.  1.
         11   -1    0    0    0    0 -0.00000000000E+00 -0.00000000000E+00 -0.45593999997E+02  0.45594000000E+02  0.51100000000E-03 0. -1.
    9900012    2    1    2    0    0  0.18829064717E+02  0.10887519606E+02 -0.37557317016E+02  0.47787264721E+02  0.19999971169E+02 0.  0.
        -12    1    1    2    0    0 -0.18829064717E+02 -0.10887519606E+02  0.37557317016E+02  0.43400735279E+02  0.00000000000E+00 0.  1.
         11    1    3    3    0    0  0.55134923769E+01  0.35339839787E+01 -0.89796309482E-01  0.65494812459E+01  0.51100000000E-03 0. -1.
        -11    1    3    3    0    0  0.22726265004E+01 -0.16838037684E+01 -0.82605595087E+01  0.87313727443E+01  0.51100000000E-03 0.  1.
         12    1    3    3    0    0  0.11042945840E+02  0.90373393956E+01 -0.29206961198E+02  0.32506410731E+02  0.00000000000E+00 0. -1.
</event>
<event>
 7    1  0.2834226E-010  0.4778727E+02  0.7816164E-02  0.1312668E+00
        -11   -1    0    0    0    0  0.00000000000E+00  0.00000000000E+00  0.45593999997E+02  0.45594000000E+02  0.51100000000E-03 0.  1.
         11   -1    0    0    0    0 -0.00000000000E+00 -0.00000000000E+00 -0.45593999997E+02  0.45594000000E+02  0.51100000000E-03 0. -1.
    9900012    2    1    2    0    0 -0.12271245448E+02  0.15949350244E+01 -0.41599231982E+02  0.47787269776E+02  0.19999994214E+02 0.  0.
        -12    1    1    2    0    0  0.12271245448E+02 -0.15949350244E+01  0.41599231982E+02  0.43400730224E+02  0.00000000000E+00 0.  1.
         11    1    3    3    0    0 -0.22505809992E+01  0.30445248421E+01 -0.20472077241E+01  0.43041033997E+01  0.51100000000E-03 0. -1.
        -11    1    3    3    0    0 -0.97908328724E+01 -0.55994566415E+01 -0.36821548784E+02  0.38510268476E+02  0.51100000000E-03 0.  1.
        -12    1    3    3    0    0 -0.22983157592E+00  0.41498668238E+01 -0.27304754738E+01  0.49728978997E+01  0.00000000000E+00 0.  1.
</event>
<event>
 7    1  0.2834226E-010  0.4778727E+02  0.7816164E-02  0.1312668E+00
        -11   -1    0    0    0    0  0.00000000000E+00  0.00000000000E+00  0.45593999997E+02  0.45594000000E+02  0.51100000000E-03 0.  1.
         11   -1    0    0    0    0 -0.00000000000E+00 -0.00000000000E+00 -0.45593999997E+02  0.45594000000E+02  0.51100000000E-03 0. -1.
    9900012    2    1    2    0    0 -0.32579008045E+02 -0.27906890409E+02 -0.65906718424E+01  0.47787271287E+02  0.20000001106E+02 0.  0.
        -12    1    1    2    0    0  0.32579008045E+02  0.27906890409E+02  0.65906718424E+01  0.43400728713E+02  0.00000000000E+00 0.  1.
         11    1    3    3    0    0 -0.25075942142E+02 -0.11792803362E+02 -0.30740572782E+01  0.27880511363E+02  0.51100000000E-03 0. -1.
        -11    1    3    3    0    0 -0.33748937550E+01 -0.10313025264E+02  0.18278912271E+01  0.11004071271E+02  0.51100000000E-03 0.  1.
        -12    1    3    3    0    0 -0.41281721483E+01 -0.58010617832E+01 -0.53445057913E+01  0.89026886529E+01  0.00000000000E+00 0.  1.
</event>
<event>
 7    1  0.2834226E-010  0.4778727E+02  0.7816164E-02  0.1312668E+00
        -11   -1    0    0    0    0  0.00000000000E+00  0.00000000000E+00  0.45593999997E+02  0.45594000000E+02  0.51100000000E-03 0.  1.
         11   -1    0    0    0    0 -0.00000000000E+00 -0.00000000000E+00 -0.45593999997E+02  0.45594000000E+02  0.51100000000E-03 0. -1.
    9900012    2    1    2    0    0 -0.38880608266E+02 -0.68252347705E+01 -0.18037119821E+02  0.47787271662E+02  0.20000002818E+02 0.  0.
        -12    1    1    2    0    0  0.38880608266E+02  0.68252347705E+01  0.18037119821E+02  0.43400728338E+02  0.00000000000E+00 0.  1.
         11    1    3    3    0    0 -0.12965346533E+02 -0.96299703904E+01 -0.10715822381E+02  0.19382089413E+02  0.51100000000E-03 0. -1.
        -11    1    3    3    0    0 -0.55555782462E+01  0.38774184185E+01 -0.36290510526E+01  0.76856252215E+01  0.51100000000E-03 0.  1.
         12    1    3    3    0    0 -0.20359683486E+02 -0.10726827987E+01 -0.36922463873E+01  0.20719557028E+02  0.00000000000E+00 0. -1.
</event>
<event>
 7    1  0.2834226E-010  0.4778727E+02  0.7816164E-02  0.1312668E+00
        -11   -1    0    0    0    0  0.00000000000E+00  0.00000000000E+00  0.45593999997E+02  0.45594000000E+02  0.51100000000E-03 0. -1.
         11   -1    0    0    0    0 -0.00000000000E+00 -0.00000000000E+00 -0.45593999997E+02  0.45594000000E+02  0.51100000000E-03 0.  1.
    9900012    2    1    2    0    0 -0.27364861956E+02 -0.29001948557E+02  0.17136946841E+02  0.47787266862E+02  0.19999980928E+02 0.  0.
        -12    1    1    2    0    0  0.27364861956E+02  0.29001948557E+02 -0.17136946841E+02  0.43400733138E+02  0.00000000000E+00 0.  1.
         11    1    3    3    0    0 -0.11330144587E+02 -0.76269247135E+01  0.25642577791E+01  0.13896674968E+02  0.51100000000E-03 0. -1.
        -11    1    3    3    0    0 -0.19581793198E+01  0.17993711205E+01  0.39663630656E+01  0.47753784046E+01  0.51100000000E-03 0.  1.
        -12    1    3    3    0    0 -0.14076538049E+02 -0.23174394964E+02  0.10606325996E+02  0.29115213489E+02  0.00000000000E+00 0.  1.
</event>
<event>
 7    1  0.2834226E-010  0.4778728E+02  0.7816164E-02  0.1312668E+00
        -11   -1    0    0    0    0  0.00000000000E+00  0.00000000000E+00  0.45593999997E+02  0.45594000000E+02  0.51100000000E-03 0.  1.
         11   -1    0    0    0    0 -0.00000000000E+00 -0.00000000000E+00 -0.45593999997E+02  0.45594000000E+02  0.51100000000E-03 0. -1.
    9900012    2    1    2    0    0  0.72165863931E+01 -0.28937081552E+02 -0.31530764059E+02  0.47787275466E+02  0.20000020161E+02 0.  0.
        -12    1    1    2    0    0 -0.72165863931E+01  0.28937081552E+02  0.31530764059E+02  0.43400724534E+02  0.00000000000E+00 0.  1.
         11    1    3    3    0    0 -0.49256413083E+01 -0.46004398192E+01 -0.98451617202E+01  0.11931185959E+02  0.51100000000E-03 0.  1.
        -11    1    3    3    0    0 -0.62142080559E+00 -0.28302656866E+01 -0.50420749773E+01  0.58154181287E+01  0.51100000000E-03 0. -1.
         12    1    3    3    0    0  0.12763648507E+02 -0.21506376046E+02 -0.16643527362E+02  0.30040671379E+02  0.00000000000E+00 0. -1.
</event>
<event>
 7    1  0.2834226E-010  0.4778727E+02  0.7816164E-02  0.1312668E+00
        -11   -1    0    0    0    0  0.00000000000E+00  0.00000000000E+00  0.45593999997E+02  0.45594000000E+02  0.51100000000E-03 0. -1.
         11   -1    0    0    0    0 -0.00000000000E+00 -0.00000000000E+00 -0.45593999997E+02  0.45594000000E+02  0.51100000000E-03 0.  1.
    9900012    2    1    2    0    0 -0.26190789322E+02  0.21689934415E+02  0.26966878795E+02  0.47787271294E+02  0.20000001140E+02 0.  0.
        -12    1    1    2    0    0  0.26190789322E+02 -0.21689934415E+02 -0.26966878795E+02  0.43400728706E+02  0.00000000000E+00 0.  1.
         11    1    3    3    0    0 -0.19369962810E+02  0.86929513487E+01  0.24099831800E+02  0.32117981809E+02  0.51100000000E-03 0. -1.
        -11    1    3    3    0    0 -0.67608037021E+01  0.12605771310E+02  0.36756370590E+01  0.14769029930E+02  0.51100000000E-03 0.  1.
         12    1    3    3    0    0 -0.60022809481E-01  0.39121175680E+00 -0.80859006409E+00  0.90025955594E+00  0.00000000000E+00 0. -1.
</event>
<event>
 7    1  0.2834226E-010  0.4778728E+02  0.7816164E-02  0.1312668E+00
        -11   -1    0    0    0    0  0.00000000000E+00  0.00000000000E+00  0.45593999997E+02  0.45594000000E+02  0.51100000000E-03 0.  1.
         11   -1    0    0    0    0 -0.00000000000E+00 -0.00000000000E+00 -0.45593999997E+02  0.45594000000E+02  0.51100000000E-03 0. -1.
    9900012    2    1    2    0    0  0.39438153886E+02  0.78720096397E+01 -0.16318277837E+02  0.47787277549E+02  0.20000029657E+02 0.  0.
        -12    1    1    2    0    0 -0.39438153886E+02 -0.78720096397E+01  0.16318277837E+02  0.43400722451E+02  0.00000000000E+00 0.  1.
         11    1    3    3    0    0  0.88595597160E+01 -0.49481056961E+01 -0.32989362133E+01  0.10670451197E+02  0.51100000000E-03 0. -1.
        -11    1    3    3    0    0 -0.30756130894E+00  0.15543832620E+01  0.35525037211E+00  0.16238547878E+01  0.51100000000E-03 0.  1.
         12    1    3    3    0    0  0.30886155479E+02  0.11265732074E+02 -0.13374591996E+02  0.35492971564E+02  0.00000000000E+00 0. -1.
</event>
<event>
 7    1  0.2834226E-010  0.4778726E+02  0.7816164E-02  0.1312668E+00
        -11   -1    0    0    0    0  0.00000000000E+00  0.00000000000E+00  0.45593999997E+02  0.45594000000E+02  0.51100000000E-03 0.  1.
         11   -1    0    0    0    0 -0.00000000000E+00 -0.00000000000E+00 -0.45593999997E+02  0.45594000000E+02  0.51100000000E-03 0. -1.
    9900012    2    1    2    0    0 -0.40958679898E-01 -0.38495775992E+02 -0.20042392685E+02  0.47787263239E+02  0.19999964410E+02 0.  0.
        -12    1    1    2    0    0  0.40958679898E-01  0.38495775992E+02  0.20042392685E+02  0.43400736761E+02  0.00000000000E+00 0.  1.
         11    1    3    3    0    0  0.16238499330E+00 -0.19501768860E+02 -0.18563339119E+02  0.26924764011E+02  0.51100000000E-03 0. -1.
        -11    1    3    3    0    0 -0.58053608731E+00 -0.19243245461E+02 -0.28107985560E+01  0.19456107185E+02  0.51100000000E-03 0.  1.
        -12    1    3    3    0    0  0.37719241411E+00  0.24923832779E+00  0.13317449895E+01  0.14063920429E+01  0.00000000000E+00 0.  1.
</event>
<event>
 7    1  0.2834226E-010  0.4778729E+02  0.7816164E-02  0.1312668E+00
        -11   -1    0    0    0    0  0.00000000000E+00  0.00000000000E+00  0.45593999997E+02  0.45594000000E+02  0.51100000000E-03 0.  1.
         11   -1    0    0    0    0 -0.00000000000E+00 -0.00000000000E+00 -0.45593999997E+02  0.45594000000E+02  0.51100000000E-03 0. -1.
    9900012    2    1    2    0    0  0.92971071750E+01 -0.36253311738E+02 -0.21974598329E+02  0.47787288191E+02  0.20000078179E+02 0.  0.
        -12    1    1    2    0    0 -0.92971071750E+01  0.36253311738E+02  0.21974598329E+02  0.43400711809E+02  0.00000000000E+00 0.  1.
         11    1    3    3    0    0  0.40824730341E+01 -0.28839697987E+02 -0.13234334118E+02  0.31992848668E+02  0.51100000000E-03 0. -1.
        -11    1    3    3    0    0 -0.11966392116E+01  0.14454041305E+01 -0.13910371729E+00  0.18816186140E+01  0.51100000000E-03 0.  1.
        -12    1    3    3    0    0  0.64112733526E+01 -0.88590178813E+01 -0.86011604938E+01  0.13912820910E+02  0.00000000000E+00 0.  1.
</event>
<event>
 7    1  0.2834226E-010  0.4778727E+02  0.7816164E-02  0.1312668E+00
        -11   -1    0    0    0    0  0.00000000000E+00  0.00000000000E+00  0.45593999997E+02  0.45594000000E+02  0.51100000000E-03 0.  1.
         11   -1    0    0    0    0 -0.00000000000E+00 -0.00000000000E+00 -0.45593999997E+02  0.45594000000E+02  0.51100000000E-03 0. -1.
    9900012    2    1    2    0    0 -0.75165181394E+01 -0.14179377363E+02 -0.40324563041E+02  0.47787272221E+02  0.20000005364E+02 0.  0.
        -12    1    1    2    0    0  0.75165181394E+01  0.14179377363E+02  0.40324563041E+02  0.43400727779E+02  0.00000000000E+00 0.  1.
         11    1    3    3    0    0 -0.29367321988E+01 -0.12575712422E+02 -0.27490768969E+02  0.30372937259E+02  0.51100000000E-03 0. -1.
        -11    1    3    3    0    0  0.78028884840E+00  0.37490349029E+01 -0.64819668336E+01  0.75286126002E+01  0.51100000000E-03 0.  1.
        -12    1    3    3    0    0 -0.53600747890E+01 -0.53526998434E+01 -0.63518272377E+01  0.98857223618E+01  0.00000000000E+00 0.  1.
</event>
<event>
 7    1  0.2834226E-010  0.4778727E+02  0.7816164E-02  0.1312668E+00
        -11   -1    0    0    0    0  0.00000000000E+00  0.00000000000E+00  0.45593999997E+02  0.45594000000E+02  0.51100000000E-03 0.  1.
         11   -1    0    0    0    0 -0.00000000000E+00 -0.00000000000E+00 -0.45593999997E+02  0.45594000000E+02  0.51100000000E-03 0. -1.
    9900012    2    1    2    0    0  0.65242403928E+01  0.28913805149E+02 -0.31702513035E+02  0.47787272199E+02  0.20000005263E+02 0.  0.
        -12    1    1    2    0    0 -0.65242403928E+01 -0.28913805149E+02  0.31702513035E+02  0.43400727801E+02  0.00000000000E+00 0.  1.
         11    1    3    3    0    0  0.10732878632E+02  0.25168450398E+02 -0.27778614126E+02  0.38990985909E+02  0.51100000000E-03 0. -1.
        -11    1    3    3    0    0 -0.20829617229E+01  0.94748611682E-01 -0.40660449489E+01  0.45695107644E+01  0.51100000000E-03 0.  1.
         12    1    3    3    0    0 -0.21256765165E+01  0.36506061402E+01  0.14214603976E+00  0.42267755251E+01  0.00000000000E+00 0. -1.
</event>
<event>
 7    1  0.2834226E-010  0.4778727E+02  0.7816164E-02  0.1312668E+00
        -11   -1    0    0    0    0  0.00000000000E+00  0.00000000000E+00  0.45593999997E+02  0.45594000000E+02  0.51100000000E-03 0.  1.
         11   -1    0    0    0    0 -0.00000000000E+00 -0.00000000000E+00 -0.45593999997E+02  0.45594000000E+02  0.51100000000E-03 0. -1.
    9900012    2    1    2    0    0 -0.29987506527E+02 -0.11485274089E+02 -0.29196945129E+02  0.47787266441E+02  0.19999979009E+02 0.  0.
        -12    1    1    2    0    0  0.29987506527E+02  0.11485274089E+02  0.29196945129E+02  0.43400733559E+02  0.00000000000E+00 0.  1.
         11    1    3    3    0    0 -0.19393555978E+00 -0.93336625799E+00 -0.49346577391E+01  0.50258960232E+01  0.51100000000E-03 0. -1.
        -11    1    3    3    0    0 -0.25016178003E+02 -0.13101243326E+02 -0.14857846791E+02  0.31909361481E+02  0.51100000000E-03 0.  1.
        -12    1    3    3    0    0 -0.47773929644E+01  0.25493354943E+01 -0.94044405984E+01  0.10852008937E+02  0.00000000000E+00 0.  1.
</event>
<event>
 7    1  0.2834226E-010  0.4778727E+02  0.7816164E-02  0.1312668E+00
        -11   -1    0    0    0    0  0.00000000000E+00  0.00000000000E+00  0.45593999997E+02  0.45594000000E+02  0.51100000000E-03 0.  1.
         11   -1    0    0    0    0 -0.00000000000E+00 -0.00000000000E+00 -0.45593999997E+02  0.45594000000E+02  0.51100000000E-03 0. -1.
    9900012    2    1    2    0    0  0.39430173894E+02 -0.16267125796E+02  0.80165530770E+01  0.47787272837E+02  0.20000008175E+02 0.  0.
        -12    1    1    2    0    0 -0.39430173894E+02  0.16267125796E+02 -0.80165530770E+01  0.43400727163E+02  0.00000000000E+00 0.  1.
         11    1    3    3    0    0  0.21499403823E+02 -0.97473066309E+01  0.33392909270E+01  0.23840830846E+02  0.51100000000E-03 0. -1.
        -11    1    3    3    0    0  0.10335776256E+01 -0.46361015511E+01  0.50601901154E+01  0.69402625718E+01  0.51100000000E-03 0.  1.
        -12    1    3    3    0    0  0.16897192446E+02 -0.18837176141E+01 -0.38292796541E+00  0.17006179419E+02  0.00000000000E+00 0.  1.
</event>
<event>
 7    1  0.2834226E-010  0.4778727E+02  0.7816164E-02  0.1312668E+00
        -11   -1    0    0    0    0  0.00000000000E+00  0.00000000000E+00  0.45593999997E+02  0.45594000000E+02  0.51100000000E-03 0. -1.
         11   -1    0    0    0    0 -0.00000000000E+00 -0.00000000000E+00 -0.45593999997E+02  0.45594000000E+02  0.51100000000E-03 0.  1.
    9900012    2    1    2    0    0 -0.42004154629E+02  0.10882174035E+02  0.92357331963E+00  0.47787266072E+02  0.19999977329E+02 0.  0.
        -12    1    1    2    0    0  0.42004154629E+02 -0.10882174035E+02 -0.92357331963E+00  0.43400733928E+02  0.00000000000E+00 0.  1.
         11    1    3    3    0    0 -0.32480830909E+02  0.10877947575E+02  0.71932036264E+01  0.35001089964E+02  0.51100000000E-03 0. -1.
        -11    1    3    3    0    0 -0.54527413625E+01  0.11581312380E+01 -0.64827523826E+01  0.85498383053E+01  0.51100000000E-03 0.  1.
        -12    1    3    3    0    0 -0.40705823572E+01 -0.11539047777E+01  0.21312207585E+00  0.42363378031E+01  0.00000000000E+00 0.  1.
</event>
<event>
 7    1  0.2834226E-010  0.4778727E+02  0.7816164E-02  0.1312668E+00
        -11   -1    0    0    0    0  0.00000000000E+00  0.00000000000E+00  0.45593999997E+02  0.45594000000E+02  0.51100000000E-03 0.  1.
         11   -1    0    0    0    0 -0.00000000000E+00 -0.00000000000E+00 -0.45593999997E+02  0.45594000000E+02  0.51100000000E-03 0. -1.
    9900012    2    1    2    0    0  0.75060754962E+01  0.37823257915E+02 -0.19916906614E+02  0.47787272152E+02  0.20000005051E+02 0.  0.
        -12    1    1    2    0    0 -0.75060754962E+01 -0.37823257915E+02  0.19916906614E+02  0.43400727848E+02  0.00000000000E+00 0.  1.
         11    1    3    3    0    0  0.90465031333E+01  0.83047115560E+01 -0.42961706874E+01  0.13010170476E+02  0.51100000000E-03 0. -1.
        -11    1    3    3    0    0  0.36098648602E+01  0.12715743265E+02 -0.44235736478E+01  0.13938768065E+02  0.51100000000E-03 0.  1.
         12    1    3    3    0    0 -0.51502924972E+01  0.16802803094E+02 -0.11197162279E+02  0.20838333612E+02  0.00000000000E+00 0. -1.
</event>
<event>
 7    1  0.2834226E-010  0.4778727E+02  0.7816164E-02  0.1312668E+00
        -11   -1    0    0    0    0  0.00000000000E+00  0.00000000000E+00  0.45593999997E+02  0.45594000000E+02  0.51100000000E-03 0.  1.
         11   -1    0    0    0    0 -0.00000000000E+00 -0.00000000000E+00 -0.45593999997E+02  0.45594000000E+02  0.51100000000E-03 0. -1.
    9900012    2    1    2    0    0 -0.17819692431E+02 -0.20967135800E+02 -0.33562791213E+02  0.47787272172E+02  0.20000005142E+02 0.  0.
        -12    1    1    2    0    0  0.17819692431E+02  0.20967135800E+02  0.33562791213E+02  0.43400727828E+02  0.00000000000E+00 0.  1.
         11    1    3    3    0    0 -0.74376363099E+01 -0.66086060342E+01 -0.25291650633E+02  0.27178294641E+02  0.51100000000E-03 0. -1.
        -11    1    3    3    0    0 -0.73683972432E+01 -0.48894929487E+01 -0.28595988256E+01  0.92939617459E+01  0.51100000000E-03 0.  1.
         12    1    3    3    0    0 -0.30136588779E+01 -0.94690368167E+01 -0.54115417546E+01  0.11315015786E+02  0.00000000000E+00 0. -1.
</event>
<event>
 7    1  0.2834226E-010  0.4778727E+02  0.7816164E-02  0.1312668E+00
        -11   -1    0    0    0    0  0.00000000000E+00  0.00000000000E+00  0.45593999997E+02  0.45594000000E+02  0.51100000000E-03 0. -1.
         11   -1    0    0    0    0 -0.00000000000E+00 -0.00000000000E+00 -0.45593999997E+02  0.45594000000E+02  0.51100000000E-03 0.  1.
    9900012    2    1    2    0    0  0.37283498764E+02  0.29096027253E+00  0.22214391483E+02  0.47787272738E+02  0.20000007720E+02 0.  0.
        -12    1    1    2    0    0 -0.37283498764E+02 -0.29096027253E+00 -0.22214391483E+02  0.43400727262E+02  0.00000000000E+00 0.  1.
         11    1    3    3    0    0  0.35900652752E+02  0.36658895905E+01  0.15536154714E+02  0.39289537005E+02  0.51100000000E-03 0. -1.
        -11    1    3    3    0    0  0.24211034631E+01 -0.33730451232E+01  0.58280839531E+01  0.71558184862E+01  0.51100000000E-03 0.  1.
         12    1    3    3    0    0 -0.10382574515E+01 -0.18841947354E-02  0.85015281606E+00  0.13419172465E+01  0.00000000000E+00 0. -1.
</event>
<event>
 7    1  0.2834226E-010  0.4778728E+02  0.7816164E-02  0.1312668E+00
        -11   -1    0    0    0    0  0.00000000000E+00  0.00000000000E+00  0.45593999997E+02  0.45594000000E+02  0.51100000000E-03 0.  1.
         11   -1    0    0    0    0 -0.00000000000E+00 -0.00000000000E+00 -0.45593999997E+02  0.45594000000E+02  0.51100000000E-03 0. -1.
    9900012    2    1    2    0    0  0.28499998243E+02  0.20770392745E+02 -0.25297494820E+02  0.47787281587E+02  0.20000048068E+02 0.  0.
        -12    1    1    2    0    0 -0.28499998243E+02 -0.20770392745E+02  0.25297494820E+02  0.43400718413E+02  0.00000000000E+00 0.  1.
         11    1    3    3    0    0  0.10492068424E+02  0.16838960823E+02 -0.11067816083E+02  0.22718509074E+02  0.51100000000E-03 0. -1.
        -11    1    3    3    0    0  0.64816973028E+01  0.36006053052E+01 -0.10684338234E+02  0.13005069867E+02  0.51100000000E-03 0.  1.
         12    1    3    3    0    0  0.11526232515E+02  0.33082661663E+00 -0.35453405023E+01  0.12063702646E+02  0.00000000000E+00 0. -1.
</event>
<event>
 7    1  0.2834226E-010  0.4778727E+02  0.7816164E-02  0.1312668E+00
        -11   -1    0    0    0    0  0.00000000000E+00  0.00000000000E+00  0.45593999997E+02  0.45594000000E+02  0.51100000000E-03 0.  1.
         11   -1    0    0    0    0 -0.00000000000E+00 -0.00000000000E+00 -0.45593999997E+02  0.45594000000E+02  0.51100000000E-03 0. -1.
    9900012    2    1    2    0    0 -0.23811252860E+02 -0.36237758158E+02  0.18635465139E+01  0.47787266312E+02  0.19999978424E+02 0.  0.
        -12    1    1    2    0    0  0.23811252860E+02  0.36237758158E+02 -0.18635465139E+01  0.43400733688E+02  0.00000000000E+00 0.  1.
         11    1    3    3    0    0 -0.21580024307E+02 -0.22820259807E+02  0.41588220055E+01  0.31682132307E+02  0.51100000000E-03 0. -1.
        -11    1    3    3    0    0  0.88485207248E-01 -0.10815914571E+02 -0.47791578311E+01  0.11825066066E+02  0.51100000000E-03 0.  1.
        -12    1    3    3    0    0 -0.23197137596E+01 -0.26015837794E+01  0.24838823394E+01  0.42800679392E+01  0.00000000000E+00 0.  1.
</event>
<event>
 7    1  0.2834226E-010  0.4778728E+02  0.7816164E-02  0.1312668E+00
        -11   -1    0    0    0    0  0.00000000000E+00  0.00000000000E+00  0.45593999997E+02  0.45594000000E+02  0.51100000000E-03 0. -1.
         11   -1    0    0    0    0 -0.00000000000E+00 -0.00000000000E+00 -0.45593999997E+02  0.45594000000E+02  0.51100000000E-03 0.  1.
    9900012    2    1    2    0    0  0.38594602676E+02 -0.14192979981E+02  0.13879428789E+02  0.47787279038E+02  0.20000036446E+02 0.  0.
        -12    1    1    2    0    0 -0.38594602676E+02  0.14192979981E+02 -0.13879428789E+02  0.43400720962E+02  0.00000000000E+00 0.  1.
         11    1    3    3    0    0  0.85273570001E+01  0.33926744242E+01  0.59848440055E+01  0.10956478229E+02  0.51100000000E-03 0. -1.
        -11    1    3    3    0    0  0.25330397251E+02 -0.11297570551E+02  0.39183047041E+01  0.28011019925E+02  0.51100000000E-03 0.  1.
         12    1    3    3    0    0  0.47368484256E+01 -0.62880838543E+01  0.39762800797E+01  0.88197808837E+01  0.00000000000E+00 0. -1.
</event>
<event>
 7    1  0.2834226E-010  0.4778727E+02  0.7816164E-02  0.1312668E+00
        -11   -1    0    0    0    0  0.00000000000E+00  0.00000000000E+00  0.45593999997E+02  0.45594000000E+02  0.51100000000E-03 0. -1.
         11   -1    0    0    0    0 -0.00000000000E+00 -0.00000000000E+00 -0.45593999997E+02  0.45594000000E+02  0.51100000000E-03 0.  1.
    9900012    2    1    2    0    0 -0.18648590438E+02  0.38169833029E+02 -0.88835160333E+01  0.47787274938E+02  0.20000017754E+02 0.  0.
        -12    1    1    2    0    0  0.18648590438E+02 -0.38169833029E+02  0.88835160333E+01  0.43400725062E+02  0.00000000000E+00 0.  1.
         11    1    3    3    0    0 -0.38916664677E+01  0.53317775007E+01  0.94216485094E-01  0.66016510222E+01  0.51100000000E-03 0. -1.
        -11    1    3    3    0    0 -0.63102892171E+01  0.64196699864E+00  0.10347068845E+01  0.64267013489E+01  0.51100000000E-03 0.  1.
        -12    1    3    3    0    0 -0.84466347533E+01  0.32196088529E+02 -0.10012439403E+02  0.34758922567E+02  0.00000000000E+00 0.  1.
</event>
<event>
 7    1  0.2834226E-010  0.4778727E+02  0.7816164E-02  0.1312668E+00
        -11   -1    0    0    0    0  0.00000000000E+00  0.00000000000E+00  0.45593999997E+02  0.45594000000E+02  0.51100000000E-03 0. -1.
         11   -1    0    0    0    0 -0.00000000000E+00 -0.00000000000E+00 -0.45593999997E+02  0.45594000000E+02  0.51100000000E-03 0.  1.
    9900012    2    1    2    0    0  0.43218235740E+02 -0.37634173191E+01 -0.12822717116E+01  0.47787269233E+02  0.19999991741E+02 0.  0.
        -12    1    1    2    0    0 -0.43218235740E+02  0.37634173191E+01  0.12822717116E+01  0.43400730767E+02  0.00000000000E+00 0.  1.
         11    1    3    3    0    0  0.59672386847E+00 -0.25306408867E+01  0.29414154929E+01  0.39258308721E+01  0.51100000000E-03 0. -1.
        -11    1    3    3    0    0  0.45808130158E+01 -0.31435951451E+01 -0.17871198941E+00  0.55585948367E+01  0.51100000000E-03 0.  1.
         12    1    3    3    0    0  0.38040698855E+02  0.19108187127E+01 -0.40449752151E+01  0.38302843524E+02  0.00000000000E+00 0. -1.
</event>
<event>
 7    1  0.2834226E-010  0.4778726E+02  0.7816164E-02  0.1312668E+00
        -11   -1    0    0    0    0  0.00000000000E+00  0.00000000000E+00  0.45593999997E+02  0.45594000000E+02  0.51100000000E-03 0.  1.
         11   -1    0    0    0    0 -0.00000000000E+00 -0.00000000000E+00 -0.45593999997E+02  0.45594000000E+02  0.51100000000E-03 0. -1.
    9900012    2    1    2    0    0  0.42786322016E+02  0.51667886120E+01 -0.51243546072E+01  0.47787261915E+02  0.19999958374E+02 0.  0.
        -12    1    1    2    0    0 -0.42786322016E+02 -0.51667886120E+01  0.51243546072E+01  0.43400738085E+02  0.00000000000E+00 0.  1.
         11    1    3    3    0    0  0.10998920608E+02 -0.34495854280E+01  0.32101487669E+01  0.11965824232E+02  0.51100000000E-03 0. -1.
        -11    1    3    3    0    0  0.18056420305E+02  0.94988967280E+00 -0.87552269047E+01  0.20089564531E+02  0.51100000000E-03 0.  1.
        -12    1    3    3    0    0  0.13730981102E+02  0.76664843672E+01  0.42072353051E+00  0.15731873152E+02  0.00000000000E+00 0.  1.
</event>
<event>
 7    1  0.2834226E-010  0.4778727E+02  0.7816164E-02  0.1312668E+00
        -11   -1    0    0    0    0  0.00000000000E+00  0.00000000000E+00  0.45593999997E+02  0.45594000000E+02  0.51100000000E-03 0.  1.
         11   -1    0    0    0    0 -0.00000000000E+00 -0.00000000000E+00 -0.45593999997E+02  0.45594000000E+02  0.51100000000E-03 0. -1.
    9900012    2    1    2    0    0 -0.17111783396E+02 -0.63620143661E+01 -0.39374294289E+02  0.47787269493E+02  0.19999992927E+02 0.  0.
        -12    1    1    2    0    0  0.17111783396E+02  0.63620143661E+01  0.39374294289E+02  0.43400730507E+02  0.00000000000E+00 0.  1.
         11    1    3    3    0    0 -0.17019937596E+01  0.20645653328E+01 -0.55666958654E+01  0.61763513412E+01  0.51100000000E-03 0. -1.
        -11    1    3    3    0    0 -0.76096137607E+01 -0.15419494866E+01 -0.18211066771E+01  0.79749770907E+01  0.51100000000E-03 0.  1.
        -12    1    3    3    0    0 -0.78001758757E+01 -0.68846302122E+01 -0.31986491746E+02  0.33635941061E+02  0.00000000000E+00 0.  1.
</event>
<event>
 7    1  0.2834226E-010  0.4778727E+02  0.7816164E-02  0.1312668E+00
        -11   -1    0    0    0    0  0.00000000000E+00  0.00000000000E+00  0.45593999997E+02  0.45594000000E+02  0.51100000000E-03 0.  1.
         11   -1    0    0    0    0 -0.00000000000E+00 -0.00000000000E+00 -0.45593999997E+02  0.45594000000E+02  0.51100000000E-03 0. -1.
    9900012    2    1    2    0    0  0.98734428666E+01  0.34612531808E+02 -0.24250996201E+02  0.47787273636E+02  0.20000011815E+02 0.  0.
        -12    1    1    2    0    0 -0.98734428666E+01 -0.34612531808E+02  0.24250996201E+02  0.43400726364E+02  0.00000000000E+00 0.  1.
         11    1    3    3    0    0 -0.87176292412E-01  0.35323045909E+01 -0.33224547679E+01  0.48501011717E+01  0.51100000000E-03 0. -1.
        -11    1    3    3    0    0  0.89788730078E+01  0.32432618991E+02 -0.15120378889E+02  0.36893370585E+02  0.51100000000E-03 0.  1.
        -12    1    3    3    0    0  0.98174615123E+00 -0.13523917740E+01 -0.58081625441E+01  0.60438018791E+01  0.00000000000E+00 0.  1.
</event>
<event>
 7    1  0.2834226E-010  0.4778727E+02  0.7816164E-02  0.1312668E+00
        -11   -1    0    0    0    0  0.00000000000E+00  0.00000000000E+00  0.45593999997E+02  0.45594000000E+02  0.51100000000E-03 0.  1.
         11   -1    0    0    0    0 -0.00000000000E+00 -0.00000000000E+00 -0.45593999997E+02  0.45594000000E+02  0.51100000000E-03 0. -1.
    9900012    2    1    2    0    0  0.24687785484E+02 -0.34018213621E+01 -0.35532577894E+02  0.47787271521E+02  0.20000002175E+02 0.  0.
        -12    1    1    2    0    0 -0.24687785484E+02  0.34018213621E+01  0.35532577894E+02  0.43400728479E+02  0.00000000000E+00 0.  1.
         11    1    3    3    0    0  0.13829109940E+02 -0.96343780003E+01 -0.21065030337E+02  0.26977787614E+02  0.51100000000E-03 0. -1.
        -11    1    3    3    0    0  0.59192796192E+01  0.77655825970E+01 -0.89237500925E+01  0.13227829008E+02  0.51100000000E-03 0.  1.
        -12    1    3    3    0    0  0.49393959249E+01 -0.15330259588E+01 -0.55437974639E+01  0.75816548994E+01  0.00000000000E+00 0.  1.
</event>
<event>
 7    1  0.2834226E-010  0.4778727E+02  0.7816164E-02  0.1312668E+00
        -11   -1    0    0    0    0  0.00000000000E+00  0.00000000000E+00  0.45593999997E+02  0.45594000000E+02  0.51100000000E-03 0.  1.
         11   -1    0    0    0    0 -0.00000000000E+00 -0.00000000000E+00 -0.45593999997E+02  0.45594000000E+02  0.51100000000E-03 0. -1.
    9900012    2    1    2    0    0 -0.38867945411E+02 -0.24968838788E+00 -0.19309161165E+02  0.47787271554E+02  0.20000002324E+02 0.  0.
        -12    1    1    2    0    0  0.38867945411E+02  0.24968838788E+00  0.19309161165E+02  0.43400728446E+02  0.00000000000E+00 0.  1.
         11    1    3    3    0    0 -0.13515864562E+02 -0.90516982322E+00 -0.14888117157E+02  0.20128436601E+02  0.51100000000E-03 0. -1.
        -11    1    3    3    0    0 -0.13772905038E+02  0.37370761512E+01  0.13964185969E+01  0.14339059819E+02  0.51100000000E-03 0.  1.
        -12    1    3    3    0    0 -0.11579175811E+02 -0.30815947159E+01 -0.58174626057E+01  0.13319775134E+02  0.00000000000E+00 0.  1.
</event>
<event>
 7    1  0.2834226E-010  0.4778732E+02  0.7816164E-02  0.1312668E+00
        -11   -1    0    0    0    0  0.00000000000E+00  0.00000000000E+00  0.45593999997E+02  0.45594000000E+02  0.51100000000E-03 0.  1.
         11   -1    0    0    0    0 -0.00000000000E+00 -0.00000000000E+00 -0.45593999997E+02  0.45594000000E+02  0.51100000000E-03 0. -1.
    9900012    2    1    2    0    0  0.18079765183E+01  0.36186299925E+02 -0.23893552394E+02  0.47787321119E+02  0.20000228308E+02 0.  0.
        -12    1    1    2    0    0 -0.18079765183E+01 -0.36186299925E+02  0.23893552394E+02  0.43400678881E+02  0.00000000000E+00 0.  1.
         11    1    3    3    0    0  0.43754970973E+00  0.17148135871E+02 -0.67866404395E+01  0.18447452461E+02  0.51100000000E-03 0. -1.
        -11    1    3    3    0    0 -0.61590130333E+01  0.10239258859E+02 -0.63374850335E+01  0.13525515899E+02  0.51100000000E-03 0.  1.
        -12    1    3    3    0    0  0.75294398418E+01  0.87989051954E+01 -0.10769426921E+02  0.15814352759E+02  0.00000000000E+00 0.  1.
</event>
<event>
 7    1  0.2834226E-010  0.4778727E+02  0.7816164E-02  0.1312668E+00
        -11   -1    0    0    0    0  0.00000000000E+00  0.00000000000E+00  0.45593999997E+02  0.45594000000E+02  0.51100000000E-03 0.  1.
         11   -1    0    0    0    0 -0.00000000000E+00 -0.00000000000E+00 -0.45593999997E+02  0.45594000000E+02  0.51100000000E-03 0. -1.
    9900012    2    1    2    0    0 -0.30914847361E+02 -0.22810549841E+02 -0.20188476880E+02  0.47787267631E+02  0.19999984438E+02 0.  0.
        -12    1    1    2    0    0  0.30914847361E+02  0.22810549841E+02  0.20188476880E+02  0.43400732369E+02  0.00000000000E+00 0.  1.
         11    1    3    3    0    0 -0.15640516580E+02 -0.10388627749E+02 -0.12460490296E+02  0.22534710206E+02  0.51100000000E-03 0. -1.
        -11    1    3    3    0    0 -0.79059769207E+01 -0.46700184834E+01  0.34250362340E+01  0.98002253633E+01  0.51100000000E-03 0.  1.
        -12    1    3    3    0    0 -0.73683538604E+01 -0.77519036087E+01 -0.11153022818E+02  0.15452332062E+02  0.00000000000E+00 0.  1.
</event>
<event>
 7    1  0.2834226E-010  0.4778728E+02  0.7816164E-02  0.1312668E+00
        -11   -1    0    0    0    0  0.00000000000E+00  0.00000000000E+00  0.45593999997E+02  0.45594000000E+02  0.51100000000E-03 0.  1.
         11   -1    0    0    0    0 -0.00000000000E+00 -0.00000000000E+00 -0.45593999997E+02  0.45594000000E+02  0.51100000000E-03 0. -1.
    9900012    2    1    2    0    0  0.28163531767E+02 -0.14399062876E+02 -0.29717083809E+02  0.47787278769E+02  0.20000035219E+02 0.  0.
        -12    1    1    2    0    0 -0.28163531767E+02  0.14399062876E+02  0.29717083809E+02  0.43400721231E+02  0.00000000000E+00 0.  1.
         11    1    3    3    0    0  0.61481678126E+01 -0.69496954610E+00 -0.17083924920E+02  0.18169849780E+02  0.51100000000E-03 0. -1.
        -11    1    3    3    0    0  0.85347759206E+01 -0.87399672920E+01 -0.39844222131E+01  0.12849320951E+02  0.51100000000E-03 0.  1.
         12    1    3    3    0    0  0.13480588033E+02 -0.49641260378E+01 -0.86487366761E+01  0.16768108037E+02  0.00000000000E+00 0. -1.
</event>
<event>
 7    1  0.2834226E-010  0.4778727E+02  0.7816164E-02  0.1312668E+00
        -11   -1    0    0    0    0  0.00000000000E+00  0.00000000000E+00  0.45593999997E+02  0.45594000000E+02  0.51100000000E-03 0. -1.
         11   -1    0    0    0    0 -0.00000000000E+00 -0.00000000000E+00 -0.45593999997E+02  0.45594000000E+02  0.51100000000E-03 0.  1.
    9900012    2    1    2    0    0 -0.16216467313E+02  0.25960930378E+02  0.30768156594E+02  0.47787272145E+02  0.20000005016E+02 0.  0.
        -12    1    1    2    0    0  0.16216467313E+02 -0.25960930378E+02 -0.30768156594E+02  0.43400727855E+02  0.00000000000E+00 0.  1.
         11    1    3    3    0    0 -0.31327495804E+01  0.12787900596E+02  0.10338298973E+02  0.16739920773E+02  0.51100000000E-03 0. -1.
        -11    1    3    3    0    0 -0.30336838392E+01 -0.15642898048E+01  0.95775759722E+01  0.10167605519E+02  0.51100000000E-03 0.  1.
        -12    1    3    3    0    0 -0.10050033894E+02  0.14737319587E+02  0.10852281649E+02  0.20879745852E+02  0.00000000000E+00 0.  1.
</event>
<event>
 7    1  0.2834226E-010  0.4778727E+02  0.7816164E-02  0.1312668E+00
        -11   -1    0    0    0    0  0.00000000000E+00  0.00000000000E+00  0.45593999997E+02  0.45594000000E+02  0.51100000000E-03 0. -1.
         11   -1    0    0    0    0 -0.00000000000E+00 -0.00000000000E+00 -0.45593999997E+02  0.45594000000E+02  0.51100000000E-03 0.  1.
    9900012    2    1    2    0    0 -0.21155926033E+02  0.24243603968E+02  0.29125554669E+02  0.47787268734E+02  0.19999989464E+02 0.  0.
        -12    1    1    2    0    0  0.21155926033E+02 -0.24243603968E+02 -0.29125554669E+02  0.43400731266E+02  0.00000000000E+00 0.  1.
         11    1    3    3    0    0 -0.52591370332E+00 -0.10739989629E+00  0.39478236907E+01  0.39841476021E+01  0.51100000000E-03 0. -1.
        -11    1    3    3    0    0 -0.59694754277E+01  0.34964931778E+01 -0.13101347359E+01  0.70410620443E+01  0.51100000000E-03 0.  1.
        -12    1    3    3    0    0 -0.14660536902E+02  0.20854510687E+02  0.26487865714E+02  0.36762059087E+02  0.00000000000E+00 0.  1.
</event>
<event>
 7    1  0.2834226E-010  0.4778728E+02  0.7816164E-02  0.1312668E+00
        -11   -1    0    0    0    0  0.00000000000E+00  0.00000000000E+00  0.45593999997E+02  0.45594000000E+02  0.51100000000E-03 0. -1.
         11   -1    0    0    0    0 -0.00000000000E+00 -0.00000000000E+00 -0.45593999997E+02  0.45594000000E+02  0.51100000000E-03 0.  1.
    9900012    2    1    2    0    0  0.27008182735E+02  0.84943322780E+01  0.32894172822E+02  0.47787283172E+02  0.20000055295E+02 0.  0.
        -12    1    1    2    0    0 -0.27008182735E+02 -0.84943322780E+01 -0.32894172822E+02  0.43400716828E+02  0.00000000000E+00 0.  1.
         11    1    3    3    0    0 -0.86660266067E+00  0.65139848296E-01  0.93117575724E+01  0.93522228759E+01  0.51100000000E-03 0. -1.
        -11    1    3    3    0    0  0.10580424304E+02 -0.10384302656E+01  0.84971940953E+01  0.13609776766E+02  0.51100000000E-03 0.  1.
         12    1    3    3    0    0  0.17294361091E+02  0.94676226952E+01  0.15085221155E+02  0.24825283530E+02  0.00000000000E+00 0. -1.
</event>
<event>
 7    1  0.2834226E-010  0.4778727E+02  0.7816164E-02  0.1312668E+00
        -11   -1    0    0    0    0  0.00000000000E+00  0.00000000000E+00  0.45593999997E+02  0.45594000000E+02  0.51100000000E-03 0.  1.
         11   -1    0    0    0    0 -0.00000000000E+00 -0.00000000000E+00 -0.45593999997E+02  0.45594000000E+02  0.51100000000E-03 0. -1.
    9900012    2    1    2    0    0 -0.35525135033E+02  0.93368690302E+01 -0.23117333252E+02  0.47787269142E+02  0.19999991324E+02 0.  0.
        -12    1    1    2    0    0  0.35525135033E+02 -0.93368690302E+01  0.23117333252E+02  0.43400730858E+02  0.00000000000E+00 0.  1.
         11    1    3    3    0    0 -0.55510359394E+01  0.78097010875E+01 -0.16714961581E+01  0.97262187279E+01  0.51100000000E-03 0. -1.
        -11    1    3    3    0    0 -0.11608059653E+02 -0.89588398490E+00 -0.32346647955E+01  0.12083572056E+02  0.51100000000E-03 0.  1.
         12    1    3    3    0    0 -0.18366039440E+02  0.24230519277E+01 -0.18211172298E+02  0.25977478358E+02  0.00000000000E+00 0. -1.
</event>
<event>
 7    1  0.2834226E-010  0.4778727E+02  0.7816164E-02  0.1312668E+00
        -11   -1    0    0    0    0  0.00000000000E+00  0.00000000000E+00  0.45593999997E+02  0.45594000000E+02  0.51100000000E-03 0. -1.
         11   -1    0    0    0    0 -0.00000000000E+00 -0.00000000000E+00 -0.45593999997E+02  0.45594000000E+02  0.51100000000E-03 0.  1.
    9900012    2    1    2    0    0  0.27728892939E+02 -0.74739746173E+01  0.32540307543E+02  0.47787269417E+02  0.19999992578E+02 0.  0.
        -12    1    1    2    0    0 -0.27728892939E+02  0.74739746173E+01 -0.32540307543E+02  0.43400730583E+02  0.00000000000E+00 0.  1.
         11    1    3    3    0    0  0.18584410608E+02 -0.53473938724E+01  0.31726359122E+02  0.37155575655E+02  0.51100000000E-03 0. -1.
        -11    1    3    3    0    0  0.92247522808E+01 -0.28386614155E+01  0.13379851701E+01  0.97439344133E+01  0.51100000000E-03 0.  1.
        -12    1    3    3    0    0 -0.80269949419E-01  0.71208067057E+00 -0.52403674923E+00  0.88775934842E+00  0.00000000000E+00 0.  1.
</event>
<event>
 7    1  0.2834226E-010  0.4778728E+02  0.7816164E-02  0.1312668E+00
        -11   -1    0    0    0    0  0.00000000000E+00  0.00000000000E+00  0.45593999997E+02  0.45594000000E+02  0.51100000000E-03 0. -1.
         11   -1    0    0    0    0 -0.00000000000E+00 -0.00000000000E+00 -0.45593999997E+02  0.45594000000E+02  0.51100000000E-03 0.  1.
    9900012    2    1    2    0    0  0.19449357737E+01  0.41046149998E+02  0.13966149526E+02  0.47787279529E+02  0.20000038683E+02 0.  0.
        -12    1    1    2    0    0 -0.19449357737E+01 -0.41046149998E+02 -0.13966149526E+02  0.43400720471E+02  0.00000000000E+00 0.  1.
         11    1    3    3    0    0 -0.37757123004E+01  0.12949601586E+02  0.42542406490E+01  0.14143788332E+02  0.51100000000E-03 0. -1.
        -11    1    3    3    0    0  0.28443572589E+01  0.27421681131E+02  0.11838667700E+02  0.30003216785E+02  0.51100000000E-03 0.  1.
        -12    1    3    3    0    0  0.28762908152E+01  0.67486728129E+00 -0.21267588236E+01  0.36402744120E+01  0.00000000000E+00 0.  1.
</event>
<event>
 7    1  0.2834226E-010  0.4778727E+02  0.7816164E-02  0.1312668E+00
        -11   -1    0    0    0    0  0.00000000000E+00  0.00000000000E+00  0.45593999997E+02  0.45594000000E+02  0.51100000000E-03 0.  1.
         11   -1    0    0    0    0 -0.00000000000E+00 -0.00000000000E+00 -0.45593999997E+02  0.45594000000E+02  0.51100000000E-03 0. -1.
    9900012    2    1    2    0    0 -0.24121319092E+02  0.35919721790E+02 -0.33998100228E+01  0.47787272398E+02  0.20000006171E+02 0.  0.
        -12    1    1    2    0    0  0.24121319092E+02 -0.35919721790E+02  0.33998100228E+01  0.43400727602E+02  0.00000000000E+00 0.  1.
         11    1    3    3    0    0 -0.14531106053E+02  0.12932249117E+02 -0.30185177520E+01  0.19685211709E+02  0.51100000000E-03 0. -1.
        -11    1    3    3    0    0 -0.64410263919E+01  0.23815411854E+02  0.67062510253E+00  0.24680162095E+02  0.51100000000E-03 0.  1.
        -12    1    3    3    0    0 -0.31491866475E+01 -0.82793918085E+00 -0.10519173734E+01  0.34218985942E+01  0.00000000000E+00 0.  1.
</event>
<event>
 7    1  0.2834226E-010  0.4778726E+02  0.7816164E-02  0.1312668E+00
        -11   -1    0    0    0    0  0.00000000000E+00  0.00000000000E+00  0.45593999997E+02  0.45594000000E+02  0.51100000000E-03 0.  1.
         11   -1    0    0    0    0 -0.00000000000E+00 -0.00000000000E+00 -0.45593999997E+02  0.45594000000E+02  0.51100000000E-03 0. -1.
    9900012    2    1    2    0    0 -0.17748946100E+02  0.32419962863E+02 -0.22749609966E+02  0.47787264599E+02  0.19999970614E+02 0.  0.
        -12    1    1    2    0    0  0.17748946100E+02 -0.32419962863E+02  0.22749609966E+02  0.43400735401E+02  0.00000000000E+00 0.  1.
         11    1    3    3    0    0 -0.11166916138E+02  0.22315829327E+02 -0.21176445806E+02  0.32728246392E+02  0.51100000000E-03 0. -1.
        -11    1    3    3    0    0 -0.65867894678E+00  0.25448295733E+01  0.33570887873E+01  0.42638082625E+01  0.51100000000E-03 0.  1.
        -12    1    3    3    0    0 -0.59233510150E+01  0.75593039620E+01 -0.49302529473E+01  0.10795209945E+02  0.00000000000E+00 0.  1.
</event>
<event>
 7    1  0.2834226E-010  0.4778727E+02  0.7816164E-02  0.1312668E+00
        -11   -1    0    0    0    0  0.00000000000E+00  0.00000000000E+00  0.45593999997E+02  0.45594000000E+02  0.51100000000E-03 0.  1.
         11   -1    0    0    0    0 -0.00000000000E+00 -0.00000000000E+00 -0.45593999997E+02  0.45594000000E+02  0.51100000000E-03 0. -1.
    9900012    2    1    2    0    0  0.43982678926E+01  0.18683067386E+01 -0.43136850830E+02  0.47787271550E+02  0.20000002303E+02 0.  0.
        -12    1    1    2    0    0 -0.43982678926E+01 -0.18683067386E+01  0.43136850830E+02  0.43400728450E+02  0.00000000000E+00 0.  1.
         11    1    3    3    0    0 -0.44474993216E+01 -0.35964006926E+01 -0.19664745530E+02  0.20479662233E+02  0.51100000000E-03 0. -1.
        -11    1    3    3    0    0  0.73828744112E+01  0.96212297739E+00 -0.20264751445E+02  0.21589179386E+02  0.51100000000E-03 0.  1.
         12    1    3    3    0    0  0.14628928030E+01  0.45025844538E+01 -0.32073538547E+01  0.57184299302E+01  0.00000000000E+00 0. -1.
</event>
<event>
 7    1  0.2834226E-010  0.4778727E+02  0.7816164E-02  0.1312668E+00
        -11   -1    0    0    0    0  0.00000000000E+00  0.00000000000E+00  0.45593999997E+02  0.45594000000E+02  0.51100000000E-03 0.  1.
         11   -1    0    0    0    0 -0.00000000000E+00 -0.00000000000E+00 -0.45593999997E+02  0.45594000000E+02  0.51100000000E-03 0. -1.
    9900012    2    1    2    0    0 -0.11936216186E+02 -0.41072207969E+02 -0.73636871348E+01  0.47787269447E+02  0.19999992717E+02 0.  0.
        -12    1    1    2    0    0  0.11936216186E+02  0.41072207969E+02  0.73636871348E+01  0.43400730553E+02  0.00000000000E+00 0.  1.
         11    1    3    3    0    0 -0.40457210113E+01 -0.16991471194E+02 -0.10418101792E+02  0.20337521900E+02  0.51100000000E-03 0. -1.
        -11    1    3    3    0    0 -0.21018787381E+01 -0.18980734579E+02  0.44533421757E+01  0.19609141649E+02  0.51100000000E-03 0.  1.
         12    1    3    3    0    0 -0.57886164369E+01 -0.51000021958E+01 -0.13989275186E+01  0.78406058983E+01  0.00000000000E+00 0. -1.
</event>
<event>
 7    1  0.2834226E-010  0.4778727E+02  0.7816164E-02  0.1312668E+00
        -11   -1    0    0    0    0  0.00000000000E+00  0.00000000000E+00  0.45593999997E+02  0.45594000000E+02  0.51100000000E-03 0.  1.
         11   -1    0    0    0    0 -0.00000000000E+00 -0.00000000000E+00 -0.45593999997E+02  0.45594000000E+02  0.51100000000E-03 0. -1.
    9900012    2    1    2    0    0 -0.32560386604E+02 -0.23680889470E+02 -0.16206785589E+02  0.47787271884E+02  0.20000003828E+02 0.  0.
        -12    1    1    2    0    0  0.32560386604E+02  0.23680889470E+02  0.16206785589E+02  0.43400728116E+02  0.00000000000E+00 0.  1.
         11    1    3    3    0    0 -0.21719592832E+02 -0.55238801093E+01 -0.93448154730E+01  0.24281259043E+02  0.51100000000E-03 0. -1.
        -11    1    3    3    0    0 -0.95368893930E+01 -0.17930382049E+02 -0.79331897967E+01  0.21803356630E+02  0.51100000000E-03 0.  1.
         12    1    3    3    0    0 -0.13039043790E+01 -0.22662731117E+00  0.10712196804E+01  0.17026562105E+01  0.00000000000E+00 0. -1.
</event>
<event>
 7    1  0.2834226E-010  0.4778727E+02  0.7816164E-02  0.1312668E+00
        -11   -1    0    0    0    0  0.00000000000E+00  0.00000000000E+00  0.45593999997E+02  0.45594000000E+02  0.51100000000E-03 0. -1.
         11   -1    0    0    0    0 -0.00000000000E+00 -0.00000000000E+00 -0.45593999997E+02  0.45594000000E+02  0.51100000000E-03 0.  1.
    9900012    2    1    2    0    0  0.19803554364E+02 -0.20945180267E+02 -0.32445987021E+02  0.47787269411E+02  0.19999992553E+02 0.  0.
        -12    1    1    2    0    0 -0.19803554364E+02  0.20945180267E+02  0.32445987021E+02  0.43400730589E+02  0.00000000000E+00 0.  1.
         11    1    3    3    0    0  0.11798014717E+01  0.10347200565E+00  0.23989964405E+00  0.12083832459E+01  0.51100000000E-03 0. -1.
        -11    1    3    3    0    0 -0.26237163199E+01 -0.45115358048E+01 -0.16104541805E+01  0.54618133961E+01  0.51100000000E-03 0.  1.
        -12    1    3    3    0    0  0.21247469212E+02 -0.16537116468E+02 -0.31075432485E+02  0.41117072769E+02  0.00000000000E+00 0.  1.
</event>
<event>
 7    1  0.2834226E-010  0.4778727E+02  0.7816164E-02  0.1312668E+00
        -11   -1    0    0    0    0  0.00000000000E+00  0.00000000000E+00  0.45593999997E+02  0.45594000000E+02  0.51100000000E-03 0.  1.
         11   -1    0    0    0    0 -0.00000000000E+00 -0.00000000000E+00 -0.45593999997E+02  0.45594000000E+02  0.51100000000E-03 0. -1.
    9900012    2    1    2    0    0  0.88142137282E+01 -0.19413599703E+01 -0.42451902070E+02  0.47787271532E+02  0.20000002223E+02 0.  0.
        -12    1    1    2    0    0 -0.88142137282E+01  0.19413599703E+01  0.42451902070E+02  0.43400728468E+02  0.00000000000E+00 0.  1.
         11    1    3    3    0    0 -0.95530289763E+00  0.17134649350E+01 -0.24726232881E+02  0.24803934334E+02  0.51100000000E-03 0. -1.
        -11    1    3    3    0    0  0.70711158140E+01  0.20247360224E+01 -0.53281889471E+01  0.90823913443E+01  0.51100000000E-03 0.  1.
         12    1    3    3    0    0  0.26984008118E+01 -0.56795609277E+01 -0.12397480242E+02  0.13900945854E+02  0.00000000000E+00 0. -1.
</event>
<event>
 7    1  0.2834226E-010  0.4778727E+02  0.7816164E-02  0.1312668E+00
        -11   -1    0    0    0    0  0.00000000000E+00  0.00000000000E+00  0.45593999997E+02  0.45594000000E+02  0.51100000000E-03 0. -1.
         11   -1    0    0    0    0 -0.00000000000E+00 -0.00000000000E+00 -0.45593999997E+02  0.45594000000E+02  0.51100000000E-03 0.  1.
    9900012    2    1    2    0    0  0.17508716049E+02 -0.35316658003E+02  0.18160445475E+02  0.47787271319E+02  0.20000001250E+02 0.  0.
        -12    1    1    2    0    0 -0.17508716049E+02  0.35316658003E+02 -0.18160445475E+02  0.43400728681E+02  0.00000000000E+00 0.  1.
         11    1    3    3    0    0 -0.42122947349E+00 -0.18900828991E+02  0.56380029749E+01  0.19728300703E+02  0.51100000000E-03 0. -1.
        -11    1    3    3    0    0  0.78966008338E+01 -0.51394994537E+01  0.78354272414E+01  0.12254169889E+02  0.51100000000E-03 0.  1.
         12    1    3    3    0    0  0.10033344689E+02 -0.11276329558E+02  0.46870152592E+01  0.15804800726E+02  0.00000000000E+00 0. -1.
</event>
<event>
 7    1  0.2834226E-010  0.4778727E+02  0.7816164E-02  0.1312668E+00
        -11   -1    0    0    0    0  0.00000000000E+00  0.00000000000E+00  0.45593999997E+02  0.45594000000E+02  0.51100000000E-03 0. -1.
         11   -1    0    0    0    0 -0.00000000000E+00 -0.00000000000E+00 -0.45593999997E+02  0.45594000000E+02  0.51100000000E-03 0.  1.
    9900012    2    1    2    0    0  0.26680642821E+02 -0.34179734992E+02  0.18740965004E+01  0.47787271629E+02  0.20000002666E+02 0.  0.
        -12    1    1    2    0    0 -0.26680642821E+02  0.34179734992E+02 -0.18740965004E+01  0.43400728371E+02  0.00000000000E+00 0.  1.
         11    1    3    3    0    0  0.45785821750E+01 -0.54030078076E+01  0.65579009527E+01  0.96520450304E+01  0.51100000000E-03 0. -1.
        -11    1    3    3    0    0  0.61266931038E+01 -0.15575469713E+02 -0.47965956302E+01  0.17410886108E+02  0.51100000000E-03 0.  1.
         12    1    3    3    0    0  0.15975367542E+02 -0.13201257471E+02  0.11279117790E+00  0.20724340491E+02  0.00000000000E+00 0. -1.
</event>
<event>
 7    1  0.2834226E-010  0.4778727E+02  0.7816164E-02  0.1312668E+00
        -11   -1    0    0    0    0  0.00000000000E+00  0.00000000000E+00  0.45593999997E+02  0.45594000000E+02  0.51100000000E-03 0. -1.
         11   -1    0    0    0    0 -0.00000000000E+00 -0.00000000000E+00 -0.45593999997E+02  0.45594000000E+02  0.51100000000E-03 0.  1.
    9900012    2    1    2    0    0  0.26462683350E+02  0.34399310927E+02 -0.19233279370E+00  0.47787271962E+02  0.20000004181E+02 0.  0.
        -12    1    1    2    0    0 -0.26462683350E+02 -0.34399310927E+02  0.19233279370E+00  0.43400728038E+02  0.00000000000E+00 0.  1.
         11    1    3    3    0    0 -0.10107549547E-02  0.87536459991E+01  0.31287917179E+01  0.92960022146E+01  0.51100000000E-03 0. -1.
        -11    1    3    3    0    0  0.14408699241E+02  0.16278441451E+02 -0.69051925664E+01  0.22809646085E+02  0.51100000000E-03 0.  1.
         12    1    3    3    0    0  0.12054994864E+02  0.93672234774E+01  0.35840680547E+01  0.15681623662E+02  0.00000000000E+00 0. -1.
</event>
<event>
 7    1  0.2834226E-010  0.4778727E+02  0.7816164E-02  0.1312668E+00
        -11   -1    0    0    0    0  0.00000000000E+00  0.00000000000E+00  0.45593999997E+02  0.45594000000E+02  0.51100000000E-03 0.  1.
         11   -1    0    0    0    0 -0.00000000000E+00 -0.00000000000E+00 -0.45593999997E+02  0.45594000000E+02  0.51100000000E-03 0. -1.
    9900012    2    1    2    0    0 -0.13245126857E+02 -0.39773198332E+02 -0.11237552525E+02  0.47787271000E+02  0.19999999797E+02 0.  0.
        -12    1    1    2    0    0  0.13245126857E+02  0.39773198332E+02  0.11237552525E+02  0.43400729000E+02  0.00000000000E+00 0.  1.
         11    1    3    3    0    0 -0.98553621075E+01 -0.23583215448E+02 -0.13239989375E+02  0.28785300625E+02  0.51100000000E-03 0. -1.
        -11    1    3    3    0    0  0.42888455635E-01 -0.47278351920E+01 -0.34501632939E+01  0.58530241788E+01  0.51100000000E-03 0.  1.
        -12    1    3    3    0    0 -0.34326532055E+01 -0.11462147691E+02  0.54526001445E+01  0.13148946196E+02  0.00000000000E+00 0.  1.
</event>
<event>
 7    1  0.2834226E-010  0.4778724E+02  0.7816164E-02  0.1312668E+00
        -11   -1    0    0    0    0  0.00000000000E+00  0.00000000000E+00  0.45593999997E+02  0.45594000000E+02  0.51100000000E-03 0.  1.
         11   -1    0    0    0    0 -0.00000000000E+00 -0.00000000000E+00 -0.45593999997E+02  0.45594000000E+02  0.51100000000E-03 0. -1.
    9900012    2    1    2    0    0  0.13037223822E+02  0.36723337343E+02 -0.19106371735E+02  0.47787237893E+02  0.19999848850E+02 0.  0.
        -12    1    1    2    0    0 -0.13037223822E+02 -0.36723337343E+02  0.19106371735E+02  0.43400762107E+02  0.00000000000E+00 0.  1.
         11    1    3    3    0    0 -0.37580795832E+01  0.82144710214E+01 -0.63215082144E+01  0.11025523238E+02  0.51100000000E-03 0. -1.
        -11    1    3    3    0    0  0.13134412904E+02  0.14227998239E+02 -0.98688794842E+01  0.21733465410E+02  0.51100000000E-03 0.  1.
         12    1    3    3    0    0  0.36608905017E+01  0.14280868083E+02 -0.29159840359E+01  0.15028249245E+02  0.00000000000E+00 0. -1.
</event>
<event>
 7    1  0.2834226E-010  0.4778728E+02  0.7816164E-02  0.1312668E+00
        -11   -1    0    0    0    0  0.00000000000E+00  0.00000000000E+00  0.45593999997E+02  0.45594000000E+02  0.51100000000E-03 0.  1.
         11   -1    0    0    0    0 -0.00000000000E+00 -0.00000000000E+00 -0.45593999997E+02  0.45594000000E+02  0.51100000000E-03 0. -1.
    9900012    2    1    2    0    0 -0.38684392243E+02 -0.72119967923E+01 -0.18306496490E+02  0.47787275182E+02  0.20000018865E+02 0.  0.
        -12    1    1    2    0    0  0.38684392243E+02  0.72119967923E+01  0.18306496490E+02  0.43400724818E+02  0.00000000000E+00 0.  1.
         11    1    3    3    0    0 -0.28822181099E+02 -0.12324668936E+02 -0.85509961811E+01  0.32492077860E+02  0.51100000000E-03 0. -1.
        -11    1    3    3    0    0 -0.55099662592E+01  0.47191879894E+01 -0.48555488367E+01  0.87296516668E+01  0.51100000000E-03 0.  1.
         12    1    3    3    0    0 -0.43522448854E+01  0.39348415458E+00 -0.48999514725E+01  0.65655456555E+01  0.00000000000E+00 0. -1.
</event>
<event>
 7    1  0.2834226E-010  0.4778727E+02  0.7816164E-02  0.1312668E+00
        -11   -1    0    0    0    0  0.00000000000E+00  0.00000000000E+00  0.45593999997E+02  0.45594000000E+02  0.51100000000E-03 0. -1.
         11   -1    0    0    0    0 -0.00000000000E+00 -0.00000000000E+00 -0.45593999997E+02  0.45594000000E+02  0.51100000000E-03 0.  1.
    9900012    2    1    2    0    0  0.97741748406E+01  0.37699196830E+02 -0.19153583179E+02  0.47787266319E+02  0.19999978457E+02 0.  0.
        -12    1    1    2    0    0 -0.97741748406E+01 -0.37699196830E+02  0.19153583179E+02  0.43400733681E+02  0.00000000000E+00 0.  1.
         11    1    3    3    0    0  0.52555889803E+01  0.28841130587E+02 -0.11492183398E+02  0.31488129646E+02  0.51100000000E-03 0. -1.
        -11    1    3    3    0    0  0.78269712475E+01  0.58630356576E+01 -0.63016328347E+01  0.11633883388E+02  0.51100000000E-03 0.  1.
         12    1    3    3    0    0 -0.33083853871E+01  0.29950305851E+01 -0.13597669460E+01  0.46652532861E+01  0.00000000000E+00 0. -1.
</event>
<event>
 7    1  0.2834226E-010  0.4778727E+02  0.7816164E-02  0.1312668E+00
        -11   -1    0    0    0    0  0.00000000000E+00  0.00000000000E+00  0.45593999997E+02  0.45594000000E+02  0.51100000000E-03 0.  1.
         11   -1    0    0    0    0 -0.00000000000E+00 -0.00000000000E+00 -0.45593999997E+02  0.45594000000E+02  0.51100000000E-03 0. -1.
    9900012    2    1    2    0    0  0.10009447377E+01  0.43310007491E+02 -0.26201443960E+01  0.47787265030E+02  0.19999972578E+02 0.  0.
        -12    1    1    2    0    0 -0.10009447377E+01 -0.43310007491E+02  0.26201443960E+01  0.43400734970E+02  0.00000000000E+00 0.  1.
         11    1    3    3    0    0  0.64165661324E+01  0.28397133691E+02 -0.37192836555E+01  0.29349660883E+02  0.51100000000E-03 0. -1.
        -11    1    3    3    0    0 -0.23185495153E+01  0.14041318266E+02  0.32107939788E+01  0.14589156547E+02  0.51100000000E-03 0.  1.
         12    1    3    3    0    0 -0.30970718794E+01  0.87155553391E+00 -0.21116547193E+01  0.38484475998E+01  0.00000000000E+00 0. -1.
</event>
<event>
 7    1  0.2834226E-010  0.4778727E+02  0.7816164E-02  0.1312668E+00
        -11   -1    0    0    0    0  0.00000000000E+00  0.00000000000E+00  0.45593999997E+02  0.45594000000E+02  0.51100000000E-03 0.  1.
         11   -1    0    0    0    0 -0.00000000000E+00 -0.00000000000E+00 -0.45593999997E+02  0.45594000000E+02  0.51100000000E-03 0. -1.
    9900012    2    1    2    0    0  0.37685155707E+02  0.21516865575E+02 -0.69053844193E+00  0.47787270649E+02  0.19999998199E+02 0.  0.
        -12    1    1    2    0    0 -0.37685155707E+02 -0.21516865575E+02  0.69053844193E+00  0.43400729351E+02  0.00000000000E+00 0.  1.
         11    1    3    3    0    0  0.36974335108E+01  0.88506196598E+00 -0.54937329605E+01  0.66809768262E+01  0.51100000000E-03 0. -1.
        -11    1    3    3    0    0  0.15282821081E+02  0.80875213151E+01  0.66120823701E+01  0.18511948972E+02  0.51100000000E-03 0.  1.
         12    1    3    3    0    0  0.18704901115E+02  0.12544282294E+02 -0.18088878515E+01  0.22594344851E+02  0.00000000000E+00 0. -1.
</event>
<event>
 7    1  0.2834226E-010  0.4778727E+02  0.7816164E-02  0.1312668E+00
        -11   -1    0    0    0    0  0.00000000000E+00  0.00000000000E+00  0.45593999997E+02  0.45594000000E+02  0.51100000000E-03 0.  1.
         11   -1    0    0    0    0 -0.00000000000E+00 -0.00000000000E+00 -0.45593999997E+02  0.45594000000E+02  0.51100000000E-03 0. -1.
    9900012    2    1    2    0    0 -0.31818380185E+02  0.13400207688E+02 -0.26299206249E+02  0.47787272667E+02  0.20000007398E+02 0.  0.
        -12    1    1    2    0    0  0.31818380185E+02 -0.13400207688E+02  0.26299206249E+02  0.43400727333E+02  0.00000000000E+00 0.  1.
         11    1    3    3    0    0 -0.10942291398E+02  0.62822685941E+01 -0.30641895749E+00  0.12621193785E+02  0.51100000000E-03 0. -1.
        -11    1    3    3    0    0 -0.47011184935E+01 -0.15274496203E+01 -0.84321129244E+01  0.97741570513E+01  0.51100000000E-03 0.  1.
         12    1    3    3    0    0 -0.16174970294E+02  0.86453887145E+01 -0.17560674367E+02  0.25391921831E+02  0.00000000000E+00 0. -1.
</event>
<event>
 7    1  0.2834226E-010  0.4778727E+02  0.7816164E-02  0.1312668E+00
        -11   -1    0    0    0    0  0.00000000000E+00  0.00000000000E+00  0.45593999997E+02  0.45594000000E+02  0.51100000000E-03 0. -1.
         11   -1    0    0    0    0 -0.00000000000E+00 -0.00000000000E+00 -0.45593999997E+02  0.45594000000E+02  0.51100000000E-03 0.  1.
    9900012    2    1    2    0    0 -0.39540807534E+02  0.17882712786E+02 -0.59686299260E+00  0.47787272789E+02  0.20000007953E+02 0.  0.
        -12    1    1    2    0    0  0.39540807534E+02 -0.17882712786E+02  0.59686299260E+00  0.43400727211E+02  0.00000000000E+00 0.  1.
         11    1    3    3    0    0 -0.28224755023E+02  0.17010897392E+02  0.50858123212E+01  0.33344758410E+02  0.51100000000E-03 0. -1.
        -11    1    3    3    0    0 -0.10719566997E+02 -0.15025147438E+01 -0.47882413936E+01  0.11836127874E+02  0.51100000000E-03 0.  1.
         12    1    3    3    0    0 -0.59648551426E+00  0.23743301377E+01 -0.89443392022E+00  0.26063865042E+01  0.00000000000E+00 0. -1.
</event>
<event>
 7    1  0.2834226E-010  0.4778727E+02  0.7816164E-02  0.1312668E+00
        -11   -1    0    0    0    0  0.00000000000E+00  0.00000000000E+00  0.45593999997E+02  0.45594000000E+02  0.51100000000E-03 0.  1.
         11   -1    0    0    0    0 -0.00000000000E+00 -0.00000000000E+00 -0.45593999997E+02  0.45594000000E+02  0.51100000000E-03 0. -1.
    9900012    2    1    2    0    0  0.43079205420E+01  0.13484484239E+02 -0.41027234259E+02  0.47787269067E+02  0.19999990984E+02 0.  0.
        -12    1    1    2    0    0 -0.43079205420E+01 -0.13484484239E+02  0.41027234259E+02  0.43400730933E+02  0.00000000000E+00 0.  1.
         11    1    3    3    0    0  0.20703381500E+01  0.11266933475E+02 -0.39654049121E+02  0.41275582393E+02  0.51100000000E-03 0. -1.
        -11    1    3    3    0    0 -0.16232729746E+00  0.18634373417E+01  0.17469739592E+01  0.25594271143E+01  0.51100000000E-03 0.  1.
         12    1    3    3    0    0  0.23999096894E+01  0.35411342316E+00 -0.31201590970E+01  0.39522595593E+01  0.00000000000E+00 0. -1.
</event>
<event>
 7    1  0.2834226E-010  0.4778726E+02  0.7816164E-02  0.1312668E+00
        -11   -1    0    0    0    0  0.00000000000E+00  0.00000000000E+00  0.45593999997E+02  0.45594000000E+02  0.51100000000E-03 0.  1.
         11   -1    0    0    0    0 -0.00000000000E+00 -0.00000000000E+00 -0.45593999997E+02  0.45594000000E+02  0.51100000000E-03 0. -1.
    9900012    2    1    2    0    0 -0.26314778370E+01  0.32054774720E+02 -0.29140879716E+02  0.47787261198E+02  0.19999955106E+02 0.  0.
        -12    1    1    2    0    0  0.26314778370E+01 -0.32054774720E+02  0.29140879716E+02  0.43400738802E+02  0.00000000000E+00 0.  1.
         11    1    3    3    0    0  0.46525605419E+01  0.15201631758E+02 -0.88201696910E+01  0.18180520382E+02  0.51100000000E-03 0. -1.
        -11    1    3    3    0    0 -0.10038722263E+02  0.15362027736E+02 -0.18027454508E+02  0.25724637162E+02  0.51100000000E-03 0.  1.
        -12    1    3    3    0    0  0.27546838838E+01  0.14911152257E+01 -0.22932555165E+01  0.38821036539E+01  0.00000000000E+00 0.  1.
</event>
<event>
 7    1  0.2834226E-010  0.4778727E+02  0.7816164E-02  0.1312668E+00
        -11   -1    0    0    0    0  0.00000000000E+00  0.00000000000E+00  0.45593999997E+02  0.45594000000E+02  0.51100000000E-03 0.  1.
         11   -1    0    0    0    0 -0.00000000000E+00 -0.00000000000E+00 -0.45593999997E+02  0.45594000000E+02  0.51100000000E-03 0. -1.
    9900012    2    1    2    0    0 -0.19832276430E+01  0.26816436614E+02 -0.34067117262E+02  0.47787274855E+02  0.20000017374E+02 0.  0.
        -12    1    1    2    0    0  0.19832276430E+01 -0.26816436614E+02  0.34067117262E+02  0.43400725145E+02  0.00000000000E+00 0.  1.
         11    1    3    3    0    0 -0.29015413062E-01  0.18957519432E+02 -0.26195202701E+02  0.32335383556E+02  0.51100000000E-03 0. -1.
        -11    1    3    3    0    0  0.20144438311E+01 -0.46295125064E-01  0.15397479611E+01  0.25359320244E+01  0.51100000000E-03 0.  1.
        -12    1    3    3    0    0 -0.39686560611E+01  0.79052123079E+01 -0.94116625217E+01  0.12915959275E+02  0.00000000000E+00 0.  1.
</event>
<event>
 7    1  0.2834226E-010  0.4778727E+02  0.7816164E-02  0.1312668E+00
        -11   -1    0    0    0    0  0.00000000000E+00  0.00000000000E+00  0.45593999997E+02  0.45594000000E+02  0.51100000000E-03 0.  1.
         11   -1    0    0    0    0 -0.00000000000E+00 -0.00000000000E+00 -0.45593999997E+02  0.45594000000E+02  0.51100000000E-03 0. -1.
    9900012    2    1    2    0    0 -0.16960565314E+02 -0.34729914661E+02  0.19743245778E+02  0.47787268416E+02  0.19999988016E+02 0.  0.
        -12    1    1    2    0    0  0.16960565314E+02  0.34729914661E+02 -0.19743245778E+02  0.43400731584E+02  0.00000000000E+00 0.  1.
         11    1    3    3    0    0 -0.46948738899E+01 -0.30622791113E+01  0.79936760239E+01  0.97631066180E+01  0.51100000000E-03 0. -1.
        -11    1    3    3    0    0 -0.40389217763E+01 -0.10848706958E+02 -0.20081367778E+01  0.11749040188E+02  0.51100000000E-03 0.  1.
        -12    1    3    3    0    0 -0.82267696483E+01 -0.20818928593E+02  0.13757706532E+02  0.26275121610E+02  0.00000000000E+00 0.  1.
</event>
<event>
 7    1  0.2834226E-010  0.4778727E+02  0.7816164E-02  0.1312668E+00
        -11   -1    0    0    0    0  0.00000000000E+00  0.00000000000E+00  0.45593999997E+02  0.45594000000E+02  0.51100000000E-03 0.  1.
         11   -1    0    0    0    0 -0.00000000000E+00 -0.00000000000E+00 -0.45593999997E+02  0.45594000000E+02  0.51100000000E-03 0. -1.
    9900012    2    1    2    0    0  0.19635125318E+02  0.37202479036E+01 -0.38525901993E+02  0.47787268265E+02  0.19999987327E+02 0.  0.
        -12    1    1    2    0    0 -0.19635125318E+02 -0.37202479036E+01  0.38525901993E+02  0.43400731735E+02  0.00000000000E+00 0.  1.
         11    1    3    3    0    0 -0.31467083030E+01  0.32391059622E+00 -0.59168511610E+01  0.67093829181E+01  0.51100000000E-03 0. -1.
        -11    1    3    3    0    0  0.64166448177E+00 -0.20563556857E+01 -0.23249436576E+01  0.31694944842E+01  0.51100000000E-03 0.  1.
         12    1    3    3    0    0  0.22140169140E+02  0.54526929931E+01 -0.30284107175E+02  0.37908390863E+02  0.00000000000E+00 0. -1.
</event>
<event>
 7    1  0.2834226E-010  0.4778727E+02  0.7816164E-02  0.1312668E+00
        -11   -1    0    0    0    0  0.00000000000E+00  0.00000000000E+00  0.45593999997E+02  0.45594000000E+02  0.51100000000E-03 0. -1.
         11   -1    0    0    0    0 -0.00000000000E+00 -0.00000000000E+00 -0.45593999997E+02  0.45594000000E+02  0.51100000000E-03 0.  1.
    9900012    2    1    2    0    0 -0.29460361850E+02 -0.29291365024E+02  0.12558915337E+02  0.47787270286E+02  0.19999996540E+02 0.  0.
        -12    1    1    2    0    0  0.29460361850E+02  0.29291365024E+02 -0.12558915337E+02  0.43400729714E+02  0.00000000000E+00 0.  1.
         11    1    3    3    0    0 -0.25424930837E+01  0.17078302067E+01 -0.16997629404E+01  0.35028773045E+01  0.51100000000E-03 0. -1.
        -11    1    3    3    0    0 -0.99932339971E+01 -0.16264052986E+02  0.35349201050E+01  0.19413392430E+02  0.51100000000E-03 0.  1.
         12    1    3    3    0    0 -0.16924634769E+02 -0.14735142245E+02  0.10723758172E+02  0.24871000551E+02  0.00000000000E+00 0. -1.
</event>
<event>
 7    1  0.2834226E-010  0.4778727E+02  0.7816164E-02  0.1312668E+00
        -11   -1    0    0    0    0  0.00000000000E+00  0.00000000000E+00  0.45593999997E+02  0.45594000000E+02  0.51100000000E-03 0. -1.
         11   -1    0    0    0    0 -0.00000000000E+00 -0.00000000000E+00 -0.45593999997E+02  0.45594000000E+02  0.51100000000E-03 0.  1.
    9900012    2    1    2    0    0 -0.18249390720E+02  0.36353689991E+02  0.15132490603E+02  0.47787270634E+02  0.19999998130E+02 0.  0.
        -12    1    1    2    0    0  0.18249390720E+02 -0.36353689991E+02 -0.15132490603E+02  0.43400729366E+02  0.00000000000E+00 0.  1.
         11    1    3    3    0    0 -0.62174192609E+01 -0.17031828592E+00  0.21078968497E+01  0.65672322918E+01  0.51100000000E-03 0. -1.
        -11    1    3    3    0    0 -0.16885719994E+01  0.82442472756E+00  0.14799482062E+00  0.18849016571E+01  0.51100000000E-03 0.  1.
         12    1    3    3    0    0 -0.10343399459E+02  0.35699583550E+02  0.12876598932E+02  0.39335136685E+02  0.00000000000E+00 0. -1.
</event>
<event>
 7    1  0.2834226E-010  0.4778728E+02  0.7816164E-02  0.1312668E+00
        -11   -1    0    0    0    0  0.00000000000E+00  0.00000000000E+00  0.45593999997E+02  0.45594000000E+02  0.51100000000E-03 0. -1.
         11   -1    0    0    0    0 -0.00000000000E+00 -0.00000000000E+00 -0.45593999997E+02  0.45594000000E+02  0.51100000000E-03 0.  1.
    9900012    2    1    2    0    0  0.45699276695E+01 -0.41234929179E+02  0.12744368932E+02  0.47787279236E+02  0.20000037350E+02 0.  0.
        -12    1    1    2    0    0 -0.45699276695E+01  0.41234929179E+02 -0.12744368932E+02  0.43400720764E+02  0.00000000000E+00 0.  1.
         11    1    3    3    0    0  0.22643020282E+01 -0.73888481075E+01  0.26702527378E+01  0.81763310828E+01  0.51100000000E-03 0. -1.
        -11    1    3    3    0    0 -0.62775872418E+01 -0.24086863992E+02  0.38026815810E+01  0.25180260245E+02  0.51100000000E-03 0.  1.
        -12    1    3    3    0    0  0.85832128831E+01 -0.97592170802E+01  0.62714346129E+01  0.14430687909E+02  0.00000000000E+00 0.  1.
</event>
<event>
 7    1  0.2834226E-010  0.4778726E+02  0.7816164E-02  0.1312668E+00
        -11   -1    0    0    0    0  0.00000000000E+00  0.00000000000E+00  0.45593999997E+02  0.45594000000E+02  0.51100000000E-03 0.  1.
         11   -1    0    0    0    0 -0.00000000000E+00 -0.00000000000E+00 -0.45593999997E+02  0.45594000000E+02  0.51100000000E-03 0. -1.
    9900012    2    1    2    0    0 -0.19211492002E+02 -0.10740425284E+02 -0.37405700938E+02  0.47787255503E+02  0.19999929142E+02 0.  0.
        -12    1    1    2    0    0  0.19211492002E+02  0.10740425284E+02  0.37405700938E+02  0.43400744497E+02  0.00000000000E+00 0.  1.
         11    1    3    3    0    0 -0.23584472265E+01 -0.32403361192E+01 -0.10211181435E+02  0.10969515853E+02  0.51100000000E-03 0. -1.
        -11    1    3    3    0    0  0.25911001220E+01  0.11906098581E+01 -0.66064537291E+01  0.71955946809E+01  0.51100000000E-03 0.  1.
        -12    1    3    3    0    0 -0.19444144898E+02 -0.86906990227E+01 -0.20588065773E+02  0.29622144970E+02  0.00000000000E+00 0.  1.
</event>
<event>
 7    1  0.2834226E-010  0.4778727E+02  0.7816164E-02  0.1312668E+00
        -11   -1    0    0    0    0  0.00000000000E+00  0.00000000000E+00  0.45593999997E+02  0.45594000000E+02  0.51100000000E-03 0.  1.
         11   -1    0    0    0    0 -0.00000000000E+00 -0.00000000000E+00 -0.45593999997E+02  0.45594000000E+02  0.51100000000E-03 0. -1.
    9900012    2    1    2    0    0  0.28021526228E+02 -0.16088390113E+02 -0.28975528654E+02  0.47787268562E+02  0.19999988680E+02 0.  0.
        -12    1    1    2    0    0 -0.28021526228E+02  0.16088390113E+02  0.28975528654E+02  0.43400731438E+02  0.00000000000E+00 0.  1.
         11    1    3    3    0    0  0.59174394662E+01 -0.34283002172E+01 -0.15873034154E+02  0.17283591806E+02  0.51100000000E-03 0. -1.
        -11    1    3    3    0    0  0.14735693842E+02 -0.13637467441E+02 -0.10242322473E+02  0.22539440124E+02  0.51100000000E-03 0.  1.
        -12    1    3    3    0    0  0.73683929204E+01  0.97737754521E+00 -0.28601720273E+01  0.79642366314E+01  0.00000000000E+00 0.  1.
</event>
<event>
 7    1  0.2834226E-010  0.4778728E+02  0.7816164E-02  0.1312668E+00
        -11   -1    0    0    0    0  0.00000000000E+00  0.00000000000E+00  0.45593999997E+02  0.45594000000E+02  0.51100000000E-03 0.  1.
         11   -1    0    0    0    0 -0.00000000000E+00 -0.00000000000E+00 -0.45593999997E+02  0.45594000000E+02  0.51100000000E-03 0. -1.
    9900012    2    1    2    0    0  0.41944910053E+02  0.36680470876E+01 -0.10525816207E+02  0.47787275863E+02  0.20000021969E+02 0.  0.
        -12    1    1    2    0    0 -0.41944910053E+02 -0.36680470876E+01  0.10525816207E+02  0.43400724137E+02  0.00000000000E+00 0.  1.
         11    1    3    3    0    0  0.14114347063E+02  0.17364847666E+01 -0.12724700440E+02  0.19082666844E+02  0.51100000000E-03 0. -1.
        -11    1    3    3    0    0  0.16155479108E+02 -0.13593410685E+01 -0.71922633202E+00  0.16228511950E+02  0.51100000000E-03 0.  1.
         12    1    3    3    0    0  0.11675083883E+02  0.32909033895E+01  0.29181105646E+01  0.12476097068E+02  0.00000000000E+00 0. -1.
</event>
<event>
 7    1  0.2834226E-010  0.4778727E+02  0.7816164E-02  0.1312668E+00
        -11   -1    0    0    0    0  0.00000000000E+00  0.00000000000E+00  0.45593999997E+02  0.45594000000E+02  0.51100000000E-03 0. -1.
         11   -1    0    0    0    0 -0.00000000000E+00 -0.00000000000E+00 -0.45593999997E+02  0.45594000000E+02  0.51100000000E-03 0.  1.
    9900012    2    1    2    0    0  0.29133290659E+02  0.28667695133E+02  0.14595817243E+02  0.47787271321E+02  0.20000001261E+02 0.  0.
        -12    1    1    2    0    0 -0.29133290659E+02 -0.28667695133E+02 -0.14595817243E+02  0.43400728679E+02  0.00000000000E+00 0.  1.
         11    1    3    3    0    0  0.85329801677E+01  0.89296924685E+01  0.14521421498E+01  0.12436232356E+02  0.51100000000E-03 0. -1.
        -11    1    3    3    0    0  0.14547056858E+02  0.59703809069E+01  0.12852154038E+02  0.20308623171E+02  0.51100000000E-03 0.  1.
        -12    1    3    3    0    0  0.60532536335E+01  0.13767621758E+02  0.29152105489E+00  0.15042415795E+02  0.00000000000E+00 0.  1.
</event>
<event>
 7    1  0.2834226E-010  0.4778727E+02  0.7816164E-02  0.1312668E+00
        -11   -1    0    0    0    0  0.00000000000E+00  0.00000000000E+00  0.45593999997E+02  0.45594000000E+02  0.51100000000E-03 0. -1.
         11   -1    0    0    0    0 -0.00000000000E+00 -0.00000000000E+00 -0.45593999997E+02  0.45594000000E+02  0.51100000000E-03 0.  1.
    9900012    2    1    2    0    0  0.29205304261E+02 -0.29596822982E+02 -0.12437916601E+02  0.47787268474E+02  0.19999988281E+02 0.  0.
        -12    1    1    2    0    0 -0.29205304261E+02  0.29596822982E+02  0.12437916601E+02  0.43400731526E+02  0.00000000000E+00 0.  1.
         11    1    3    3    0    0  0.22807375280E+02 -0.20138527607E+02 -0.25404896023E+01  0.30531798981E+02  0.51100000000E-03 0. -1.
        -11    1    3    3    0    0  0.10699989651E+01 -0.76392880339E+01 -0.84521926969E+01  0.11443040728E+02  0.51100000000E-03 0.  1.
        -12    1    3    3    0    0  0.53279300164E+01 -0.18190073411E+01 -0.14452343014E+01  0.58124287654E+01  0.00000000000E+00 0.  1.
</event>
<event>
 7    1  0.2834226E-010  0.4778727E+02  0.7816164E-02  0.1312668E+00
        -11   -1    0    0    0    0  0.00000000000E+00  0.00000000000E+00  0.45593999997E+02  0.45594000000E+02  0.51100000000E-03 0.  1.
         11   -1    0    0    0    0 -0.00000000000E+00 -0.00000000000E+00 -0.45593999997E+02  0.45594000000E+02  0.51100000000E-03 0. -1.
    9900012    2    1    2    0    0 -0.35999141755E+02 -0.12884857099E+02 -0.20534499800E+02  0.47787269228E+02  0.19999991716E+02 0.  0.
        -12    1    1    2    0    0  0.35999141755E+02  0.12884857099E+02  0.20534499800E+02  0.43400730772E+02  0.00000000000E+00 0.  1.
         11    1    3    3    0    0 -0.13568301821E+02 -0.28614331107E+01 -0.10313763828E+02  0.17281792104E+02  0.51100000000E-03 0. -1.
        -11    1    3    3    0    0 -0.55823419347E+01  0.30548722928E+01  0.94093672666E+00  0.64327403481E+01  0.51100000000E-03 0.  1.
        -12    1    3    3    0    0 -0.16848497999E+02 -0.13078296281E+02 -0.11161672698E+02  0.24072736775E+02  0.00000000000E+00 0.  1.
</event>
<event>
 7    1  0.2834226E-010  0.4778727E+02  0.7816164E-02  0.1312668E+00
        -11   -1    0    0    0    0  0.00000000000E+00  0.00000000000E+00  0.45593999997E+02  0.45594000000E+02  0.51100000000E-03 0.  1.
         11   -1    0    0    0    0 -0.00000000000E+00 -0.00000000000E+00 -0.45593999997E+02  0.45594000000E+02  0.51100000000E-03 0. -1.
    9900012    2    1    2    0    0 -0.30224421409E+02 -0.83282642323E+01 -0.30012455463E+02  0.47787272846E+02  0.20000008213E+02 0.  0.
        -12    1    1    2    0    0  0.30224421409E+02  0.83282642323E+01  0.30012455463E+02  0.43400727154E+02  0.00000000000E+00 0.  1.
         11    1    3    3    0    0 -0.13577869944E+02 -0.16418406792E+01 -0.25113097717E+02  0.28595836589E+02  0.51100000000E-03 0. -1.
        -11    1    3    3    0    0 -0.12872704411E+02 -0.30580952608E+01 -0.26511210903E+01  0.13493958232E+02  0.51100000000E-03 0.  1.
         12    1    3    3    0    0 -0.37738470537E+01 -0.36283282923E+01 -0.22482366554E+01  0.56974780246E+01  0.00000000000E+00 0. -1.
</event>
<event>
 7    1  0.2834226E-010  0.4778727E+02  0.7816164E-02  0.1312668E+00
        -11   -1    0    0    0    0  0.00000000000E+00  0.00000000000E+00  0.45593999997E+02  0.45594000000E+02  0.51100000000E-03 0.  1.
         11   -1    0    0    0    0 -0.00000000000E+00 -0.00000000000E+00 -0.45593999997E+02  0.45594000000E+02  0.51100000000E-03 0. -1.
    9900012    2    1    2    0    0  0.20395680810E+02  0.12241740632E+02 -0.36301235898E+02  0.47787265708E+02  0.19999975668E+02 0.  0.
        -12    1    1    2    0    0 -0.20395680810E+02 -0.12241740632E+02  0.36301235898E+02  0.43400734292E+02  0.00000000000E+00 0.  1.
         11    1    3    3    0    0 -0.48753639420E-01 -0.18866488323E+01 -0.11524562063E+02  0.11678071405E+02  0.51100000000E-03 0.  1.
        -11    1    3    3    0    0  0.24043814341E+01  0.25675341039E+01 -0.85073709535E+01  0.92059025769E+01  0.51100000000E-03 0. -1.
         12    1    3    3    0    0  0.18040053015E+02  0.11560855361E+02 -0.16269302881E+02  0.26903291726E+02  0.00000000000E+00 0. -1.
</event>
<event>
 7    1  0.2834226E-010  0.4778727E+02  0.7816164E-02  0.1312668E+00
        -11   -1    0    0    0    0  0.00000000000E+00  0.00000000000E+00  0.45593999997E+02  0.45594000000E+02  0.51100000000E-03 0.  1.
         11   -1    0    0    0    0 -0.00000000000E+00 -0.00000000000E+00 -0.45593999997E+02  0.45594000000E+02  0.51100000000E-03 0. -1.
    9900012    2    1    2    0    0  0.23851746840E+02 -0.14975384617E+02 -0.33022046286E+02  0.47787268294E+02  0.19999987459E+02 0.  0.
        -12    1    1    2    0    0 -0.23851746840E+02  0.14975384617E+02  0.33022046286E+02  0.43400731706E+02  0.00000000000E+00 0.  1.
         11    1    3    3    0    0  0.66136808198E+01 -0.44803495161E+01 -0.94433669133E+01  0.12368972661E+02  0.51100000000E-03 0. -1.
        -11    1    3    3    0    0  0.18258663202E+02 -0.12002339412E+02 -0.24930707655E+02  0.33150793621E+02  0.51100000000E-03 0.  1.
        -12    1    3    3    0    0 -0.10205971819E+01  0.15073043111E+01  0.13520282829E+01  0.22675020114E+01  0.00000000000E+00 0.  1.
</event>
<event>
 7    1  0.2834226E-010  0.4778728E+02  0.7816164E-02  0.1312668E+00
        -11   -1    0    0    0    0  0.00000000000E+00  0.00000000000E+00  0.45593999997E+02  0.45594000000E+02  0.51100000000E-03 0.  1.
         11   -1    0    0    0    0 -0.00000000000E+00 -0.00000000000E+00 -0.45593999997E+02  0.45594000000E+02  0.51100000000E-03 0. -1.
    9900012    2    1    2    0    0  0.13864779447E+02 -0.34626466891E+02 -0.22190055867E+02  0.47787275377E+02  0.20000019754E+02 0.  0.
        -12    1    1    2    0    0 -0.13864779447E+02  0.34626466891E+02  0.22190055867E+02  0.43400724623E+02  0.00000000000E+00 0.  1.
         11    1    3    3    0    0  0.10163270710E+02 -0.22418116949E+02 -0.17780504405E+02  0.30364623762E+02  0.51100000000E-03 0. -1.
        -11    1    3    3    0    0 -0.22081366360E+01  0.52501018255E+00 -0.22925447734E+01  0.32260292767E+01  0.51100000000E-03 0.  1.
         12    1    3    3    0    0  0.59096453731E+01 -0.12733360125E+02 -0.21170066881E+01  0.14196622338E+02  0.00000000000E+00 0. -1.
</event>
<event>
 7    1  0.2834226E-010  0.4778727E+02  0.7816164E-02  0.1312668E+00
        -11   -1    0    0    0    0  0.00000000000E+00  0.00000000000E+00  0.45593999997E+02  0.45594000000E+02  0.51100000000E-03 0.  1.
         11   -1    0    0    0    0 -0.00000000000E+00 -0.00000000000E+00 -0.45593999997E+02  0.45594000000E+02  0.51100000000E-03 0. -1.
    9900012    2    1    2    0    0 -0.14198345171E+02 -0.40580960557E+02 -0.59342948551E+01  0.47787271656E+02  0.20000002790E+02 0.  0.
        -12    1    1    2    0    0  0.14198345171E+02  0.40580960557E+02  0.59342948551E+01  0.43400728344E+02  0.00000000000E+00 0.  1.
         11    1    3    3    0    0 -0.72267279544E+01 -0.38730124951E+02 -0.18996719787E+01  0.39444352315E+02  0.51100000000E-03 0. -1.
        -11    1    3    3    0    0 -0.32388170992E+01 -0.14379095577E+01 -0.18345113423E+01  0.39903574056E+01  0.51100000000E-03 0.  1.
         12    1    3    3    0    0 -0.37328001178E+01 -0.41292604791E+00 -0.22001115341E+01  0.43525619355E+01  0.00000000000E+00 0. -1.
</event>
<event>
 7    1  0.2834226E-010  0.4778727E+02  0.7816164E-02  0.1312668E+00
        -11   -1    0    0    0    0  0.00000000000E+00  0.00000000000E+00  0.45593999997E+02  0.45594000000E+02  0.51100000000E-03 0. -1.
         11   -1    0    0    0    0 -0.00000000000E+00 -0.00000000000E+00 -0.45593999997E+02  0.45594000000E+02  0.51100000000E-03 0.  1.
    9900012    2    1    2    0    0  0.41081055575E+02 -0.11715426130E+02 -0.76628369626E+01  0.47787269512E+02  0.19999993014E+02 0.  0.
        -12    1    1    2    0    0 -0.41081055575E+02  0.11715426130E+02  0.76628369626E+01  0.43400730488E+02  0.00000000000E+00 0.  1.
         11    1    3    3    0    0  0.12863272287E+02  0.29194034849E+00  0.44735240899E+01  0.13622093127E+02  0.51100000000E-03 0. -1.
        -11    1    3    3    0    0  0.17412569672E+02 -0.11893686982E+02 -0.71680826758E+01  0.22271928118E+02  0.51100000000E-03 0.  1.
         12    1    3    3    0    0  0.10805213616E+02 -0.11367949648E+00 -0.49682783767E+01  0.11893248267E+02  0.00000000000E+00 0. -1.
</event>
<event>
 7    1  0.2834226E-010  0.4778727E+02  0.7816164E-02  0.1312668E+00
        -11   -1    0    0    0    0  0.00000000000E+00  0.00000000000E+00  0.45593999997E+02  0.45594000000E+02  0.51100000000E-03 0.  1.
         11   -1    0    0    0    0 -0.00000000000E+00 -0.00000000000E+00 -0.45593999997E+02  0.45594000000E+02  0.51100000000E-03 0. -1.
    9900012    2    1    2    0    0 -0.24931066552E+02 -0.34858211988E+02 -0.68535161413E+01  0.47787266067E+02  0.19999977305E+02 0.  0.
        -12    1    1    2    0    0  0.24931066552E+02  0.34858211988E+02  0.68535161413E+01  0.43400733933E+02  0.00000000000E+00 0.  1.
         11    1    3    3    0    0 -0.69245424551E+01 -0.97380378575E+01 -0.69648696826E+01  0.13830693384E+02  0.51100000000E-03 0. -1.
        -11    1    3    3    0    0 -0.72307775457E+01 -0.91759007107E+01  0.68787189467E+01  0.13557214772E+02  0.51100000000E-03 0.  1.
        -12    1    3    3    0    0 -0.10775746551E+02 -0.15944273420E+02 -0.67673654055E+01  0.20399357911E+02  0.00000000000E+00 0.  1.
</event>
<event>
 7    1  0.2834226E-010  0.4778727E+02  0.7816164E-02  0.1312668E+00
        -11   -1    0    0    0    0  0.00000000000E+00  0.00000000000E+00  0.45593999997E+02  0.45594000000E+02  0.51100000000E-03 0.  1.
         11   -1    0    0    0    0 -0.00000000000E+00 -0.00000000000E+00 -0.45593999997E+02  0.45594000000E+02  0.51100000000E-03 0. -1.
    9900012    2    1    2    0    0  0.26435817338E+02 -0.28886280019E+02 -0.18717746476E+02  0.47787266771E+02  0.19999980515E+02 0.  0.
        -12    1    1    2    0    0 -0.26435817338E+02  0.28886280019E+02  0.18717746476E+02  0.43400733229E+02  0.00000000000E+00 0.  1.
         11    1    3    3    0    0  0.75319958430E+01 -0.29830905700E+01 -0.72165964763E+01  0.10849380429E+02  0.51100000000E-03 0. -1.
        -11    1    3    3    0    0  0.92487552454E+01 -0.20788957512E+02 -0.12509544023E+02  0.25965533308E+02  0.51100000000E-03 0.  1.
        -12    1    3    3    0    0  0.96550662501E+01 -0.51142319365E+01  0.10083940235E+01  0.10972353034E+02  0.00000000000E+00 0.  1.
</event>
<event>
 7    1  0.2834226E-010  0.4778727E+02  0.7816164E-02  0.1312668E+00
        -11   -1    0    0    0    0  0.00000000000E+00  0.00000000000E+00  0.45593999997E+02  0.45594000000E+02  0.51100000000E-03 0.  1.
         11   -1    0    0    0    0 -0.00000000000E+00 -0.00000000000E+00 -0.45593999997E+02  0.45594000000E+02  0.51100000000E-03 0. -1.
    9900012    2    1    2    0    0 -0.18613056990E+02 -0.32010644661E+02 -0.22638374989E+02  0.47787270925E+02  0.19999999455E+02 0.  0.
        -12    1    1    2    0    0  0.18613056990E+02  0.32010644661E+02  0.22638374989E+02  0.43400729075E+02  0.00000000000E+00 0.  1.
         11    1    3    3    0    0 -0.61596550459E+01 -0.13704255001E+02 -0.32803939864E+01  0.15378847174E+02  0.51100000000E-03 0. -1.
        -11    1    3    3    0    0 -0.12777047889E+02 -0.85740144369E+01 -0.15763336312E+02  0.22028378249E+02  0.51100000000E-03 0.  1.
        -12    1    3    3    0    0  0.32364594522E+00 -0.97323752229E+01 -0.35946446902E+01  0.10380045502E+02  0.00000000000E+00 0.  1.
</event>
<event>
 7    1  0.2834226E-010  0.4778727E+02  0.7816164E-02  0.1312668E+00
        -11   -1    0    0    0    0  0.00000000000E+00  0.00000000000E+00  0.45593999997E+02  0.45594000000E+02  0.51100000000E-03 0. -1.
         11   -1    0    0    0    0 -0.00000000000E+00 -0.00000000000E+00 -0.45593999997E+02  0.45594000000E+02  0.51100000000E-03 0.  1.
    9900012    2    1    2    0    0  0.13406819209E+02  0.40715592863E+02  0.67912515068E+01  0.47787269585E+02  0.19999993346E+02 0.  0.
        -12    1    1    2    0    0 -0.13406819209E+02 -0.40715592863E+02 -0.67912515068E+01  0.43400730415E+02  0.00000000000E+00 0.  1.
         11    1    3    3    0    0 -0.50058915551E+00  0.13421863763E+02  0.87375838297E+01  0.16023182824E+02  0.51100000000E-03 0. -1.
        -11    1    3    3    0    0 -0.10386436431E+01  0.16940336201E+01  0.40382619312E+00  0.20277096386E+01  0.51100000000E-03 0.  1.
         12    1    3    3    0    0  0.14946052008E+02  0.25599695480E+02 -0.23501585160E+01  0.29736377122E+02  0.00000000000E+00 0. -1.
</event>
<event>
 7    1  0.2834226E-010  0.4778727E+02  0.7816164E-02  0.1312668E+00
        -11   -1    0    0    0    0  0.00000000000E+00  0.00000000000E+00  0.45593999997E+02  0.45594000000E+02  0.51100000000E-03 0. -1.
         11   -1    0    0    0    0 -0.00000000000E+00 -0.00000000000E+00 -0.45593999997E+02  0.45594000000E+02  0.51100000000E-03 0.  1.
    9900012    2    1    2    0    0  0.33395914840E+01  0.10432643034E+02  0.41995602275E+02  0.47787268182E+02  0.19999986947E+02 0.  0.
        -12    1    1    2    0    0 -0.33395914840E+01 -0.10432643034E+02 -0.41995602275E+02  0.43400731818E+02  0.00000000000E+00 0.  1.
         11    1    3    3    0    0  0.65564455496E+01  0.55770167802E+01  0.31719085292E+02  0.32866251177E+02  0.51100000000E-03 0. -1.
        -11    1    3    3    0    0 -0.39756687543E+01  0.13936312398E+01  0.10556214678E+02  0.11365817993E+02  0.51100000000E-03 0.  1.
         12    1    3    3    0    0  0.75881468867E+00  0.34619950136E+01 -0.27969769509E+00  0.35551990108E+01  0.00000000000E+00 0. -1.
</event>
<event>
 7    1  0.2834226E-010  0.4778727E+02  0.7816164E-02  0.1312668E+00
        -11   -1    0    0    0    0  0.00000000000E+00  0.00000000000E+00  0.45593999997E+02  0.45594000000E+02  0.51100000000E-03 0.  1.
         11   -1    0    0    0    0 -0.00000000000E+00 -0.00000000000E+00 -0.45593999997E+02  0.45594000000E+02  0.51100000000E-03 0. -1.
    9900012    2    1    2    0    0  0.33221673115E+02  0.18075774346E+02 -0.21288730146E+02  0.47787271735E+02  0.20000003147E+02 0.  0.
        -12    1    1    2    0    0 -0.33221673115E+02 -0.18075774346E+02  0.21288730146E+02  0.43400728265E+02  0.00000000000E+00 0.  1.
         11    1    3    3    0    0  0.66474575287E+01 -0.15996580993E+01  0.94385713533E+00  0.69020623138E+01  0.51100000000E-03 0. -1.
        -11    1    3    3    0    0  0.17820400410E+01  0.31399461450E+01 -0.58607985744E+01  0.68835956224E+01  0.51100000000E-03 0.  1.
         12    1    3    3    0    0  0.24792175545E+02  0.16535486300E+02 -0.16371788707E+02  0.34001613798E+02  0.00000000000E+00 0. -1.
</event>
<event>
 7    1  0.2834226E-010  0.4778727E+02  0.7816164E-02  0.1312668E+00
        -11   -1    0    0    0    0  0.00000000000E+00  0.00000000000E+00  0.45593999997E+02  0.45594000000E+02  0.51100000000E-03 0.  1.
         11   -1    0    0    0    0 -0.00000000000E+00 -0.00000000000E+00 -0.45593999997E+02  0.45594000000E+02  0.51100000000E-03 0. -1.
    9900012    2    1    2    0    0 -0.17379604050E+02  0.37887812083E+02 -0.12086617595E+02  0.47787271132E+02  0.20000000400E+02 0.  0.
        -12    1    1    2    0    0  0.17379604050E+02 -0.37887812083E+02  0.12086617595E+02  0.43400728868E+02  0.00000000000E+00 0.  1.
         11    1    3    3    0    0 -0.47560176868E+01  0.20396132422E+02  0.24211010731E+00  0.20944701945E+02  0.51100000000E-03 0. -1.
        -11    1    3    3    0    0 -0.63268821638E+01  0.15483419089E+01 -0.49460096728E+01  0.81786192311E+01  0.51100000000E-03 0.  1.
        -12    1    3    3    0    0 -0.62967041995E+01  0.15943337752E+02 -0.73827180295E+01  0.18663949956E+02  0.00000000000E+00 0.  1.
</event>
<event>
 7    1  0.2834226E-010  0.4778727E+02  0.7816164E-02  0.1312668E+00
        -11   -1    0    0    0    0  0.00000000000E+00  0.00000000000E+00  0.45593999997E+02  0.45594000000E+02  0.51100000000E-03 0.  1.
         11   -1    0    0    0    0 -0.00000000000E+00 -0.00000000000E+00 -0.45593999997E+02  0.45594000000E+02  0.51100000000E-03 0. -1.
    9900012    2    1    2    0    0 -0.32462225698E+02  0.20245460051E+02 -0.20492643439E+02  0.47787272067E+02  0.20000004663E+02 0.  0.
        -12    1    1    2    0    0  0.32462225698E+02 -0.20245460051E+02  0.20492643439E+02  0.43400727933E+02  0.00000000000E+00 0.  1.
         11    1    3    3    0    0 -0.20899498634E+02  0.16510461370E+02 -0.97543219896E+01  0.28364258770E+02  0.51100000000E-03 0.  1.
        -11    1    3    3    0    0 -0.11197920359E+02 -0.11276166291E+01 -0.67510177274E+01  0.13124068738E+02  0.51100000000E-03 0. -1.
         12    1    3    3    0    0 -0.36480670533E+00  0.48626153102E+01 -0.39873037222E+01  0.62989445593E+01  0.00000000000E+00 0. -1.
</event>
<event>
 7    1  0.2834226E-010  0.4778727E+02  0.7816164E-02  0.1312668E+00
        -11   -1    0    0    0    0  0.00000000000E+00  0.00000000000E+00  0.45593999997E+02  0.45594000000E+02  0.51100000000E-03 0. -1.
         11   -1    0    0    0    0 -0.00000000000E+00 -0.00000000000E+00 -0.45593999997E+02  0.45594000000E+02  0.51100000000E-03 0.  1.
    9900012    2    1    2    0    0 -0.38421162729E+02  0.19502307042E+02  0.52055781127E+01  0.47787265342E+02  0.19999973998E+02 0.  0.
        -12    1    1    2    0    0  0.38421162729E+02 -0.19502307042E+02 -0.52055781127E+01  0.43400734658E+02  0.00000000000E+00 0.  1.
         11    1    3    3    0    0 -0.20431652700E+02  0.54253311239E+01  0.99745964122E+01  0.23374756121E+02  0.51100000000E-03 0. -1.
        -11    1    3    3    0    0 -0.51909221595E+01  0.78264111216E+01 -0.38167278089E+01  0.10137346563E+02  0.51100000000E-03 0.  1.
         12    1    3    3    0    0 -0.12798587869E+02  0.62505647967E+01 -0.95229049050E+00  0.14275162657E+02  0.00000000000E+00 0. -1.
</event>
<event>
 7    1  0.2834226E-010  0.4778727E+02  0.7816164E-02  0.1312668E+00
        -11   -1    0    0    0    0  0.00000000000E+00  0.00000000000E+00  0.45593999997E+02  0.45594000000E+02  0.51100000000E-03 0.  1.
         11   -1    0    0    0    0 -0.00000000000E+00 -0.00000000000E+00 -0.45593999997E+02  0.45594000000E+02  0.51100000000E-03 0. -1.
    9900012    2    1    2    0    0 -0.38738012731E+02 -0.19458532439E+02  0.20868462262E+01  0.47787273713E+02  0.20000012169E+02 0.  0.
        -12    1    1    2    0    0  0.38738012731E+02  0.19458532439E+02 -0.20868462262E+01  0.43400726287E+02  0.00000000000E+00 0.  1.
         11    1    3    3    0    0 -0.37759903803E+02 -0.13886273160E+02  0.21638332307E+01  0.40290459069E+02  0.51100000000E-03 0. -1.
        -11    1    3    3    0    0  0.13278002512E+01  0.95582165882E-01 -0.33387904855E+00  0.13724667347E+01  0.51100000000E-03 0.  1.
         12    1    3    3    0    0 -0.23059091791E+01 -0.56678414458E+01  0.25689204408E+00  0.61243479097E+01  0.00000000000E+00 0. -1.
</event>
<event>
 7    1  0.2834226E-010  0.4778728E+02  0.7816164E-02  0.1312668E+00
        -11   -1    0    0    0    0  0.00000000000E+00  0.00000000000E+00  0.45593999997E+02  0.45594000000E+02  0.51100000000E-03 0.  1.
         11   -1    0    0    0    0 -0.00000000000E+00 -0.00000000000E+00 -0.45593999997E+02  0.45594000000E+02  0.51100000000E-03 0. -1.
    9900012    2    1    2    0    0  0.29187934512E+02 -0.29491963008E+02  0.12724445845E+02  0.47787275062E+02  0.20000018315E+02 0.  0.
        -12    1    1    2    0    0 -0.29187934512E+02  0.29491963008E+02 -0.12724445845E+02  0.43400724938E+02  0.00000000000E+00 0.  1.
         11    1    3    3    0    0  0.10732149139E+02 -0.42990729829E+01  0.15929710137E+01  0.11670416041E+02  0.51100000000E-03 0. -1.
        -11    1    3    3    0    0  0.84298985862E+01 -0.20485184750E+02  0.11650066784E+02  0.25028584474E+02  0.51100000000E-03 0.  1.
        -12    1    3    3    0    0  0.10025886787E+02 -0.47077052748E+01 -0.51859195299E+00  0.11088274547E+02  0.00000000000E+00 0.  1.
</event>
<event>
 7    1  0.2834226E-010  0.4778727E+02  0.7816164E-02  0.1312668E+00
        -11   -1    0    0    0    0  0.00000000000E+00  0.00000000000E+00  0.45593999997E+02  0.45594000000E+02  0.51100000000E-03 0.  1.
         11   -1    0    0    0    0 -0.00000000000E+00 -0.00000000000E+00 -0.45593999997E+02  0.45594000000E+02  0.51100000000E-03 0. -1.
    9900012    2    1    2    0    0  0.29225777506E+02 -0.29229677770E+02 -0.13232649041E+02  0.47787272655E+02  0.20000007344E+02 0.  0.
        -12    1    1    2    0    0 -0.29225777506E+02  0.29229677770E+02  0.13232649041E+02  0.43400727345E+02  0.00000000000E+00 0.  1.
         11    1    3    3    0    0  0.14919761637E+01 -0.11102290848E+02 -0.36663218857E+01  0.11786804969E+02  0.51100000000E-03 0. -1.
        -11    1    3    3    0    0 -0.21517007756E+00  0.88007720124E+00 -0.27560310779E+00  0.94699069508E+00  0.51100000000E-03 0.  1.
         12    1    3    3    0    0  0.27948971420E+02 -0.19007464124E+02 -0.92907240479E+01  0.35053476992E+02  0.00000000000E+00 0. -1.
</event>
<event>
 7    1  0.2834226E-010  0.4778727E+02  0.7816164E-02  0.1312668E+00
        -11   -1    0    0    0    0  0.00000000000E+00  0.00000000000E+00  0.45593999997E+02  0.45594000000E+02  0.51100000000E-03 0. -1.
         11   -1    0    0    0    0 -0.00000000000E+00 -0.00000000000E+00 -0.45593999997E+02  0.45594000000E+02  0.51100000000E-03 0.  1.
    9900012    2    1    2    0    0 -0.35288971846E+02  0.22574487090E+02  0.11344783040E+02  0.47787273007E+02  0.20000008948E+02 0.  0.
        -12    1    1    2    0    0  0.35288971846E+02 -0.22574487090E+02 -0.11344783040E+02  0.43400726993E+02  0.00000000000E+00 0.  1.
         11    1    3    3    0    0 -0.35336523278E+02  0.21077831557E+02  0.10541359371E+02  0.42474287730E+02  0.51100000000E-03 0. -1.
        -11    1    3    3    0    0 -0.26303420125E+00  0.22328484414E+01 -0.16135431041E+01  0.27673671175E+01  0.51100000000E-03 0.  1.
         12    1    3    3    0    0  0.31058563325E+00 -0.73619290800E+00  0.24169667730E+01  0.25456181598E+01  0.00000000000E+00 0. -1.
</event>
<event>
 7    1  0.2834226E-010  0.4778727E+02  0.7816164E-02  0.1312668E+00
        -11   -1    0    0    0    0  0.00000000000E+00  0.00000000000E+00  0.45593999997E+02  0.45594000000E+02  0.51100000000E-03 0.  1.
         11   -1    0    0    0    0 -0.00000000000E+00 -0.00000000000E+00 -0.45593999997E+02  0.45594000000E+02  0.51100000000E-03 0. -1.
    9900012    2    1    2    0    0  0.12029296740E+02 -0.40039550808E+02  0.11651337885E+02  0.47787270934E+02  0.19999999497E+02 0.  0.
        -12    1    1    2    0    0 -0.12029296740E+02  0.40039550808E+02 -0.11651337885E+02  0.43400729066E+02  0.00000000000E+00 0.  1.
         11    1    3    3    0    0 -0.23402100847E+01 -0.14639963948E+02 -0.18372154340E+01  0.14939226501E+02  0.51100000000E-03 0. -1.
        -11    1    3    3    0    0 -0.45133707200E+00 -0.14955320067E+01 -0.18778388386E+00  0.15733989271E+01  0.51100000000E-03 0.  1.
         12    1    3    3    0    0  0.14820843897E+02 -0.23904054853E+02  0.13676337203E+02  0.31274645506E+02  0.00000000000E+00 0. -1.
</event>
<event>
 7    1  0.2834226E-010  0.4778727E+02  0.7816164E-02  0.1312668E+00
        -11   -1    0    0    0    0  0.00000000000E+00  0.00000000000E+00  0.45593999997E+02  0.45594000000E+02  0.51100000000E-03 0. -1.
         11   -1    0    0    0    0 -0.00000000000E+00 -0.00000000000E+00 -0.45593999997E+02  0.45594000000E+02  0.51100000000E-03 0.  1.
    9900012    2    1    2    0    0  0.70409376491E+01 -0.12069407295E+02  0.41089877848E+02  0.47787268935E+02  0.19999990381E+02 0.  0.
        -12    1    1    2    0    0 -0.70409376491E+01  0.12069407295E+02 -0.41089877848E+02  0.43400731065E+02  0.00000000000E+00 0.  1.
         11    1    3    3    0    0  0.39442167312E+00 -0.44138513431E+01  0.14257691188E+02  0.14930485940E+02  0.51100000000E-03 0. -1.
        -11    1    3    3    0    0  0.48165438681E+01  0.45247136694E+01  0.83979267441E+01  0.10686313793E+02  0.51100000000E-03 0.  1.
        -12    1    3    3    0    0  0.18299721079E+01 -0.12180269621E+02  0.18434259916E+02  0.22170469202E+02  0.00000000000E+00 0.  1.
</event>
<event>
 7    1  0.2834226E-010  0.4778727E+02  0.7816164E-02  0.1312668E+00
        -11   -1    0    0    0    0  0.00000000000E+00  0.00000000000E+00  0.45593999997E+02  0.45594000000E+02  0.51100000000E-03 0.  1.
         11   -1    0    0    0    0 -0.00000000000E+00 -0.00000000000E+00 -0.45593999997E+02  0.45594000000E+02  0.51100000000E-03 0. -1.
    9900012    2    1    2    0    0 -0.19583677258E+02  0.15344228171E+02 -0.35562020815E+02  0.47787273306E+02  0.20000010312E+02 0.  0.
        -12    1    1    2    0    0  0.19583677258E+02 -0.15344228171E+02  0.35562020815E+02  0.43400726694E+02  0.00000000000E+00 0.  1.
         11    1    3    3    0    0 -0.15631388034E+02  0.10963074550E+02 -0.21782425915E+02  0.28965554965E+02  0.51100000000E-03 0. -1.
        -11    1    3    3    0    0 -0.23112510303E+00 -0.34088974221E+01 -0.71916468477E+01  0.79620214199E+01  0.51100000000E-03 0.  1.
        -12    1    3    3    0    0 -0.37211641217E+01  0.77900510433E+01 -0.65879480521E+01  0.10859696921E+02  0.00000000000E+00 0.  1.
</event>
<event>
 7    1  0.2834226E-010  0.4778727E+02  0.7816164E-02  0.1312668E+00
        -11   -1    0    0    0    0  0.00000000000E+00  0.00000000000E+00  0.45593999997E+02  0.45594000000E+02  0.51100000000E-03 0.  1.
         11   -1    0    0    0    0 -0.00000000000E+00 -0.00000000000E+00 -0.45593999997E+02  0.45594000000E+02  0.51100000000E-03 0. -1.
    9900012    2    1    2    0    0 -0.20671730809E+02  0.20066108537E+02 -0.32460037234E+02  0.47787272084E+02  0.20000004739E+02 0.  0.
        -12    1    1    2    0    0  0.20671730809E+02 -0.20066108537E+02  0.32460037234E+02  0.43400727916E+02  0.00000000000E+00 0.  1.
         11    1    3    3    0    0 -0.16163528403E+02  0.14608808681E+02 -0.32868549228E+02  0.39433722499E+02  0.51100000000E-03 0. -1.
        -11    1    3    3    0    0 -0.25211029971E+01  0.27068438760E+00  0.10855584359E+01  0.27582000904E+01  0.51100000000E-03 0.  1.
         12    1    3    3    0    0 -0.19870994089E+01  0.51866154686E+01 -0.67704644132E+00  0.55953494944E+01  0.00000000000E+00 0. -1.
</event>
<event>
 7    1  0.2834226E-010  0.4778727E+02  0.7816164E-02  0.1312668E+00
        -11   -1    0    0    0    0  0.00000000000E+00  0.00000000000E+00  0.45593999997E+02  0.45594000000E+02  0.51100000000E-03 0.  1.
         11   -1    0    0    0    0 -0.00000000000E+00 -0.00000000000E+00 -0.45593999997E+02  0.45594000000E+02  0.51100000000E-03 0. -1.
    9900012    2    1    2    0    0 -0.15318929121E+02  0.40197992617E+02  0.57510803816E+01  0.47787272755E+02  0.20000007800E+02 0.  0.
        -12    1    1    2    0    0  0.15318929121E+02 -0.40197992617E+02 -0.57510803816E+01  0.43400727245E+02  0.00000000000E+00 0.  1.
         11    1    3    3    0    0 -0.34723303740E+01  0.19586889471E+02 -0.56717328532E+01  0.20685063964E+02  0.51100000000E-03 0.  1.
        -11    1    3    3    0    0 -0.68114154067E+01  0.17151146911E+02  0.89718573126E+01  0.20519538107E+02  0.51100000000E-03 0. -1.
        -12    1    3    3    0    0 -0.50351833402E+01  0.34599562350E+01  0.24509559222E+01  0.65826706852E+01  0.00000000000E+00 0.  1.
</event>
<event>
 7    1  0.2834226E-010  0.4778728E+02  0.7816164E-02  0.1312668E+00
        -11   -1    0    0    0    0  0.00000000000E+00  0.00000000000E+00  0.45593999997E+02  0.45594000000E+02  0.51100000000E-03 0.  1.
         11   -1    0    0    0    0 -0.00000000000E+00 -0.00000000000E+00 -0.45593999997E+02  0.45594000000E+02  0.51100000000E-03 0. -1.
    9900012    2    1    2    0    0  0.28652031555E+02 -0.13650805655E+02 -0.29603024905E+02  0.47787280066E+02  0.20000041133E+02 0.  0.
        -12    1    1    2    0    0 -0.28652031555E+02  0.13650805655E+02  0.29603024905E+02  0.43400719934E+02  0.00000000000E+00 0.  1.
         11    1    3    3    0    0  0.66349203523E+01  0.54566738244E+00 -0.71884579813E+01  0.97976450938E+01  0.51100000000E-03 0. -1.
        -11    1    3    3    0    0  0.21405662422E+02 -0.11147805570E+02 -0.24384627014E+02  0.34308686766E+02  0.51100000000E-03 0.  1.
        -12    1    3    3    0    0  0.61144878012E+00 -0.30486674672E+01  0.19700600899E+01  0.36809482059E+01  0.00000000000E+00 0.  1.
</event>
<event>
 7    1  0.2834226E-010  0.4778727E+02  0.7816164E-02  0.1312668E+00
        -11   -1    0    0    0    0  0.00000000000E+00  0.00000000000E+00  0.45593999997E+02  0.45594000000E+02  0.51100000000E-03 0.  1.
         11   -1    0    0    0    0 -0.00000000000E+00 -0.00000000000E+00 -0.45593999997E+02  0.45594000000E+02  0.51100000000E-03 0. -1.
    9900012    2    1    2    0    0 -0.21989394962E+02  0.18108726654E+02 -0.32743911587E+02  0.47787271690E+02  0.20000002942E+02 0.  0.
        -12    1    1    2    0    0  0.21989394962E+02 -0.18108726654E+02  0.32743911587E+02  0.43400728310E+02  0.00000000000E+00 0.  1.
         11    1    3    3    0    0 -0.18305494967E+01 -0.21804235558E+01  0.74793271111E+00  0.29435627977E+01  0.51100000000E-03 0. -1.
        -11    1    3    3    0    0 -0.40615865949E+01  0.91086793417E+00 -0.23220871639E+01  0.47663670776E+01  0.51100000000E-03 0.  1.
         12    1    3    3    0    0 -0.16097258871E+02  0.19378282276E+02 -0.31169757134E+02  0.40077341814E+02  0.00000000000E+00 0. -1.
</event>
<event>
 7    1  0.2834226E-010  0.4778727E+02  0.7816164E-02  0.1312668E+00
        -11   -1    0    0    0    0  0.00000000000E+00  0.00000000000E+00  0.45593999997E+02  0.45594000000E+02  0.51100000000E-03 0.  1.
         11   -1    0    0    0    0 -0.00000000000E+00 -0.00000000000E+00 -0.45593999997E+02  0.45594000000E+02  0.51100000000E-03 0. -1.
    9900012    2    1    2    0    0  0.24819070662E+02 -0.17791567047E+02 -0.30839861728E+02  0.47787271919E+02  0.20000003989E+02 0.  0.
        -12    1    1    2    0    0 -0.24819070662E+02  0.17791567047E+02  0.30839861728E+02  0.43400728081E+02  0.00000000000E+00 0.  1.
         11    1    3    3    0    0 -0.87257729596E+00 -0.27728902307E+01 -0.95370496207E+01  0.99702370633E+01  0.51100000000E-03 0. -1.
        -11    1    3    3    0    0  0.22867135054E+02 -0.14062018082E+02 -0.22053416063E+02  0.34741896586E+02  0.51100000000E-03 0.  1.
        -12    1    3    3    0    0  0.28245129046E+01 -0.95665873401E+00  0.75060395522E+00  0.30751382700E+01  0.00000000000E+00 0.  1.
</event>
<event>
 7    1  0.2834226E-010  0.4778727E+02  0.7816164E-02  0.1312668E+00
        -11   -1    0    0    0    0  0.00000000000E+00  0.00000000000E+00  0.45593999997E+02  0.45594000000E+02  0.51100000000E-03 0. -1.
         11   -1    0    0    0    0 -0.00000000000E+00 -0.00000000000E+00 -0.45593999997E+02  0.45594000000E+02  0.51100000000E-03 0.  1.
    9900012    2    1    2    0    0 -0.10205582276E+02 -0.41188741859E+02  0.91080613459E+01  0.47787272506E+02  0.20000006662E+02 0.  0.
        -12    1    1    2    0    0  0.10205582276E+02  0.41188741859E+02 -0.91080613459E+01  0.43400727494E+02  0.00000000000E+00 0.  1.
         11    1    3    3    0    0  0.42254404640E+01 -0.10513518899E+02  0.45375224888E+01  0.12205635475E+02  0.51100000000E-03 0. -1.
        -11    1    3    3    0    0 -0.11655644582E+02 -0.21347519674E+02 -0.10471731839E+01  0.24344757521E+02  0.51100000000E-03 0.  1.
        -12    1    3    3    0    0 -0.27753781584E+01 -0.93277032868E+01  0.56177120410E+01  0.11236879509E+02  0.00000000000E+00 0.  1.
</event>
<event>
 7    1  0.2834226E-010  0.4778727E+02  0.7816164E-02  0.1312668E+00
        -11   -1    0    0    0    0  0.00000000000E+00  0.00000000000E+00  0.45593999997E+02  0.45594000000E+02  0.51100000000E-03 0.  1.
         11   -1    0    0    0    0 -0.00000000000E+00 -0.00000000000E+00 -0.45593999997E+02  0.45594000000E+02  0.51100000000E-03 0. -1.
    9900012    2    1    2    0    0 -0.20599186631E+02 -0.64343886029E+01 -0.37654951696E+02  0.47787271506E+02  0.20000002106E+02 0.  0.
        -12    1    1    2    0    0  0.20599186631E+02  0.64343886029E+01  0.37654951696E+02  0.43400728494E+02  0.00000000000E+00 0.  1.
         11    1    3    3    0    0 -0.58233486088E+01 -0.97968934408E+01 -0.11594778328E+02  0.16258210075E+02  0.51100000000E-03 0. -1.
        -11    1    3    3    0    0 -0.10657942071E+02  0.54187975655E+01 -0.23228384424E+02  0.26124948602E+02  0.51100000000E-03 0.  1.
        -12    1    3    3    0    0 -0.41178959516E+01 -0.20562927277E+01 -0.28317889437E+01  0.54041128293E+01  0.00000000000E+00 0.  1.
</event>
<event>
 7    1  0.2834226E-010  0.4778727E+02  0.7816164E-02  0.1312668E+00
        -11   -1    0    0    0    0  0.00000000000E+00  0.00000000000E+00  0.45593999997E+02  0.45594000000E+02  0.51100000000E-03 0. -1.
         11   -1    0    0    0    0 -0.00000000000E+00 -0.00000000000E+00 -0.45593999997E+02  0.45594000000E+02  0.51100000000E-03 0.  1.
    9900012    2    1    2    0    0 -0.81016285724E+01  0.23217087795E+02  0.35762463181E+02  0.47787270467E+02  0.19999997368E+02 0.  0.
        -12    1    1    2    0    0  0.81016285724E+01 -0.23217087795E+02 -0.35762463181E+02  0.43400729533E+02  0.00000000000E+00 0.  1.
         11    1    3    3    0    0 -0.41737207358E+01  0.29024908367E+01  0.72876908856E+01  0.88856534111E+01  0.51100000000E-03 0. -1.
        -11    1    3    3    0    0 -0.75051728110E+01  0.10095283360E+02  0.24174478429E+02  0.27251564591E+02  0.51100000000E-03 0.  1.
        -12    1    3    3    0    0  0.35772649744E+01  0.10219313598E+02  0.43002938658E+01  0.11650052465E+02  0.00000000000E+00 0.  1.
</event>
<event>
 7    1  0.2834226E-010  0.4778726E+02  0.7816164E-02  0.1312668E+00
        -11   -1    0    0    0    0  0.00000000000E+00  0.00000000000E+00  0.45593999997E+02  0.45594000000E+02  0.51100000000E-03 0.  1.
         11   -1    0    0    0    0 -0.00000000000E+00 -0.00000000000E+00 -0.45593999997E+02  0.45594000000E+02  0.51100000000E-03 0. -1.
    9900012    2    1    2    0    0  0.11886917574E+02  0.41658306181E+02  0.26288593147E+01  0.47787260552E+02  0.19999952161E+02 0.  0.
        -12    1    1    2    0    0 -0.11886917574E+02 -0.41658306181E+02 -0.26288593147E+01  0.43400739448E+02  0.00000000000E+00 0.  1.
         11    1    3    3    0    0  0.80382850039E+01  0.49194270904E+01  0.29883034507E+01  0.98865942809E+01  0.51100000000E-03 0. -1.
        -11    1    3    3    0    0  0.41427252557E+00  0.40421716452E+00 -0.12668152095E+01  0.13927793356E+01  0.51100000000E-03 0.  1.
         12    1    3    3    0    0  0.34343600450E+01  0.36334661927E+02  0.90737107351E+00  0.36507886936E+02  0.00000000000E+00 0. -1.
</event>
<event>
 7    1  0.2834226E-010  0.4778727E+02  0.7816164E-02  0.1312668E+00
        -11   -1    0    0    0    0  0.00000000000E+00  0.00000000000E+00  0.45593999997E+02  0.45594000000E+02  0.51100000000E-03 0.  1.
         11   -1    0    0    0    0 -0.00000000000E+00 -0.00000000000E+00 -0.45593999997E+02  0.45594000000E+02  0.51100000000E-03 0. -1.
    9900012    2    1    2    0    0 -0.20255993458E+02  0.10184820322E+02 -0.37007935974E+02  0.47787272345E+02  0.20000005930E+02 0.  0.
        -12    1    1    2    0    0  0.20255993458E+02 -0.10184820322E+02  0.37007935974E+02  0.43400727655E+02  0.00000000000E+00 0.  1.
         11    1    3    3    0    0 -0.76629383760E+01  0.31984175237E+01 -0.13566740347E+02  0.15906191974E+02  0.51100000000E-03 0. -1.
        -11    1    3    3    0    0 -0.13178672767E+02  0.10448459074E+02 -0.14254653754E+02  0.22046379902E+02  0.51100000000E-03 0.  1.
        -12    1    3    3    0    0  0.58561768513E+00 -0.34620562747E+01 -0.91865418728E+01  0.98347004684E+01  0.00000000000E+00 0.  1.
</event>
<event>
 7    1  0.2834226E-010  0.4778728E+02  0.7816164E-02  0.1312668E+00
        -11   -1    0    0    0    0  0.00000000000E+00  0.00000000000E+00  0.45593999997E+02  0.45594000000E+02  0.51100000000E-03 0.  1.
         11   -1    0    0    0    0 -0.00000000000E+00 -0.00000000000E+00 -0.45593999997E+02  0.45594000000E+02  0.51100000000E-03 0. -1.
    9900012    2    1    2    0    0 -0.31930498518E+02 -0.14384996211E+02 -0.25634697531E+02  0.47787279164E+02  0.20000037019E+02 0.  0.
        -12    1    1    2    0    0  0.31930498518E+02  0.14384996211E+02  0.25634697531E+02  0.43400720836E+02  0.00000000000E+00 0.  1.
         11    1    3    3    0    0 -0.24072592170E+02 -0.51567259095E+01 -0.21596522801E+02  0.32748913161E+02  0.51100000000E-03 0. -1.
        -11    1    3    3    0    0 -0.19365705546E+01 -0.30036565896E+01  0.23979439440E+01  0.43037650773E+01  0.51100000000E-03 0.  1.
        -12    1    3    3    0    0 -0.59213357938E+01 -0.62246137116E+01 -0.64361186739E+01  0.10734600925E+02  0.00000000000E+00 0.  1.
</event>
<event>
 7    1  0.2834226E-010  0.4778727E+02  0.7816164E-02  0.1312668E+00
        -11   -1    0    0    0    0  0.00000000000E+00  0.00000000000E+00  0.45593999997E+02  0.45594000000E+02  0.51100000000E-03 0.  1.
         11   -1    0    0    0    0 -0.00000000000E+00 -0.00000000000E+00 -0.45593999997E+02  0.45594000000E+02  0.51100000000E-03 0. -1.
    9900012    2    1    2    0    0  0.40843533854E+02  0.14292838312E+02 -0.33382436249E+01  0.47787270108E+02  0.19999995730E+02 0.  0.
        -12    1    1    2    0    0 -0.40843533854E+02 -0.14292838312E+02  0.33382436249E+01  0.43400729892E+02  0.00000000000E+00 0.  1.
         11    1    3    3    0    0  0.21138275473E+02  0.65088437189E+01 -0.59771937911E+01  0.22911101728E+02  0.51100000000E-03 0. -1.
        -11    1    3    3    0    0  0.72936115360E+01 -0.79342809334E+00  0.59308996544E+01  0.94340801539E+01  0.51100000000E-03 0.  1.
        -12    1    3    3    0    0  0.12411646844E+02  0.85774226867E+01 -0.32919494882E+01  0.15442088226E+02  0.00000000000E+00 0.  1.
</event>
<event>
 7    1  0.2834226E-010  0.4778727E+02  0.7816164E-02  0.1312668E+00
        -11   -1    0    0    0    0  0.00000000000E+00  0.00000000000E+00  0.45593999997E+02  0.45594000000E+02  0.51100000000E-03 0.  1.
         11   -1    0    0    0    0 -0.00000000000E+00 -0.00000000000E+00 -0.45593999997E+02  0.45594000000E+02  0.51100000000E-03 0. -1.
    9900012    2    1    2    0    0 -0.14073693933E+02 -0.21394235214E+02 -0.35040560809E+02  0.47787273472E+02  0.20000011069E+02 0.  0.
        -12    1    1    2    0    0  0.14073693933E+02  0.21394235214E+02  0.35040560809E+02  0.43400726528E+02  0.00000000000E+00 0.  1.
         11    1    3    3    0    0 -0.85155894166E+01 -0.84624668126E+01 -0.78991436009E+01  0.14370980396E+02  0.51100000000E-03 0. -1.
        -11    1    3    3    0    0  0.16207633249E+01 -0.77952130251E+01 -0.21533547714E+02  0.22958351362E+02  0.51100000000E-03 0.  1.
        -12    1    3    3    0    0 -0.71788678414E+01 -0.51365553766E+01 -0.56078694946E+01  0.10457941714E+02  0.00000000000E+00 0.  1.
</event>
<event>
 7    1  0.2834226E-010  0.4778727E+02  0.7816164E-02  0.1312668E+00
        -11   -1    0    0    0    0  0.00000000000E+00  0.00000000000E+00  0.45593999997E+02  0.45594000000E+02  0.51100000000E-03 0.  1.
         11   -1    0    0    0    0 -0.00000000000E+00 -0.00000000000E+00 -0.45593999997E+02  0.45594000000E+02  0.51100000000E-03 0. -1.
    9900012    2    1    2    0    0 -0.31385080991E+02 -0.16629349070E+02 -0.24941222029E+02  0.47787272867E+02  0.20000008312E+02 0.  0.
        -12    1    1    2    0    0  0.31385080991E+02  0.16629349070E+02  0.24941222029E+02  0.43400727133E+02  0.00000000000E+00 0.  1.
         11    1    3    3    0    0 -0.15378518026E+02 -0.22520344086E+01 -0.13869686462E+02  0.20831194840E+02  0.51100000000E-03 0. -1.
        -11    1    3    3    0    0 -0.16030326585E+02 -0.16070290760E+02 -0.11089871972E+02  0.25262835869E+02  0.51100000000E-03 0.  1.
         12    1    3    3    0    0  0.23763620106E-01  0.16929760988E+01  0.18336404614E-01  0.16932421577E+01  0.00000000000E+00 0. -1.
</event>
<event>
 7    1  0.2834226E-010  0.4778727E+02  0.7816164E-02  0.1312668E+00
        -11   -1    0    0    0    0  0.00000000000E+00  0.00000000000E+00  0.45593999997E+02  0.45594000000E+02  0.51100000000E-03 0.  1.
         11   -1    0    0    0    0 -0.00000000000E+00 -0.00000000000E+00 -0.45593999997E+02  0.45594000000E+02  0.51100000000E-03 0. -1.
    9900012    2    1    2    0    0 -0.77723696977E+01  0.42670006347E+02  0.15762675409E+01  0.47787265079E+02  0.19999972801E+02 0.  0.
        -12    1    1    2    0    0  0.77723696977E+01 -0.42670006347E+02 -0.15762675409E+01  0.43400734921E+02  0.00000000000E+00 0.  1.
         11    1    3    3    0    0 -0.65744410280E+01  0.26130803284E+02  0.62352650732E+01  0.27657199531E+02  0.51100000000E-03 0. -1.
        -11    1    3    3    0    0  0.35074560412E+01  0.16111332813E+01 -0.16184911434E+01  0.41853927143E+01  0.51100000000E-03 0.  1.
        -12    1    3    3    0    0 -0.47053847109E+01  0.14928069781E+02 -0.30405063890E+01  0.15944672833E+02  0.00000000000E+00 0.  1.
</event>
<event>
 7    1  0.2834226E-010  0.4778729E+02  0.7816164E-02  0.1312668E+00
        -11   -1    0    0    0    0  0.00000000000E+00  0.00000000000E+00  0.45593999997E+02  0.45594000000E+02  0.51100000000E-03 0.  1.
         11   -1    0    0    0    0 -0.00000000000E+00 -0.00000000000E+00 -0.45593999997E+02  0.45594000000E+02  0.51100000000E-03 0. -1.
    9900012    2    1    2    0    0 -0.25394247932E+02 -0.15834209885E+02 -0.31432969932E+02  0.47787289988E+02  0.20000086372E+02 0.  0.
        -12    1    1    2    0    0  0.25394247932E+02  0.15834209885E+02  0.31432969932E+02  0.43400710012E+02  0.00000000000E+00 0.  1.
         11    1    3    3    0    0 -0.12696716644E+02 -0.14222457748E+02 -0.84785791030E+01  0.20865551079E+02  0.51100000000E-03 0.  1.
        -11    1    3    3    0    0 -0.50290692145E+01  0.16865230106E+01 -0.12235326425E+02  0.13335633094E+02  0.51100000000E-03 0. -1.
         12    1    3    3    0    0 -0.76684620740E+01 -0.32982751475E+01 -0.10719064405E+02  0.13586105816E+02  0.00000000000E+00 0. -1.
</event>
<event>
 7    1  0.2834226E-010  0.4778728E+02  0.7816164E-02  0.1312668E+00
        -11   -1    0    0    0    0  0.00000000000E+00  0.00000000000E+00  0.45593999997E+02  0.45594000000E+02  0.51100000000E-03 0.  1.
         11   -1    0    0    0    0 -0.00000000000E+00 -0.00000000000E+00 -0.45593999997E+02  0.45594000000E+02  0.51100000000E-03 0. -1.
    9900012    2    1    2    0    0  0.24597391729E+02  0.29531060051E+02 -0.20162030897E+02  0.47787277915E+02  0.20000031324E+02 0.  0.
        -12    1    1    2    0    0 -0.24597391729E+02 -0.29531060051E+02  0.20162030897E+02  0.43400722085E+02  0.00000000000E+00 0.  1.
         11    1    3    3    0    0  0.62430756962E+01 -0.15087772661E+01 -0.38921999368E+01  0.75101014372E+01  0.51100000000E-03 0. -1.
        -11    1    3    3    0    0 -0.82641951095E-01  0.42403450175E+01 -0.27233987820E+01  0.50402635592E+01  0.51100000000E-03 0.  1.
         12    1    3    3    0    0  0.18436957984E+02  0.26799492300E+02 -0.13546432178E+02  0.35236912918E+02  0.00000000000E+00 0. -1.
</event>
<event>
 7    1  0.2834226E-010  0.4778726E+02  0.7816164E-02  0.1312668E+00
        -11   -1    0    0    0    0  0.00000000000E+00  0.00000000000E+00  0.45593999997E+02  0.45594000000E+02  0.51100000000E-03 0.  1.
         11   -1    0    0    0    0 -0.00000000000E+00 -0.00000000000E+00 -0.45593999997E+02  0.45594000000E+02  0.51100000000E-03 0. -1.
    9900012    2    1    2    0    0 -0.13827900353E+01  0.10050543189E+02 -0.42198326005E+02  0.47787259864E+02  0.19999949026E+02 0.  0.
        -12    1    1    2    0    0  0.13827900353E+01 -0.10050543189E+02  0.42198326005E+02  0.43400740136E+02  0.00000000000E+00 0.  1.
         11    1    3    3    0    0 -0.24411504554E+01  0.20484236021E+01 -0.28531465007E+01  0.42773473105E+01  0.51100000000E-03 0. -1.
        -11    1    3    3    0    0  0.60942746101E+01  0.96353342354E+01 -0.16475896094E+02  0.20035842913E+02  0.51100000000E-03 0.  1.
        -12    1    3    3    0    0 -0.50359141900E+01 -0.16332146484E+01 -0.22869283410E+02  0.23474069641E+02  0.00000000000E+00 0.  1.
</event>
<event>
 7    1  0.2834226E-010  0.4778727E+02  0.7816164E-02  0.1312668E+00
        -11   -1    0    0    0    0  0.00000000000E+00  0.00000000000E+00  0.45593999997E+02  0.45594000000E+02  0.51100000000E-03 0.  1.
         11   -1    0    0    0    0 -0.00000000000E+00 -0.00000000000E+00 -0.45593999997E+02  0.45594000000E+02  0.51100000000E-03 0. -1.
    9900012    2    1    2    0    0 -0.44367534616E+00  0.22833545566E+02 -0.36906037740E+02  0.47787271059E+02  0.20000000067E+02 0.  0.
        -12    1    1    2    0    0  0.44367534616E+00 -0.22833545566E+02  0.36906037740E+02  0.43400728941E+02  0.00000000000E+00 0.  1.
         11    1    3    3    0    0 -0.49259557770E+01  0.91238095969E+01 -0.11678240933E+02  0.15616986054E+02  0.51100000000E-03 0. -1.
        -11    1    3    3    0    0  0.94165447172E+01  0.79470390646E+01 -0.16744034628E+02  0.20789166414E+02  0.51100000000E-03 0.  1.
        -12    1    3    3    0    0 -0.49342642864E+01  0.57626969047E+01 -0.84837621791E+01  0.11381118591E+02  0.00000000000E+00 0.  1.
</event>
<event>
 7    1  0.2834226E-010  0.4778727E+02  0.7816164E-02  0.1312668E+00
        -11   -1    0    0    0    0  0.00000000000E+00  0.00000000000E+00  0.45593999997E+02  0.45594000000E+02  0.51100000000E-03 0. -1.
         11   -1    0    0    0    0 -0.00000000000E+00 -0.00000000000E+00 -0.45593999997E+02  0.45594000000E+02  0.51100000000E-03 0.  1.
    9900012    2    1    2    0    0  0.12359050613E+02  0.35051372303E+02  0.22411566199E+02  0.47787272680E+02  0.20000007459E+02 0.  0.
        -12    1    1    2    0    0 -0.12359050613E+02 -0.35051372303E+02 -0.22411566199E+02  0.43400727320E+02  0.00000000000E+00 0.  1.
         11    1    3    3    0    0 -0.36831865821E+01  0.47676403734E+01  0.65400413289E+01  0.88920413277E+01  0.51100000000E-03 0. -1.
        -11    1    3    3    0    0  0.51710059590E+01  0.51167224945E+01  0.69618233553E+01  0.10069117956E+02  0.51100000000E-03 0.  1.
         12    1    3    3    0    0  0.10871231236E+02  0.25167009435E+02  0.89097015150E+01  0.28826113397E+02  0.00000000000E+00 0. -1.
</event>
<event>
 7    1  0.2834226E-010  0.4778728E+02  0.7816164E-02  0.1312668E+00
        -11   -1    0    0    0    0  0.00000000000E+00  0.00000000000E+00  0.45593999997E+02  0.45594000000E+02  0.51100000000E-03 0. -1.
         11   -1    0    0    0    0 -0.00000000000E+00 -0.00000000000E+00 -0.45593999997E+02  0.45594000000E+02  0.51100000000E-03 0.  1.
    9900012    2    1    2    0    0  0.20840966105E+02  0.37694149586E+02  0.53317902617E+01  0.47787276866E+02  0.20000026542E+02 0.  0.
        -12    1    1    2    0    0 -0.20840966105E+02 -0.37694149586E+02 -0.53317902617E+01  0.43400723134E+02  0.00000000000E+00 0.  1.
         11    1    3    3    0    0  0.70109009490E+00 -0.15523431147E+01  0.31453713640E+01  0.35769620833E+01  0.51100000000E-03 0. -1.
        -11    1    3    3    0    0  0.69149866805E+01  0.14671432638E+02  0.15804275560E+01  0.16296187529E+02  0.51100000000E-03 0.  1.
         12    1    3    3    0    0  0.13224889329E+02  0.24575060062E+02  0.60599134180E+00  0.27914127254E+02  0.00000000000E+00 0. -1.
</event>
<event>
 7    1  0.2834226E-010  0.4778727E+02  0.7816164E-02  0.1312668E+00
        -11   -1    0    0    0    0  0.00000000000E+00  0.00000000000E+00  0.45593999997E+02  0.45594000000E+02  0.51100000000E-03 0.  1.
         11   -1    0    0    0    0 -0.00000000000E+00 -0.00000000000E+00 -0.45593999997E+02  0.45594000000E+02  0.51100000000E-03 0. -1.
    9900012    2    1    2    0    0  0.24243946235E+02  0.16904663099E+02 -0.31781858557E+02  0.47787273084E+02  0.20000009298E+02 0.  0.
        -12    1    1    2    0    0 -0.24243946235E+02 -0.16904663099E+02  0.31781858557E+02  0.43400726916E+02  0.00000000000E+00 0.  1.
         11    1    3    3    0    0  0.22176246339E+02  0.13360689313E+02 -0.16580111759E+02  0.30744007982E+02  0.51100000000E-03 0. -1.
        -11    1    3    3    0    0 -0.18046416085E+01 -0.49397622545E-01 -0.14624023705E+01  0.23233149624E+01  0.51100000000E-03 0.  1.
         12    1    3    3    0    0  0.38723415049E+01  0.35933714083E+01 -0.13739344428E+02  0.14719950140E+02  0.00000000000E+00 0. -1.
</event>
<event>
 7    1  0.2834226E-010  0.4778723E+02  0.7816164E-02  0.1312668E+00
        -11   -1    0    0    0    0  0.00000000000E+00  0.00000000000E+00  0.45593999997E+02  0.45594000000E+02  0.51100000000E-03 0.  1.
         11   -1    0    0    0    0 -0.00000000000E+00 -0.00000000000E+00 -0.45593999997E+02  0.45594000000E+02  0.51100000000E-03 0. -1.
    9900012    2    1    2    0    0 -0.17824187898E+02  0.38967443137E+02 -0.68893941478E+01  0.47787227535E+02  0.19999801620E+02 0.  0.
        -12    1    1    2    0    0  0.17824187898E+02 -0.38967443137E+02  0.68893941478E+01  0.43400772465E+02  0.00000000000E+00 0.  1.
         11    1    3    3    0    0 -0.86348073896E+00  0.32908558758E-01 -0.15618571803E+01  0.17849594036E+01  0.51100000000E-03 0. -1.
        -11    1    3    3    0    0  0.51010341054E+00  0.18487880532E+00  0.26921502700E+01  0.27462809397E+01  0.51100000000E-03 0.  1.
        -12    1    3    3    0    0 -0.17470810570E+02  0.38749655773E+02 -0.80196872375E+01  0.43255987191E+02  0.00000000000E+00 0.  1.
</event>
<event>
 7    1  0.2834226E-010  0.4778727E+02  0.7816164E-02  0.1312668E+00
        -11   -1    0    0    0    0  0.00000000000E+00  0.00000000000E+00  0.45593999997E+02  0.45594000000E+02  0.51100000000E-03 0.  1.
         11   -1    0    0    0    0 -0.00000000000E+00 -0.00000000000E+00 -0.45593999997E+02  0.45594000000E+02  0.51100000000E-03 0. -1.
    9900012    2    1    2    0    0  0.32622917403E+02 -0.26239308660E+02  0.11439721694E+02  0.47787270844E+02  0.19999999085E+02 0.  0.
        -12    1    1    2    0    0 -0.32622917403E+02  0.26239308660E+02 -0.11439721694E+02  0.43400729156E+02  0.00000000000E+00 0.  1.
         11    1    3    3    0    0  0.65458442964E+01 -0.53495627983E+01 -0.55843915049E+00  0.84721752951E+01  0.51100000000E-03 0. -1.
        -11    1    3    3    0    0  0.27430060537E+02 -0.16177737069E+02  0.76247542946E+01  0.32745446646E+02  0.51100000000E-03 0.  1.
        -12    1    3    3    0    0 -0.13529874304E+01 -0.47120087927E+01  0.43734065503E+01  0.65696489026E+01  0.00000000000E+00 0.  1.
</event>
<event>
 7    1  0.2834226E-010  0.4778728E+02  0.7816164E-02  0.1312668E+00
        -11   -1    0    0    0    0  0.00000000000E+00  0.00000000000E+00  0.45593999997E+02  0.45594000000E+02  0.51100000000E-03 0.  1.
         11   -1    0    0    0    0 -0.00000000000E+00 -0.00000000000E+00 -0.45593999997E+02  0.45594000000E+02  0.51100000000E-03 0. -1.
    9900012    2    1    2    0    0  0.28365767726E+02 -0.17087867713E+02 -0.28053713321E+02  0.47787276126E+02  0.20000023170E+02 0.  0.
        -12    1    1    2    0    0 -0.28365767726E+02  0.17087867713E+02  0.28053713321E+02  0.43400723874E+02  0.00000000000E+00 0.  1.
         11    1    3    3    0    0 -0.78346609182E+00 -0.11438067129E+01  0.20683817627E+01  0.24900434315E+01  0.51100000000E-03 0.  1.
        -11    1    3    3    0    0  0.19185249793E+02 -0.69862757396E+01 -0.17544069469E+02  0.26919811145E+02  0.51100000000E-03 0. -1.
         12    1    3    3    0    0  0.99639840253E+01 -0.89577852607E+01 -0.12578025615E+02  0.18377421549E+02  0.00000000000E+00 0. -1.
</event>
<event>
 7    1  0.2834226E-010  0.4778729E+02  0.7816164E-02  0.1312668E+00
        -11   -1    0    0    0    0  0.00000000000E+00  0.00000000000E+00  0.45593999997E+02  0.45594000000E+02  0.51100000000E-03 0.  1.
         11   -1    0    0    0    0 -0.00000000000E+00 -0.00000000000E+00 -0.45593999997E+02  0.45594000000E+02  0.51100000000E-03 0. -1.
    9900012    2    1    2    0    0  0.30330441239E+02  0.46101098923E+01 -0.30699069025E+02  0.47787290121E+02  0.20000086979E+02 0.  0.
        -12    1    1    2    0    0 -0.30330441239E+02 -0.46101098923E+01  0.30699069025E+02  0.43400709879E+02  0.00000000000E+00 0.  1.
         11    1    3    3    0    0  0.73396363412E+01 -0.25762552619E+01 -0.19806827882E+02  0.21279515591E+02  0.51100000000E-03 0. -1.
        -11    1    3    3    0    0  0.18050627279E+02  0.48129361426E+01 -0.86353288691E+01  0.20580534600E+02  0.51100000000E-03 0.  1.
         12    1    3    3    0    0  0.49401776185E+01  0.23734290116E+01 -0.22569122743E+01  0.59272399301E+01  0.00000000000E+00 0. -1.
</event>
<event>
 7    1  0.2834226E-010  0.4778727E+02  0.7816164E-02  0.1312668E+00
        -11   -1    0    0    0    0  0.00000000000E+00  0.00000000000E+00  0.45593999997E+02  0.45594000000E+02  0.51100000000E-03 0.  1.
         11   -1    0    0    0    0 -0.00000000000E+00 -0.00000000000E+00 -0.45593999997E+02  0.45594000000E+02  0.51100000000E-03 0. -1.
    9900012    2    1    2    0    0 -0.87491017918E+01 -0.32652724789E+01 -0.42384129100E+02  0.47787272056E+02  0.20000004613E+02 0.  0.
        -12    1    1    2    0    0  0.87491017918E+01  0.32652724789E+01  0.42384129100E+02  0.43400727944E+02  0.00000000000E+00 0.  1.
         11    1    3    3    0    0 -0.12251841095E+01 -0.93879039012E+01 -0.16189343044E+02  0.18754429989E+02  0.51100000000E-03 0. -1.
        -11    1    3    3    0    0 -0.81279872973E+00 -0.17669000315E+01 -0.64409683025E+01  0.67281981563E+01  0.51100000000E-03 0.  1.
         12    1    3    3    0    0 -0.67111189526E+01  0.78895314538E+01 -0.19753817753E+02  0.22304643911E+02  0.00000000000E+00 0. -1.
</event>
<event>
 7    1  0.2834226E-010  0.4778727E+02  0.7816164E-02  0.1312668E+00
        -11   -1    0    0    0    0  0.00000000000E+00  0.00000000000E+00  0.45593999997E+02  0.45594000000E+02  0.51100000000E-03 0.  1.
         11   -1    0    0    0    0 -0.00000000000E+00 -0.00000000000E+00 -0.45593999997E+02  0.45594000000E+02  0.51100000000E-03 0. -1.
    9900012    2    1    2    0    0 -0.12643447572E+02 -0.97324621672E+00 -0.41506863255E+02  0.47787266458E+02  0.19999979088E+02 0.  0.
        -12    1    1    2    0    0  0.12643447572E+02  0.97324621672E+00  0.41506863255E+02  0.43400733542E+02  0.00000000000E+00 0.  1.
         11    1    3    3    0    0 -0.97369082599E+01  0.11507272918E+01 -0.27286959891E+02  0.28994995019E+02  0.51100000000E-03 0. -1.
        -11    1    3    3    0    0 -0.14615794892E+01 -0.70142095452E+01 -0.88547945349E+01  0.11390466920E+02  0.51100000000E-03 0.  1.
        -12    1    3    3    0    0 -0.14449598230E+01  0.48902360368E+01 -0.53651088292E+01  0.74018045188E+01  0.00000000000E+00 0.  1.
</event>
<event>
 7    1  0.2834226E-010  0.4778729E+02  0.7816164E-02  0.1312668E+00
        -11   -1    0    0    0    0  0.00000000000E+00  0.00000000000E+00  0.45593999997E+02  0.45594000000E+02  0.51100000000E-03 0.  1.
         11   -1    0    0    0    0 -0.00000000000E+00 -0.00000000000E+00 -0.45593999997E+02  0.45594000000E+02  0.51100000000E-03 0. -1.
    9900012    2    1    2    0    0  0.37182234748E+02  0.18304711947E+02 -0.12885680574E+02  0.47787287746E+02  0.20000076147E+02 0.  0.
        -12    1    1    2    0    0 -0.37182234748E+02 -0.18304711947E+02  0.12885680574E+02  0.43400712254E+02  0.00000000000E+00 0.  1.
         11    1    3    3    0    0  0.15452388742E+02  0.18053150711E+02 -0.62593285358E+01  0.24573802359E+02  0.51100000000E-03 0. -1.
        -11    1    3    3    0    0  0.16629924842E+02 -0.97434876802E+00 -0.32413327738E+01  0.16970857203E+02  0.51100000000E-03 0.  1.
         12    1    3    3    0    0  0.50999211637E+01  0.12259100044E+01 -0.33850192641E+01  0.62426281832E+01  0.00000000000E+00 0. -1.
</event>
<event>
 7    1  0.2834226E-010  0.4778727E+02  0.7816164E-02  0.1312668E+00
        -11   -1    0    0    0    0  0.00000000000E+00  0.00000000000E+00  0.45593999997E+02  0.45594000000E+02  0.51100000000E-03 0.  1.
         11   -1    0    0    0    0 -0.00000000000E+00 -0.00000000000E+00 -0.45593999997E+02  0.45594000000E+02  0.51100000000E-03 0. -1.
    9900012    2    1    2    0    0 -0.41449001732E+02  0.12626033952E+02  0.24872909568E+01  0.47787273114E+02  0.20000009438E+02 0.  0.
        -12    1    1    2    0    0  0.41449001732E+02 -0.12626033952E+02 -0.24872909568E+01  0.43400726886E+02  0.00000000000E+00 0.  1.
         11    1    3    3    0    0 -0.42583045360E+02  0.14826926252E+02  0.23003120086E+01  0.45149140964E+02  0.51100000000E-03 0. -1.
        -11    1    3    3    0    0  0.99575260856E+00 -0.19324861309E+01 -0.15800624126E+00  0.21796770717E+01  0.51100000000E-03 0.  1.
         12    1    3    3    0    0  0.13829102007E+00 -0.26840616922E+00  0.34498518950E+00  0.45845507837E+00  0.00000000000E+00 0. -1.
</event>
<event>
 7    1  0.2834226E-010  0.4778727E+02  0.7816164E-02  0.1312668E+00
        -11   -1    0    0    0    0  0.00000000000E+00  0.00000000000E+00  0.45593999997E+02  0.45594000000E+02  0.51100000000E-03 0.  1.
         11   -1    0    0    0    0 -0.00000000000E+00 -0.00000000000E+00 -0.45593999997E+02  0.45594000000E+02  0.51100000000E-03 0. -1.
    9900012    2    1    2    0    0  0.13977711591E+02 -0.43194108102E+01 -0.40860608987E+02  0.47787273072E+02  0.20000009245E+02 0.  0.
        -12    1    1    2    0    0 -0.13977711591E+02  0.43194108102E+01  0.40860608987E+02  0.43400726928E+02  0.00000000000E+00 0.  1.
         11    1    3    3    0    0  0.28379938429E+01  0.80563548187E+00 -0.24960212694E+02  0.25133950655E+02  0.51100000000E-03 0. -1.
        -11    1    3    3    0    0  0.12161418750E+02 -0.44520704792E+01 -0.93087505537E+01  0.15949102630E+02  0.51100000000E-03 0.  1.
        -12    1    3    3    0    0 -0.10217010025E+01 -0.67297581288E+00 -0.65916457402E+01  0.67042197867E+01  0.00000000000E+00 0.  1.
</event>
<event>
 7    1  0.2834226E-010  0.4778727E+02  0.7816164E-02  0.1312668E+00
        -11   -1    0    0    0    0  0.00000000000E+00  0.00000000000E+00  0.45593999997E+02  0.45594000000E+02  0.51100000000E-03 0.  1.
         11   -1    0    0    0    0 -0.00000000000E+00 -0.00000000000E+00 -0.45593999997E+02  0.45594000000E+02  0.51100000000E-03 0. -1.
    9900012    2    1    2    0    0  0.34053062496E+02 -0.26253278002E+02 -0.58972600635E+01  0.47787270196E+02  0.19999996133E+02 0.  0.
        -12    1    1    2    0    0 -0.34053062496E+02  0.26253278002E+02  0.58972600635E+01  0.43400729804E+02  0.00000000000E+00 0.  1.
         11    1    3    3    0    0  0.13370115957E+02 -0.20709804409E+02 -0.35985897230E+01  0.24911961938E+02  0.51100000000E-03 0. -1.
        -11    1    3    3    0    0  0.18168667202E+02 -0.28608994470E+01  0.26270942271E+00  0.18394407576E+02  0.51100000000E-03 0.  1.
         12    1    3    3    0    0  0.25142793365E+01 -0.26825741463E+01 -0.25613797631E+01  0.44809006821E+01  0.00000000000E+00 0. -1.
</event>
<event>
 7    1  0.2834226E-010  0.4778727E+02  0.7816164E-02  0.1312668E+00
        -11   -1    0    0    0    0  0.00000000000E+00  0.00000000000E+00  0.45593999997E+02  0.45594000000E+02  0.51100000000E-03 0. -1.
         11   -1    0    0    0    0 -0.00000000000E+00 -0.00000000000E+00 -0.45593999997E+02  0.45594000000E+02  0.51100000000E-03 0.  1.
    9900012    2    1    2    0    0  0.23550406167E+02  0.27196534028E+02  0.24276536888E+02  0.47787270317E+02  0.19999996682E+02 0.  0.
        -12    1    1    2    0    0 -0.23550406167E+02 -0.27196534028E+02 -0.24276536888E+02  0.43400729683E+02  0.00000000000E+00 0.  1.
         11    1    3    3    0    0  0.25301083876E+02  0.16290018443E+02  0.17311278094E+02  0.34715845023E+02  0.51100000000E-03 0. -1.
        -11    1    3    3    0    0 -0.57946036073E+00  0.53062205600E+01  0.32423667870E+01  0.62453737745E+01  0.51100000000E-03 0.  1.
         12    1    3    3    0    0 -0.11712173486E+01  0.56002950242E+01  0.37228920078E+01  0.68260515188E+01  0.00000000000E+00 0. -1.
</event>
<event>
 7    1  0.2834226E-010  0.4778727E+02  0.7816164E-02  0.1312668E+00
        -11   -1    0    0    0    0  0.00000000000E+00  0.00000000000E+00  0.45593999997E+02  0.45594000000E+02  0.51100000000E-03 0.  1.
         11   -1    0    0    0    0 -0.00000000000E+00 -0.00000000000E+00 -0.45593999997E+02  0.45594000000E+02  0.51100000000E-03 0. -1.
    9900012    2    1    2    0    0  0.32336362255E+02  0.27813295035E+02 -0.80251732326E+01  0.47787272933E+02  0.20000008611E+02 0.  0.
        -12    1    1    2    0    0 -0.32336362255E+02 -0.27813295035E+02  0.80251732326E+01  0.43400727067E+02  0.00000000000E+00 0.  1.
         11    1    3    3    0    0  0.24052420891E+02  0.15568073121E+02 -0.21271559394E+01  0.28729925933E+02  0.51100000000E-03 0. -1.
        -11    1    3    3    0    0  0.51941043355E+01  0.11990469983E+02 -0.79908370578E+01  0.15316774053E+02  0.51100000000E-03 0.  1.
         12    1    3    3    0    0  0.30898370278E+01  0.25475193025E+00  0.20928197646E+01  0.37405729470E+01  0.00000000000E+00 0. -1.
</event>
<event>
 7    1  0.2834226E-010  0.4778727E+02  0.7816164E-02  0.1312668E+00
        -11   -1    0    0    0    0  0.00000000000E+00  0.00000000000E+00  0.45593999997E+02  0.45594000000E+02  0.51100000000E-03 0. -1.
         11   -1    0    0    0    0 -0.00000000000E+00 -0.00000000000E+00 -0.45593999997E+02  0.45594000000E+02  0.51100000000E-03 0.  1.
    9900012    2    1    2    0    0 -0.32436108744E+02 -0.26706766975E+02  0.10875224405E+02  0.47787273525E+02  0.20000011309E+02 0.  0.
        -12    1    1    2    0    0  0.32436108744E+02  0.26706766975E+02 -0.10875224405E+02  0.43400726475E+02  0.00000000000E+00 0.  1.
         11    1    3    3    0    0 -0.49241935964E+01 -0.61819325452E+01  0.36227237225E+01  0.86941417057E+01  0.51100000000E-03 0. -1.
        -11    1    3    3    0    0 -0.24911322538E+02 -0.15798095219E+02  0.12058607004E+02  0.31867911860E+02  0.51100000000E-03 0.  1.
        -12    1    3    3    0    0 -0.26005926097E+01 -0.47267392102E+01 -0.48061063219E+01  0.72252199592E+01  0.00000000000E+00 0.  1.
</event>
<event>
 7    1  0.2834226E-010  0.4778727E+02  0.7816164E-02  0.1312668E+00
        -11   -1    0    0    0    0  0.00000000000E+00  0.00000000000E+00  0.45593999997E+02  0.45594000000E+02  0.51100000000E-03 0.  1.
         11   -1    0    0    0    0 -0.00000000000E+00 -0.00000000000E+00 -0.45593999997E+02  0.45594000000E+02  0.51100000000E-03 0. -1.
    9900012    2    1    2    0    0 -0.17085677327E+02 -0.28025139589E+02 -0.28395332219E+02  0.47787266014E+02  0.19999977063E+02 0.  0.
        -12    1    1    2    0    0  0.17085677327E+02  0.28025139589E+02  0.28395332219E+02  0.43400733986E+02  0.00000000000E+00 0.  1.
         11    1    3    3    0    0 -0.10371085386E+02 -0.11189270820E+02 -0.40425790213E+01  0.15782954064E+02  0.51100000000E-03 0. -1.
        -11    1    3    3    0    0  0.22337086166E+01 -0.66082437153E+01 -0.10439466863E+02  0.12555509063E+02  0.51100000000E-03 0.  1.
         12    1    3    3    0    0 -0.89483005578E+01 -0.10227625053E+02 -0.13913286335E+02  0.19448802887E+02  0.00000000000E+00 0. -1.
</event>
<event>
 7    1  0.2834226E-010  0.4778727E+02  0.7816164E-02  0.1312668E+00
        -11   -1    0    0    0    0  0.00000000000E+00  0.00000000000E+00  0.45593999997E+02  0.45594000000E+02  0.51100000000E-03 0. -1.
         11   -1    0    0    0    0 -0.00000000000E+00 -0.00000000000E+00 -0.45593999997E+02  0.45594000000E+02  0.51100000000E-03 0.  1.
    9900012    2    1    2    0    0  0.73436646745E+00 -0.80706760192E+01  0.42637405194E+02  0.47787269278E+02  0.19999991948E+02 0.  0.
        -12    1    1    2    0    0 -0.73436646745E+00  0.80706760192E+01 -0.42637405194E+02  0.43400730722E+02  0.00000000000E+00 0.  1.
         11    1    3    3    0    0 -0.20215738284E+01 -0.24020182873E+01  0.27126887924E+02  0.27307956740E+02  0.51100000000E-03 0. -1.
        -11    1    3    3    0    0  0.23024028378E+01  0.22980955572E+01  0.25518257446E+00  0.32630385264E+01  0.51100000000E-03 0.  1.
         12    1    3    3    0    0  0.45353745802E+00 -0.79667532892E+01  0.15255334695E+02  0.17216274012E+02  0.00000000000E+00 0. -1.
</event>
<event>
 7    1  0.2834226E-010  0.4778727E+02  0.7816164E-02  0.1312668E+00
        -11   -1    0    0    0    0  0.00000000000E+00  0.00000000000E+00  0.45593999997E+02  0.45594000000E+02  0.51100000000E-03 0.  1.
         11   -1    0    0    0    0 -0.00000000000E+00 -0.00000000000E+00 -0.45593999997E+02  0.45594000000E+02  0.51100000000E-03 0. -1.
    9900012    2    1    2    0    0  0.15073716795E+02  0.40644667378E+02 -0.21017165977E+01  0.47787272622E+02  0.20000007191E+02 0.  0.
        -12    1    1    2    0    0 -0.15073716795E+02 -0.40644667378E+02  0.21017165977E+01  0.43400727378E+02  0.00000000000E+00 0.  1.
         11    1    3    3    0    0  0.11012032047E+02  0.27954397533E+02  0.27138304669E+01  0.30167500183E+02  0.51100000000E-03 0. -1.
        -11    1    3    3    0    0 -0.65475025809E+00 -0.13314656698E+01 -0.21119414354E+01  0.25810454506E+01  0.51100000000E-03 0.  1.
         12    1    3    3    0    0  0.47164350062E+01  0.14021735515E+02 -0.27036056292E+01  0.15038726988E+02  0.00000000000E+00 0. -1.
</event>
<event>
 7    1  0.2834226E-010  0.4778727E+02  0.7816164E-02  0.1312668E+00
        -11   -1    0    0    0    0  0.00000000000E+00  0.00000000000E+00  0.45593999997E+02  0.45594000000E+02  0.51100000000E-03 0.  1.
         11   -1    0    0    0    0 -0.00000000000E+00 -0.00000000000E+00 -0.45593999997E+02  0.45594000000E+02  0.51100000000E-03 0. -1.
    9900012    2    1    2    0    0 -0.18997991250E+02  0.20165055027E+02 -0.33407642359E+02  0.47787266322E+02  0.19999978468E+02 0.  0.
        -12    1    1    2    0    0  0.18997991250E+02 -0.20165055027E+02  0.33407642359E+02  0.43400733678E+02  0.00000000000E+00 0.  1.
         11    1    3    3    0    0 -0.14293830099E+02  0.21000397797E+02 -0.23967943584E+02  0.34925529436E+02  0.51100000000E-03 0. -1.
        -11    1    3    3    0    0 -0.92913666645E+00 -0.81327778866E+00  0.11078724090E+01  0.16589446170E+01  0.51100000000E-03 0.  1.
         12    1    3    3    0    0 -0.37750244850E+01 -0.22064980539E-01 -0.10547571184E+02  0.11202792269E+02  0.00000000000E+00 0. -1.
</event>
<event>
 7    1  0.2834226E-010  0.4778727E+02  0.7816164E-02  0.1312668E+00
        -11   -1    0    0    0    0  0.00000000000E+00  0.00000000000E+00  0.45593999997E+02  0.45594000000E+02  0.51100000000E-03 0. -1.
         11   -1    0    0    0    0 -0.00000000000E+00 -0.00000000000E+00 -0.45593999997E+02  0.45594000000E+02  0.51100000000E-03 0.  1.
    9900012    2    1    2    0    0  0.18980443896E+02  0.35195513167E+02  0.16871335742E+02  0.47787269968E+02  0.19999995091E+02 0.  0.
        -12    1    1    2    0    0 -0.18980443896E+02 -0.35195513167E+02 -0.16871335742E+02  0.43400730032E+02  0.00000000000E+00 0.  1.
         11    1    3    3    0    0  0.95337582755E+01  0.66071822306E+01 -0.20227144153E+01  0.11774496921E+02  0.51100000000E-03 0. -1.
        -11    1    3    3    0    0  0.14699452392E+01  0.12835812768E+02  0.92885181825E+01  0.15912114841E+02  0.51100000000E-03 0.  1.
         12    1    3    3    0    0  0.79767403808E+01  0.15752518169E+02  0.96055319753E+01  0.20100658205E+02  0.00000000000E+00 0. -1.
</event>
<event>
 7    1  0.2834226E-010  0.4778727E+02  0.7816164E-02  0.1312668E+00
        -11   -1    0    0    0    0  0.00000000000E+00  0.00000000000E+00  0.45593999997E+02  0.45594000000E+02  0.51100000000E-03 0.  1.
         11   -1    0    0    0    0 -0.00000000000E+00 -0.00000000000E+00 -0.45593999997E+02  0.45594000000E+02  0.51100000000E-03 0. -1.
    9900012    2    1    2    0    0  0.24894810676E+02 -0.13449397355E+02 -0.32908748527E+02  0.47787267087E+02  0.19999981956E+02 0.  0.
        -12    1    1    2    0    0 -0.24894810676E+02  0.13449397355E+02  0.32908748527E+02  0.43400732913E+02  0.00000000000E+00 0.  1.
         11    1    3    3    0    0  0.47652962386E+01 -0.99727234098E+01 -0.14909021356E+02  0.18559153497E+02  0.51100000000E-03 0. -1.
        -11    1    3    3    0    0  0.20552030305E+02 -0.38009018665E+01 -0.13915343825E+02  0.25109153683E+02  0.51100000000E-03 0.  1.
        -12    1    3    3    0    0 -0.42251586747E+00  0.32422792145E+00 -0.40843833459E+01  0.41189599074E+01  0.00000000000E+00 0.  1.
</event>
<event>
 7    1  0.2834226E-010  0.4778729E+02  0.7816164E-02  0.1312668E+00
        -11   -1    0    0    0    0  0.00000000000E+00  0.00000000000E+00  0.45593999997E+02  0.45594000000E+02  0.51100000000E-03 0. -1.
         11   -1    0    0    0    0 -0.00000000000E+00 -0.00000000000E+00 -0.45593999997E+02  0.45594000000E+02  0.51100000000E-03 0.  1.
    9900012    2    1    2    0    0  0.35609281526E+01 -0.42329988757E+02  0.88945650876E+01  0.47787292107E+02  0.20000096033E+02 0.  0.
        -12    1    1    2    0    0 -0.35609281526E+01  0.42329988757E+02 -0.88945650876E+01  0.43400707893E+02  0.00000000000E+00 0.  1.
         11    1    3    3    0    0  0.15516110276E+01 -0.20990301721E+02  0.69131902895E+01  0.22153836312E+02  0.51100000000E-03 0. -1.
        -11    1    3    3    0    0  0.52956148223E+00 -0.18853549521E+01  0.54731342732E+01  0.58129336562E+01  0.51100000000E-03 0.  1.
        -12    1    3    3    0    0  0.14797556428E+01 -0.19454332084E+02 -0.34917594750E+01  0.19820522139E+02  0.00000000000E+00 0.  1.
</event>
<event>
 7    1  0.2834226E-010  0.4778727E+02  0.7816164E-02  0.1312668E+00
        -11   -1    0    0    0    0  0.00000000000E+00  0.00000000000E+00  0.45593999997E+02  0.45594000000E+02  0.51100000000E-03 0.  1.
         11   -1    0    0    0    0 -0.00000000000E+00 -0.00000000000E+00 -0.45593999997E+02  0.45594000000E+02  0.51100000000E-03 0. -1.
    9900012    2    1    2    0    0 -0.16137537794E+02 -0.39050151170E+02 -0.99140738321E+01  0.47787270831E+02  0.19999999026E+02 0.  0.
        -12    1    1    2    0    0  0.16137537794E+02  0.39050151170E+02  0.99140738321E+01  0.43400729169E+02  0.00000000000E+00 0.  1.
         11    1    3    3    0    0 -0.65682617081E+01 -0.21463760079E+02 -0.28676810034E+01  0.22628713025E+02  0.51100000000E-03 0. -1.
        -11    1    3    3    0    0 -0.57217407799E+01 -0.46058811149E+01  0.33651575241E+01  0.80794024420E+01  0.51100000000E-03 0.  1.
        -12    1    3    3    0    0 -0.38475353059E+01 -0.12980509977E+02 -0.10411550353E+02  0.17079155364E+02  0.00000000000E+00 0.  1.
</event>
<event>
 7    1  0.2834226E-010  0.4778726E+02  0.7816164E-02  0.1312668E+00
        -11   -1    0    0    0    0  0.00000000000E+00  0.00000000000E+00  0.45593999997E+02  0.45594000000E+02  0.51100000000E-03 0. -1.
         11   -1    0    0    0    0 -0.00000000000E+00 -0.00000000000E+00 -0.45593999997E+02  0.45594000000E+02  0.51100000000E-03 0.  1.
    9900012    2    1    2    0    0  0.38691369389E+02 -0.50440649614E+01 -0.19004207580E+02  0.47787256201E+02  0.19999932324E+02 0.  0.
        -12    1    1    2    0    0 -0.38691369389E+02  0.50440649614E+01  0.19004207580E+02  0.43400743799E+02  0.00000000000E+00 0.  1.
         11    1    3    3    0    0  0.91397299843E+01  0.19392195265E+01 -0.37322586012E+01  0.10061063119E+02  0.51100000000E-03 0. -1.
        -11    1    3    3    0    0  0.19149715058E+01 -0.54840966989E+01  0.56836400266E+00  0.58365632329E+01  0.51100000000E-03 0.  1.
        -12    1    3    3    0    0  0.27636667899E+02 -0.14991877890E+01 -0.15840312981E+02  0.31889629849E+02  0.00000000000E+00 0.  1.
</event>
<event>
 7    1  0.2834226E-010  0.4778727E+02  0.7816164E-02  0.1312668E+00
        -11   -1    0    0    0    0  0.00000000000E+00  0.00000000000E+00  0.45593999997E+02  0.45594000000E+02  0.51100000000E-03 0. -1.
         11   -1    0    0    0    0 -0.00000000000E+00 -0.00000000000E+00 -0.45593999997E+02  0.45594000000E+02  0.51100000000E-03 0.  1.
    9900012    2    1    2    0    0  0.60617680347E+01 -0.17307298846E+02  0.39336186772E+02  0.47787271725E+02  0.20000003104E+02 0.  0.
        -12    1    1    2    0    0 -0.60617680347E+01  0.17307298846E+02 -0.39336186772E+02  0.43400728275E+02  0.00000000000E+00 0.  1.
         11    1    3    3    0    0 -0.31037724069E+01 -0.58101530833E+01  0.14197341305E+02  0.15651063299E+02  0.51100000000E-03 0. -1.
        -11    1    3    3    0    0  0.86918221840E+01 -0.71772960801E+01  0.65306696868E+01  0.13027317403E+02  0.51100000000E-03 0.  1.
        -12    1    3    3    0    0  0.47371825756E+00 -0.43198496824E+01  0.18608175780E+02  0.19108891023E+02  0.00000000000E+00 0.  1.
</event>
<event>
 7    1  0.2834226E-010  0.4778727E+02  0.7816164E-02  0.1312668E+00
        -11   -1    0    0    0    0  0.00000000000E+00  0.00000000000E+00  0.45593999997E+02  0.45594000000E+02  0.51100000000E-03 0. -1.
         11   -1    0    0    0    0 -0.00000000000E+00 -0.00000000000E+00 -0.45593999997E+02  0.45594000000E+02  0.51100000000E-03 0.  1.
    9900012    2    1    2    0    0  0.38382567753E+02 -0.95603788347E+01  0.17860599020E+02  0.47787270189E+02  0.19999996099E+02 0.  0.
        -12    1    1    2    0    0 -0.38382567753E+02  0.95603788347E+01 -0.17860599020E+02  0.43400729811E+02  0.00000000000E+00 0.  1.
         11    1    3    3    0    0  0.23637203588E+02  0.19842664161E+00  0.60480682663E+01  0.24399506073E+02  0.51100000000E-03 0. -1.
        -11    1    3    3    0    0  0.13026801676E+02 -0.77033800019E+01  0.47939396014E+01  0.15875184488E+02  0.51100000000E-03 0.  1.
         12    1    3    3    0    0  0.17185624896E+01 -0.20554254744E+01  0.70185911521E+01  0.75125796283E+01  0.00000000000E+00 0. -1.
</event>
<event>
 7    1  0.2834226E-010  0.4778727E+02  0.7816164E-02  0.1312668E+00
        -11   -1    0    0    0    0  0.00000000000E+00  0.00000000000E+00  0.45593999997E+02  0.45594000000E+02  0.51100000000E-03 0. -1.
         11   -1    0    0    0    0 -0.00000000000E+00 -0.00000000000E+00 -0.45593999997E+02  0.45594000000E+02  0.51100000000E-03 0.  1.
    9900012    2    1    2    0    0  0.37037131424E+02  0.80969478535E+01  0.21126133982E+02  0.47787271830E+02  0.20000003581E+02 0.  0.
        -12    1    1    2    0    0 -0.37037131424E+02 -0.80969478535E+01 -0.21126133982E+02  0.43400728170E+02  0.00000000000E+00 0.  1.
         11    1    3    3    0    0  0.15443101462E+02  0.12073182639E+02  0.11219085424E+02  0.22585814127E+02  0.51100000000E-03 0. -1.
        -11    1    3    3    0    0  0.54293615465E+01 -0.43892530430E+01  0.25001579618E+01  0.74158141275E+01  0.51100000000E-03 0.  1.
         12    1    3    3    0    0  0.16164668416E+02  0.41301825804E+00  0.74068905969E+01  0.17785643575E+02  0.00000000000E+00 0. -1.
</event>
<event>
 7    1  0.2834226E-010  0.4778726E+02  0.7816164E-02  0.1312668E+00
        -11   -1    0    0    0    0  0.00000000000E+00  0.00000000000E+00  0.45593999997E+02  0.45594000000E+02  0.51100000000E-03 0.  1.
         11   -1    0    0    0    0 -0.00000000000E+00 -0.00000000000E+00 -0.45593999997E+02  0.45594000000E+02  0.51100000000E-03 0. -1.
    9900012    2    1    2    0    0  0.34285279476E+02 -0.70297875705E+01 -0.25665649142E+02  0.47787264431E+02  0.19999969848E+02 0.  0.
        -12    1    1    2    0    0 -0.34285279476E+02  0.70297875705E+01  0.25665649142E+02  0.43400735569E+02  0.00000000000E+00 0.  1.
         11    1    3    3    0    0  0.27671067358E+02 -0.12089292929E+02 -0.24634851665E+02  0.38970692694E+02  0.51100000000E-03 0. -1.
        -11    1    3    3    0    0  0.68735606170E+01  0.48326905528E+01 -0.10680161313E+01  0.84700290585E+01  0.51100000000E-03 0.  1.
         12    1    3    3    0    0 -0.25934849878E+00  0.22681480569E+00  0.37218654542E-01  0.34654267868E+00  0.00000000000E+00 0. -1.
</event>
<event>
 7    1  0.2834226E-010  0.4778727E+02  0.7816164E-02  0.1312668E+00
        -11   -1    0    0    0    0  0.00000000000E+00  0.00000000000E+00  0.45593999997E+02  0.45594000000E+02  0.51100000000E-03 0.  1.
         11   -1    0    0    0    0 -0.00000000000E+00 -0.00000000000E+00 -0.45593999997E+02  0.45594000000E+02  0.51100000000E-03 0. -1.
    9900012    2    1    2    0    0  0.41914291883E+02  0.41154504161E+01  0.10482286742E+02  0.47787272685E+02  0.20000007478E+02 0.  0.
        -12    1    1    2    0    0 -0.41914291883E+02 -0.41154504161E+01 -0.10482286742E+02  0.43400727315E+02  0.00000000000E+00 0.  1.
         11    1    3    3    0    0  0.25449955463E+02 -0.63013097620E+01  0.32558296187E+01  0.26419825218E+02  0.51100000000E-03 0. -1.
        -11    1    3    3    0    0  0.11920295640E+02  0.55363227186E+01  0.30281454691E+01  0.13487549171E+02  0.51100000000E-03 0.  1.
         12    1    3    3    0    0  0.45440407799E+01  0.48804374594E+01  0.41983116545E+01  0.78798982959E+01  0.00000000000E+00 0. -1.
</event>
<event>
 7    1  0.2834226E-010  0.4778728E+02  0.7816164E-02  0.1312668E+00
        -11   -1    0    0    0    0  0.00000000000E+00  0.00000000000E+00  0.45593999997E+02  0.45594000000E+02  0.51100000000E-03 0. -1.
         11   -1    0    0    0    0 -0.00000000000E+00 -0.00000000000E+00 -0.45593999997E+02  0.45594000000E+02  0.51100000000E-03 0.  1.
    9900012    2    1    2    0    0 -0.17725016482E+02  0.10231339139E+02  0.38272261664E+02  0.47787279698E+02  0.20000039454E+02 0.  0.
        -12    1    1    2    0    0  0.17725016482E+02 -0.10231339139E+02 -0.38272261664E+02  0.43400720302E+02  0.00000000000E+00 0.  1.
         11    1    3    3    0    0 -0.36450938751E+00  0.17732532560E+01  0.22832840139E+02  0.22904494827E+02  0.51100000000E-03 0. -1.
        -11    1    3    3    0    0 -0.12591127656E+02  0.47309222281E+01  0.10277341563E+02  0.16927547686E+02  0.51100000000E-03 0.  1.
         12    1    3    3    0    0 -0.47693794385E+01  0.37271636547E+01  0.51620799619E+01  0.79552371851E+01  0.00000000000E+00 0. -1.
</event>
<event>
 7    1  0.2834226E-010  0.4778727E+02  0.7816164E-02  0.1312668E+00
        -11   -1    0    0    0    0  0.00000000000E+00  0.00000000000E+00  0.45593999997E+02  0.45594000000E+02  0.51100000000E-03 0. -1.
         11   -1    0    0    0    0 -0.00000000000E+00 -0.00000000000E+00 -0.45593999997E+02  0.45594000000E+02  0.51100000000E-03 0.  1.
    9900012    2    1    2    0    0 -0.32959016795E+02  0.63019585805E+00  0.28229935749E+02  0.47787271811E+02  0.20000003496E+02 0.  0.
        -12    1    1    2    0    0  0.32959016795E+02 -0.63019585805E+00 -0.28229935749E+02  0.43400728189E+02  0.00000000000E+00 0.  1.
         11    1    3    3    0    0 -0.19241342963E+02  0.91024685746E+01  0.17616732795E+02  0.27630300176E+02  0.51100000000E-03 0. -1.
        -11    1    3    3    0    0 -0.68502930335E+01 -0.55873107435E+01  0.25954105516E+01  0.92130728957E+01  0.51100000000E-03 0.  1.
         12    1    3    3    0    0 -0.68673807989E+01 -0.28849619730E+01  0.80177924018E+01  0.10943898740E+02  0.00000000000E+00 0. -1.
</event>
<event>
 7    1  0.2834226E-010  0.4778727E+02  0.7816164E-02  0.1312668E+00
        -11   -1    0    0    0    0  0.00000000000E+00  0.00000000000E+00  0.45593999997E+02  0.45594000000E+02  0.51100000000E-03 0.  1.
         11   -1    0    0    0    0 -0.00000000000E+00 -0.00000000000E+00 -0.45593999997E+02  0.45594000000E+02  0.51100000000E-03 0. -1.
    9900012    2    1    2    0    0 -0.24201793549E+02 -0.21609558300E+02 -0.28825738723E+02  0.47787273810E+02  0.20000012608E+02 0.  0.
        -12    1    1    2    0    0  0.24201793549E+02  0.21609558300E+02  0.28825738723E+02  0.43400726190E+02  0.00000000000E+00 0.  1.
         11    1    3    3    0    0 -0.59116252761E+01 -0.15430071943E+02 -0.21012810535E+02  0.26731491549E+02  0.51100000000E-03 0. -1.
        -11    1    3    3    0    0 -0.89758032588E+01 -0.14083940409E+01 -0.34900698703E+01  0.97328929859E+01  0.51100000000E-03 0.  1.
         12    1    3    3    0    0 -0.93143650139E+01 -0.47710923162E+01 -0.43228583178E+01  0.11322889275E+02  0.00000000000E+00 0. -1.
</event>
<event>
 7    1  0.2834226E-010  0.4778727E+02  0.7816164E-02  0.1312668E+00
        -11   -1    0    0    0    0  0.00000000000E+00  0.00000000000E+00  0.45593999997E+02  0.45594000000E+02  0.51100000000E-03 0.  1.
         11   -1    0    0    0    0 -0.00000000000E+00 -0.00000000000E+00 -0.45593999997E+02  0.45594000000E+02  0.51100000000E-03 0. -1.
    9900012    2    1    2    0    0  0.32554006573E+02  0.20861331429E+02 -0.19714587902E+02  0.47787268796E+02  0.19999989746E+02 0.  0.
        -12    1    1    2    0    0 -0.32554006573E+02 -0.20861331429E+02  0.19714587902E+02  0.43400731204E+02  0.00000000000E+00 0.  1.
         11    1    3    3    0    0  0.33812613497E+01  0.13186652140E-01 -0.81649726792E+01  0.88374137233E+01  0.51100000000E-03 0. -1.
        -11    1    3    3    0    0  0.30395318935E+01  0.49380848960E+01  0.99371733582E+00  0.58831038556E+01  0.51100000000E-03 0.  1.
         12    1    3    3    0    0  0.26133213330E+02  0.15910059881E+02 -0.12543332558E+02  0.33066751217E+02  0.00000000000E+00 0. -1.
</event>
<event>
 7    1  0.2834226E-010  0.4778727E+02  0.7816164E-02  0.1312668E+00
        -11   -1    0    0    0    0  0.00000000000E+00  0.00000000000E+00  0.45593999997E+02  0.45594000000E+02  0.51100000000E-03 0.  1.
         11   -1    0    0    0    0 -0.00000000000E+00 -0.00000000000E+00 -0.45593999997E+02  0.45594000000E+02  0.51100000000E-03 0. -1.
    9900012    2    1    2    0    0 -0.31571433036E+02 -0.10432191192E+02 -0.27893316894E+02  0.47787272767E+02  0.20000007852E+02 0.  0.
        -12    1    1    2    0    0  0.31571433036E+02  0.10432191192E+02  0.27893316894E+02  0.43400727233E+02  0.00000000000E+00 0.  1.
         11    1    3    3    0    0 -0.11931870959E+02 -0.11155706803E+02 -0.13209928652E+02  0.21007654655E+02  0.51100000000E-03 0.  1.
        -11    1    3    3    0    0 -0.20472456525E+02  0.37824247425E+00 -0.15405808332E+02  0.25624275096E+02  0.51100000000E-03 0. -1.
        -12    1    3    3    0    0  0.83289444743E+00  0.34527313654E+00  0.72242008980E+00  0.11553430164E+01  0.00000000000E+00 0.  1.
</event>
<event>
 7    1  0.2834226E-010  0.4778727E+02  0.7816164E-02  0.1312668E+00
        -11   -1    0    0    0    0  0.00000000000E+00  0.00000000000E+00  0.45593999997E+02  0.45594000000E+02  0.51100000000E-03 0.  1.
         11   -1    0    0    0    0 -0.00000000000E+00 -0.00000000000E+00 -0.45593999997E+02  0.45594000000E+02  0.51100000000E-03 0. -1.
    9900012    2    1    2    0    0 -0.26127346425E+02 -0.16821753265E+02 -0.30298746995E+02  0.47787266325E+02  0.19999978481E+02 0.  0.
        -12    1    1    2    0    0  0.26127346425E+02  0.16821753265E+02  0.30298746995E+02  0.43400733675E+02  0.00000000000E+00 0.  1.
         11    1    3    3    0    0 -0.14273444339E+00 -0.36960741451E+01 -0.13160514171E+02  0.13670423209E+02  0.51100000000E-03 0. -1.
        -11    1    3    3    0    0 -0.17836934506E+02 -0.86104646132E+01 -0.90327567219E+01  0.21768946407E+02  0.51100000000E-03 0.  1.
         12    1    3    3    0    0 -0.81476774759E+01 -0.45152145066E+01 -0.81054761020E+01  0.12347896709E+02  0.00000000000E+00 0. -1.
</event>
<event>
 7    1  0.2834226E-010  0.4778727E+02  0.7816164E-02  0.1312668E+00
        -11   -1    0    0    0    0  0.00000000000E+00  0.00000000000E+00  0.45593999997E+02  0.45594000000E+02  0.51100000000E-03 0.  1.
         11   -1    0    0    0    0 -0.00000000000E+00 -0.00000000000E+00 -0.45593999997E+02  0.45594000000E+02  0.51100000000E-03 0. -1.
    9900012    2    1    2    0    0 -0.30664452716E+02 -0.25361583938E+02  0.17323528439E+02  0.47787271460E+02  0.20000001894E+02 0.  0.
        -12    1    1    2    0    0  0.30664452716E+02  0.25361583938E+02 -0.17323528439E+02  0.43400728540E+02  0.00000000000E+00 0.  1.
         11    1    3    3    0    0 -0.11392042530E+01  0.27711737912E+00 -0.73061057429E+00  0.13814385416E+01  0.51100000000E-03 0. -1.
        -11    1    3    3    0    0  0.10460719880E+01 -0.22086993482E+01 -0.18355388064E+01  0.30564394949E+01  0.51100000000E-03 0.  1.
        -12    1    3    3    0    0 -0.30571320451E+02 -0.23430001969E+02  0.19889677820E+02  0.43349393423E+02  0.00000000000E+00 0.  1.
</event>
<event>
 7    1  0.2834226E-010  0.4778727E+02  0.7816164E-02  0.1312668E+00
        -11   -1    0    0    0    0  0.00000000000E+00  0.00000000000E+00  0.45593999997E+02  0.45594000000E+02  0.51100000000E-03 0. -1.
         11   -1    0    0    0    0 -0.00000000000E+00 -0.00000000000E+00 -0.45593999997E+02  0.45594000000E+02  0.51100000000E-03 0.  1.
    9900012    2    1    2    0    0 -0.16727329755E+02  0.36107945623E+02  0.17321545203E+02  0.47787271596E+02  0.20000002513E+02 0.  0.
        -12    1    1    2    0    0  0.16727329755E+02 -0.36107945623E+02 -0.17321545203E+02  0.43400728404E+02  0.00000000000E+00 0.  1.
         11    1    3    3    0    0 -0.36437895463E+01  0.19539443651E+02  0.10651999987E+02  0.22550657738E+02  0.51100000000E-03 0. -1.
        -11    1    3    3    0    0 -0.11981129237E+02  0.57045180224E+01  0.22638637701E+01  0.13461577288E+02  0.51100000000E-03 0.  1.
        -12    1    3    3    0    0 -0.11024109716E+01  0.10863983950E+02  0.44056814458E+01  0.11775036570E+02  0.00000000000E+00 0.  1.
</event>
<event>
 7    1  0.2834226E-010  0.4778727E+02  0.7816164E-02  0.1312668E+00
        -11   -1    0    0    0    0  0.00000000000E+00  0.00000000000E+00  0.45593999997E+02  0.45594000000E+02  0.51100000000E-03 0.  1.
         11   -1    0    0    0    0 -0.00000000000E+00 -0.00000000000E+00 -0.45593999997E+02  0.45594000000E+02  0.51100000000E-03 0. -1.
    9900012    2    1    2    0    0 -0.43331139308E+02  0.21576627390E+01  0.11748157896E+01  0.47787270348E+02  0.19999996824E+02 0.  0.
        -12    1    1    2    0    0  0.43331139308E+02 -0.21576627390E+01 -0.11748157896E+01  0.43400729652E+02  0.00000000000E+00 0.  1.
         11    1    3    3    0    0 -0.16814232748E+02 -0.79430283923E+01 -0.20403395039E+01  0.18707568214E+02  0.51100000000E-03 0. -1.
        -11    1    3    3    0    0 -0.95998853691E+01  0.62363043619E+01  0.24688867339E+01  0.11710879265E+02  0.51100000000E-03 0.  1.
         12    1    3    3    0    0 -0.16917021191E+02  0.38643867694E+01  0.74626855957E+00  0.17368822869E+02  0.00000000000E+00 0. -1.
</event>
<event>
 7    1 -0.2834226E-010  0.4778728E+02  0.7816164E-02  0.1312668E+00
        -11   -1    0    0    0    0  0.00000000000E+00  0.00000000000E+00  0.45593999997E+02  0.45594000000E+02  0.51100000000E-03 0.  1.
         11   -1    0    0    0    0 -0.00000000000E+00 -0.00000000000E+00 -0.45593999997E+02  0.45594000000E+02  0.51100000000E-03 0. -1.
    9900012    2    1    2    0    0  0.91806274622E+01 -0.12142885915E+02 -0.40643438948E+02  0.47787277328E+02  0.20000028648E+02 0.  0.
        -12    1    1    2    0    0 -0.91806274622E+01  0.12142885915E+02  0.40643438948E+02  0.43400722672E+02  0.00000000000E+00 0.  1.
         11    1    3    3    0    0  0.62034336792E+01 -0.46181214207E+01 -0.16154187463E+02  0.17909980674E+02  0.51100000000E-03 0. -1.
        -11    1    3    3    0    0  0.46348990670E+01 -0.42042340115E+01 -0.12978324151E+01  0.63907935520E+01  0.51100000000E-03 0.  1.
        -12    1    3    3    0    0 -0.16577052840E+01 -0.33205304824E+01 -0.23191419070E+02  0.23486503102E+02  0.00000000000E+00 0.  1.
</event>
<event>
 7    1  0.2834226E-010  0.4778727E+02  0.7816164E-02  0.1312668E+00
        -11   -1    0    0    0    0  0.00000000000E+00  0.00000000000E+00  0.45593999997E+02  0.45594000000E+02  0.51100000000E-03 0.  1.
         11   -1    0    0    0    0 -0.00000000000E+00 -0.00000000000E+00 -0.45593999997E+02  0.45594000000E+02  0.51100000000E-03 0. -1.
    9900012    2    1    2    0    0  0.13696849076E+02 -0.77355352602E+01 -0.40449732629E+02  0.47787273622E+02  0.20000011753E+02 0.  0.
        -12    1    1    2    0    0 -0.13696849076E+02  0.77355352602E+01  0.40449732629E+02  0.43400726378E+02  0.00000000000E+00 0.  1.
         11    1    3    3    0    0  0.11392566417E+02 -0.82383483649E+01 -0.19886117097E+02  0.24354026500E+02  0.51100000000E-03 0. -1.
        -11    1    3    3    0    0  0.16300502055E+00  0.40861199057E+01 -0.18163370353E+02  0.18618028074E+02  0.51100000000E-03 0.  1.
        -12    1    3    3    0    0  0.21412776392E+01 -0.35833068010E+01 -0.24002451794E+01  0.48152190480E+01  0.00000000000E+00 0.  1.
</event>
<event>
 7    1  0.2834226E-010  0.4778727E+02  0.7816164E-02  0.1312668E+00
        -11   -1    0    0    0    0  0.00000000000E+00  0.00000000000E+00  0.45593999997E+02  0.45594000000E+02  0.51100000000E-03 0. -1.
         11   -1    0    0    0    0 -0.00000000000E+00 -0.00000000000E+00 -0.45593999997E+02  0.45594000000E+02  0.51100000000E-03 0.  1.
    9900012    2    1    2    0    0  0.35358629220E+02  0.24370918944E+02 -0.62808162949E+01  0.47787274156E+02  0.20000014187E+02 0.  0.
        -12    1    1    2    0    0 -0.35358629220E+02 -0.24370918944E+02  0.62808162949E+01  0.43400725844E+02  0.00000000000E+00 0.  1.
         11    1    3    3    0    0  0.86945113128E+01  0.53147226996E+01  0.58377800908E+01  0.11743955083E+02  0.51100000000E-03 0. -1.
        -11    1    3    3    0    0  0.16866299178E+01 -0.21221436181E+00  0.89193342941E+00  0.19197137596E+01  0.51100000000E-03 0.  1.
         12    1    3    3    0    0  0.24977487989E+02  0.19268410606E+02 -0.13010529815E+02  0.34123605313E+02  0.00000000000E+00 0. -1.
</event>
<event>
 7    1  0.2834226E-010  0.4778727E+02  0.7816164E-02  0.1312668E+00
        -11   -1    0    0    0    0  0.00000000000E+00  0.00000000000E+00  0.45593999997E+02  0.45594000000E+02  0.51100000000E-03 0.  1.
         11   -1    0    0    0    0 -0.00000000000E+00 -0.00000000000E+00 -0.45593999997E+02  0.45594000000E+02  0.51100000000E-03 0. -1.
    9900012    2    1    2    0    0  0.19726527944E+02  0.38004625435E+02 -0.70806591270E+01  0.47787271978E+02  0.20000004256E+02 0.  0.
        -12    1    1    2    0    0 -0.19726527944E+02 -0.38004625435E+02  0.70806591270E+01  0.43400728022E+02  0.00000000000E+00 0.  1.
         11    1    3    3    0    0  0.65001833135E+01  0.57532921030E+01 -0.94191173593E+01  0.12809079796E+02  0.51100000000E-03 0. -1.
        -11    1    3    3    0    0  0.68395102766E+01  0.18885314729E+02  0.14546292469E+01  0.20138271021E+02  0.51100000000E-03 0.  1.
         12    1    3    3    0    0  0.63868343539E+01  0.13366018603E+02  0.88382898549E+00  0.14839921160E+02  0.00000000000E+00 0. -1.
</event>
<event>
 7    1  0.2834226E-010  0.4778727E+02  0.7816164E-02  0.1312668E+00
        -11   -1    0    0    0    0  0.00000000000E+00  0.00000000000E+00  0.45593999997E+02  0.45594000000E+02  0.51100000000E-03 0.  1.
         11   -1    0    0    0    0 -0.00000000000E+00 -0.00000000000E+00 -0.45593999997E+02  0.45594000000E+02  0.51100000000E-03 0. -1.
    9900012    2    1    2    0    0  0.20449610105E+02  0.21985614301E+02 -0.31337992083E+02  0.47787268008E+02  0.19999986155E+02 0.  0.
        -12    1    1    2    0    0 -0.20449610105E+02 -0.21985614301E+02  0.31337992083E+02  0.43400731992E+02  0.00000000000E+00 0.  1.
         11    1    3    3    0    0  0.83135405120E+01  0.10056213205E+02 -0.10443434489E+02  0.16712501430E+02  0.51100000000E-03 0. -1.
        -11    1    3    3    0    0  0.60190526144E+01  0.26565509032E+01  0.87258599392E+00  0.66368413914E+01  0.51100000000E-03 0.  1.
        -12    1    3    3    0    0  0.61170169787E+01  0.92728501921E+01 -0.21767143589E+02  0.24437925186E+02  0.00000000000E+00 0.  1.
</event>
<event>
 7    1  0.2834226E-010  0.4778728E+02  0.7816164E-02  0.1312668E+00
        -11   -1    0    0    0    0  0.00000000000E+00  0.00000000000E+00  0.45593999997E+02  0.45594000000E+02  0.51100000000E-03 0.  1.
         11   -1    0    0    0    0 -0.00000000000E+00 -0.00000000000E+00 -0.45593999997E+02  0.45594000000E+02  0.51100000000E-03 0. -1.
    9900012    2    1    2    0    0 -0.42015740987E+02 -0.10796135067E+02  0.13203330986E+01  0.47787282235E+02  0.20000051022E+02 0.  0.
        -12    1    1    2    0    0  0.42015740987E+02  0.10796135067E+02 -0.13203330986E+01  0.43400717765E+02  0.00000000000E+00 0.  1.
         11    1    3    3    0    0 -0.27297748924E+02 -0.15268286642E+02 -0.37626894907E+01  0.31503103113E+02  0.51100000000E-03 0. -1.
        -11    1    3    3    0    0 -0.10349133914E+02  0.31460580579E+01  0.27689194752E+01  0.11165534890E+02  0.51100000000E-03 0.  1.
         12    1    3    3    0    0 -0.43688581492E+01  0.13260935174E+01  0.23141031141E+01  0.51186442313E+01  0.00000000000E+00 0. -1.
</event>
<event>
 7    1  0.2834226E-010  0.4778727E+02  0.7816164E-02  0.1312668E+00
        -11   -1    0    0    0    0  0.00000000000E+00  0.00000000000E+00  0.45593999997E+02  0.45594000000E+02  0.51100000000E-03 0.  1.
         11   -1    0    0    0    0 -0.00000000000E+00 -0.00000000000E+00 -0.45593999997E+02  0.45594000000E+02  0.51100000000E-03 0. -1.
    9900012    2    1    2    0    0 -0.27759073398E+02 -0.23681773721E+02 -0.23499583191E+02  0.47787274514E+02  0.20000015819E+02 0.  0.
        -12    1    1    2    0    0  0.27759073398E+02  0.23681773721E+02  0.23499583191E+02  0.43400725486E+02  0.00000000000E+00 0.  1.
         11    1    3    3    0    0 -0.17691137724E+02 -0.93506376024E+01 -0.34112686057E+01  0.20298953946E+02  0.51100000000E-03 0. -1.
        -11    1    3    3    0    0 -0.25255954286E+01 -0.60757045806E+01 -0.12007229259E+02  0.13691836004E+02  0.51100000000E-03 0.  1.
         12    1    3    3    0    0 -0.75423402455E+01 -0.82554315385E+01 -0.80810853272E+01  0.13796484564E+02  0.00000000000E+00 0. -1.
</event>
<event>
 7    1  0.2834226E-010  0.4778724E+02  0.7816164E-02  0.1312668E+00
        -11   -1    0    0    0    0  0.00000000000E+00  0.00000000000E+00  0.45593999997E+02  0.45594000000E+02  0.51100000000E-03 0.  1.
         11   -1    0    0    0    0 -0.00000000000E+00 -0.00000000000E+00 -0.45593999997E+02  0.45594000000E+02  0.51100000000E-03 0. -1.
    9900012    2    1    2    0    0  0.42069841613E+02 -0.26457605319E+00  0.10662300066E+02  0.47787237144E+02  0.19999845434E+02 0.  0.
        -12    1    1    2    0    0 -0.42069841613E+02  0.26457605319E+00 -0.10662300066E+02  0.43400762856E+02  0.00000000000E+00 0.  1.
         11    1    3    3    0    0  0.19323767594E+02 -0.84918255906E+01  0.10978941587E+01  0.21135857393E+02  0.51100000000E-03 0. -1.
        -11    1    3    3    0    0  0.17069254815E+02  0.57953116427E+01  0.97075260661E+01  0.20473914124E+02  0.51100000000E-03 0.  1.
         12    1    3    3    0    0  0.56768192036E+01  0.24319378947E+01 -0.14312015900E+00  0.61774656271E+01  0.00000000000E+00 0. -1.
</event>
<event>
 7    1  0.2834226E-010  0.4778726E+02  0.7816164E-02  0.1312668E+00
        -11   -1    0    0    0    0  0.00000000000E+00  0.00000000000E+00  0.45593999997E+02  0.45594000000E+02  0.51100000000E-03 0. -1.
         11   -1    0    0    0    0 -0.00000000000E+00 -0.00000000000E+00 -0.45593999997E+02  0.45594000000E+02  0.51100000000E-03 0.  1.
    9900012    2    1    2    0    0 -0.20845351800E+02 -0.31075896326E+02  0.21985994400E+02  0.47787262980E+02  0.19999963230E+02 0.  0.
        -12    1    1    2    0    0  0.20845351800E+02  0.31075896326E+02 -0.21985994400E+02  0.43400737020E+02  0.00000000000E+00 0.  1.
         11    1    3    3    0    0 -0.44335187220E+01 -0.13765114287E+02  0.22432155148E+00  0.14463221633E+02  0.51100000000E-03 0. -1.
        -11    1    3    3    0    0 -0.59879343485E+01 -0.65884753745E+01  0.31385247763E+01  0.94400054848E+01  0.51100000000E-03 0.  1.
         12    1    3    3    0    0 -0.10423898729E+02 -0.10722306665E+02  0.18623148072E+02  0.23884035862E+02  0.00000000000E+00 0. -1.
</event>
<event>
 7    1  0.2834226E-010  0.4778728E+02  0.7816164E-02  0.1312668E+00
        -11   -1    0    0    0    0  0.00000000000E+00  0.00000000000E+00  0.45593999997E+02  0.45594000000E+02  0.51100000000E-03 0. -1.
         11   -1    0    0    0    0 -0.00000000000E+00 -0.00000000000E+00 -0.45593999997E+02  0.45594000000E+02  0.51100000000E-03 0.  1.
    9900012    2    1    2    0    0  0.14386386028E+01 -0.36498129075E+02  0.23440123121E+02  0.47787280202E+02  0.20000041755E+02 0.  0.
        -12    1    1    2    0    0 -0.14386386028E+01  0.36498129075E+02 -0.23440123121E+02  0.43400719798E+02  0.00000000000E+00 0.  1.
         11    1    3    3    0    0  0.60370988154E+01 -0.26588295694E+02  0.18529185912E+02  0.32965356980E+02  0.51100000000E-03 0. -1.
        -11    1    3    3    0    0 -0.69252656660E+01 -0.71147664700E+01  0.51354298416E+01  0.11178186185E+02  0.51100000000E-03 0.  1.
        -12    1    3    3    0    0  0.23268054534E+01 -0.27950669113E+01 -0.22449263202E+00  0.36437370375E+01  0.00000000000E+00 0.  1.
</event>
<event>
 7    1  0.2834226E-010  0.4778727E+02  0.7816164E-02  0.1312668E+00
        -11   -1    0    0    0    0  0.00000000000E+00  0.00000000000E+00  0.45593999997E+02  0.45594000000E+02  0.51100000000E-03 0.  1.
         11   -1    0    0    0    0 -0.00000000000E+00 -0.00000000000E+00 -0.45593999997E+02  0.45594000000E+02  0.51100000000E-03 0. -1.
    9900012    2    1    2    0    0 -0.36803889193E+02  0.29051466846E+01 -0.22817916384E+02  0.47787269072E+02  0.19999991007E+02 0.  0.
        -12    1    1    2    0    0  0.36803889193E+02 -0.29051466846E+01  0.22817916384E+02  0.43400730928E+02  0.00000000000E+00 0.  1.
         11    1    3    3    0    0 -0.17309953793E+02 -0.52135231190E+01 -0.18958235571E+02  0.26195992438E+02  0.51100000000E-03 0. -1.
        -11    1    3    3    0    0 -0.12301333599E+02  0.39347290721E+01 -0.26216060962E+01  0.13178684303E+02  0.51100000000E-03 0.  1.
         12    1    3    3    0    0 -0.71926018013E+01  0.41839407315E+01 -0.12380747172E+01  0.84125923306E+01  0.00000000000E+00 0. -1.
</event>
<event>
 7    1  0.2834226E-010  0.4778727E+02  0.7816164E-02  0.1312668E+00
        -11   -1    0    0    0    0  0.00000000000E+00  0.00000000000E+00  0.45593999997E+02  0.45594000000E+02  0.51100000000E-03 0.  1.
         11   -1    0    0    0    0 -0.00000000000E+00 -0.00000000000E+00 -0.45593999997E+02  0.45594000000E+02  0.51100000000E-03 0. -1.
    9900012    2    1    2    0    0  0.42984872749E+01  0.19859164163E+02 -0.38350486793E+02  0.47787271534E+02  0.20000002233E+02 0.  0.
        -12    1    1    2    0    0 -0.42984872749E+01 -0.19859164163E+02  0.38350486793E+02  0.43400728466E+02  0.00000000000E+00 0.  1.
         11    1    3    3    0    0 -0.33593028208E+01  0.94063687045E+01 -0.56885008362E+01  0.11494508675E+02  0.51100000000E-03 0. -1.
        -11    1    3    3    0    0  0.84483081154E+00 -0.11970341606E+01 -0.84272852997E+01  0.85536990633E+01  0.51100000000E-03 0.  1.
         12    1    3    3    0    0  0.68129592841E+01  0.11649829619E+02 -0.24234700657E+02  0.27739063796E+02  0.00000000000E+00 0. -1.
</event>
<event>
 7    1  0.2834226E-010  0.4778727E+02  0.7816164E-02  0.1312668E+00
        -11   -1    0    0    0    0  0.00000000000E+00  0.00000000000E+00  0.45593999997E+02  0.45594000000E+02  0.51100000000E-03 0.  1.
         11   -1    0    0    0    0 -0.00000000000E+00 -0.00000000000E+00 -0.45593999997E+02  0.45594000000E+02  0.51100000000E-03 0. -1.
    9900012    2    1    2    0    0 -0.26670979048E+02 -0.33317425886E+02 -0.78887096203E+01  0.47787265784E+02  0.19999976014E+02 0.  0.
        -12    1    1    2    0    0  0.26670979048E+02  0.33317425886E+02  0.78887096203E+01  0.43400734216E+02  0.00000000000E+00 0.  1.
         11    1    3    3    0    0  0.74050814486E+00 -0.17195878661E+01 -0.38255977759E+01  0.42591704998E+01  0.51100000000E-03 0.  1.
        -11    1    3    3    0    0 -0.22959625350E+02 -0.20506427690E+02 -0.61592194991E+01  0.31394170763E+02  0.51100000000E-03 0. -1.
         12    1    3    3    0    0 -0.44518618434E+01 -0.11091410330E+02  0.20961076547E+01  0.12133924521E+02  0.00000000000E+00 0. -1.
</event>
<event>
 7    1  0.2834226E-010  0.4778727E+02  0.7816164E-02  0.1312668E+00
        -11   -1    0    0    0    0  0.00000000000E+00  0.00000000000E+00  0.45593999997E+02  0.45594000000E+02  0.51100000000E-03 0.  1.
         11   -1    0    0    0    0 -0.00000000000E+00 -0.00000000000E+00 -0.45593999997E+02  0.45594000000E+02  0.51100000000E-03 0. -1.
    9900012    2    1    2    0    0 -0.87529500922E+01  0.42490246901E+02 -0.12600798408E+01  0.47787273990E+02  0.20000013429E+02 0.  0.
        -12    1    1    2    0    0  0.87529500922E+01 -0.42490246901E+02  0.12600798408E+01  0.43400726010E+02  0.00000000000E+00 0.  1.
         11    1    3    3    0    0  0.21516772726E+01  0.64375988270E+01 -0.29594237242E+01  0.74047675712E+01  0.51100000000E-03 0. -1.
        -11    1    3    3    0    0 -0.27427928673E+01  0.11294341873E+02  0.72915809705E+01  0.13720503794E+02  0.51100000000E-03 0.  1.
        -12    1    3    3    0    0 -0.81618344975E+01  0.24758306201E+02 -0.55922370870E+01  0.26662002625E+02  0.00000000000E+00 0.  1.
</event>
<event>
 7    1  0.2834226E-010  0.4778727E+02  0.7816164E-02  0.1312668E+00
        -11   -1    0    0    0    0  0.00000000000E+00  0.00000000000E+00  0.45593999997E+02  0.45594000000E+02  0.51100000000E-03 0.  1.
         11   -1    0    0    0    0 -0.00000000000E+00 -0.00000000000E+00 -0.45593999997E+02  0.45594000000E+02  0.51100000000E-03 0. -1.
    9900012    2    1    2    0    0  0.26476936439E+02 -0.15381224949E+02 -0.30757326698E+02  0.47787269710E+02  0.19999993916E+02 0.  0.
        -12    1    1    2    0    0 -0.26476936439E+02  0.15381224949E+02  0.30757326698E+02  0.43400730290E+02  0.00000000000E+00 0.  1.
         11    1    3    3    0    0 -0.24583805160E+01 -0.18906562186E+00 -0.12845464980E+01  0.27801871407E+01  0.51100000000E-03 0.  1.
        -11    1    3    3    0    0  0.18203624193E+02 -0.89811494862E+01 -0.24056916856E+02  0.31476471034E+02  0.51100000000E-03 0. -1.
        -12    1    3    3    0    0  0.10731692761E+02 -0.62110098413E+01 -0.54158633440E+01  0.13530611536E+02  0.00000000000E+00 0.  1.
</event>
<event>
 7    1  0.2834226E-010  0.4778727E+02  0.7816164E-02  0.1312668E+00
        -11   -1    0    0    0    0  0.00000000000E+00  0.00000000000E+00  0.45593999997E+02  0.45594000000E+02  0.51100000000E-03 0. -1.
         11   -1    0    0    0    0 -0.00000000000E+00 -0.00000000000E+00 -0.45593999997E+02  0.45594000000E+02  0.51100000000E-03 0.  1.
    9900012    2    1    2    0    0 -0.29075825734E+01  0.36496397355E+02  0.23306271890E+02  0.47787269986E+02  0.19999995174E+02 0.  0.
        -12    1    1    2    0    0  0.29075825734E+01 -0.36496397355E+02 -0.23306271890E+02  0.43400730014E+02  0.00000000000E+00 0.  1.
         11    1    3    3    0    0 -0.13753177586E+01  0.81677326699E+01  0.24659227092E+01  0.86419980891E+01  0.51100000000E-03 0. -1.
        -11    1    3    3    0    0 -0.75449423584E+01  0.23686010141E+02  0.19107577222E+02  0.31353671861E+02  0.51100000000E-03 0.  1.
        -12    1    3    3    0    0  0.60126775436E+01  0.46426545445E+01  0.17327719583E+01  0.77916000360E+01  0.00000000000E+00 0.  1.
</event>
<event>
 7    1  0.2834226E-010  0.4778727E+02  0.7816164E-02  0.1312668E+00
        -11   -1    0    0    0    0  0.00000000000E+00  0.00000000000E+00  0.45593999997E+02  0.45594000000E+02  0.51100000000E-03 0.  1.
         11   -1    0    0    0    0 -0.00000000000E+00 -0.00000000000E+00 -0.45593999997E+02  0.45594000000E+02  0.51100000000E-03 0. -1.
    9900012    2    1    2    0    0  0.10801175367E+02 -0.14648378678E+02 -0.39400290354E+02  0.47787271121E+02  0.20000000349E+02 0.  0.
        -12    1    1    2    0    0 -0.10801175367E+02  0.14648378678E+02  0.39400290354E+02  0.43400728879E+02  0.00000000000E+00 0.  1.
         11    1    3    3    0    0  0.80255361576E+01  0.63686709363E+00 -0.17050956478E+02  0.18856032122E+02  0.51100000000E-03 0. -1.
        -11    1    3    3    0    0 -0.35112977860E+01 -0.49756910425E+01 -0.55294689286E+01  0.82256756796E+01  0.51100000000E-03 0.  1.
         12    1    3    3    0    0  0.62869369956E+01 -0.10309554730E+02 -0.16819864948E+02  0.20705563319E+02  0.00000000000E+00 0. -1.
</event>
<event>
 7    1  0.2834226E-010  0.4778727E+02  0.7816164E-02  0.1312668E+00
        -11   -1    0    0    0    0  0.00000000000E+00  0.00000000000E+00  0.45593999997E+02  0.45594000000E+02  0.51100000000E-03 0.  1.
         11   -1    0    0    0    0 -0.00000000000E+00 -0.00000000000E+00 -0.45593999997E+02  0.45594000000E+02  0.51100000000E-03 0. -1.
    9900012    2    1    2    0    0 -0.26118131212E+01  0.10008469494E+02 -0.42150115307E+02  0.47787271322E+02  0.20000001266E+02 0.  0.
        -12    1    1    2    0    0  0.26118131212E+01 -0.10008469494E+02  0.42150115307E+02  0.43400728678E+02  0.00000000000E+00 0.  1.
         11    1    3    3    0    0 -0.75739489992E+01  0.19290789768E+01 -0.14982458057E+02  0.16898523569E+02  0.51100000000E-03 0. -1.
        -11    1    3    3    0    0  0.77367761102E+01  0.37716077928E+01 -0.21943357055E+02  0.23571034111E+02  0.51100000000E-03 0.  1.
        -12    1    3    3    0    0 -0.27746402323E+01  0.43077827249E+01 -0.52243001947E+01  0.73177136421E+01  0.00000000000E+00 0.  1.
</event>
<event>
 7    1  0.2834226E-010  0.4778727E+02  0.7816164E-02  0.1312668E+00
        -11   -1    0    0    0    0  0.00000000000E+00  0.00000000000E+00  0.45593999997E+02  0.45594000000E+02  0.51100000000E-03 0. -1.
         11   -1    0    0    0    0 -0.00000000000E+00 -0.00000000000E+00 -0.45593999997E+02  0.45594000000E+02  0.51100000000E-03 0.  1.
    9900012    2    1    2    0    0 -0.12328811159E+02 -0.10146413876E+02  0.40356832761E+02  0.47787271324E+02  0.20000001273E+02 0.  0.
        -12    1    1    2    0    0  0.12328811159E+02  0.10146413876E+02 -0.40356832761E+02  0.43400728676E+02  0.00000000000E+00 0.  1.
         11    1    3    3    0    0  0.33584644514E+01  0.15084719040E+01  0.47361013665E+01  0.59987854914E+01  0.51100000000E-03 0.  1.
        -11    1    3    3    0    0 -0.12977467971E+02 -0.38077463390E+01  0.23013830795E+02  0.26693632485E+02  0.51100000000E-03 0. -1.
        -12    1    3    3    0    0 -0.27098076401E+01 -0.78471394415E+01  0.12606900599E+02  0.15094853348E+02  0.00000000000E+00 0.  1.
</event>
<event>
 7    1  0.2834226E-010  0.4778727E+02  0.7816164E-02  0.1312668E+00
        -11   -1    0    0    0    0  0.00000000000E+00  0.00000000000E+00  0.45593999997E+02  0.45594000000E+02  0.51100000000E-03 0.  1.
         11   -1    0    0    0    0 -0.00000000000E+00 -0.00000000000E+00 -0.45593999997E+02  0.45594000000E+02  0.51100000000E-03 0. -1.
    9900012    2    1    2    0    0 -0.10325276490E+02  0.11787828979E+02 -0.40472942140E+02  0.47787270834E+02  0.19999999040E+02 0.  0.
        -12    1    1    2    0    0  0.10325276490E+02 -0.11787828979E+02  0.40472942140E+02  0.43400729166E+02  0.00000000000E+00 0.  1.
         11    1    3    3    0    0 -0.44653333870E+01  0.40735998055E+01 -0.10692808985E+01  0.61381413745E+01  0.51100000000E-03 0. -1.
        -11    1    3    3    0    0  0.19244253682E+01  0.36419744618E+01 -0.18882142511E+02  0.19326217867E+02  0.51100000000E-03 0.  1.
        -12    1    3    3    0    0 -0.77843684715E+01  0.40722547120E+01 -0.20521518731E+02  0.22322911592E+02  0.00000000000E+00 0.  1.
</event>
<event>
 7    1  0.2834226E-010  0.4778727E+02  0.7816164E-02  0.1312668E+00
        -11   -1    0    0    0    0  0.00000000000E+00  0.00000000000E+00  0.45593999997E+02  0.45594000000E+02  0.51100000000E-03 0.  1.
         11   -1    0    0    0    0 -0.00000000000E+00 -0.00000000000E+00 -0.45593999997E+02  0.45594000000E+02  0.51100000000E-03 0. -1.
    9900012    2    1    2    0    0 -0.32628128396E+02 -0.17060885178E+02 -0.22977257571E+02  0.47787274992E+02  0.20000018000E+02 0.  0.
        -12    1    1    2    0    0  0.32628128396E+02  0.17060885178E+02  0.22977257571E+02  0.43400725008E+02  0.00000000000E+00 0.  1.
         11    1    3    3    0    0 -0.26615425792E+02 -0.18408848040E+02 -0.19351906427E+02  0.37706270816E+02  0.51100000000E-03 0. -1.
        -11    1    3    3    0    0  0.20222837525E+00  0.27339482285E+01  0.24525675991E-01  0.27415271295E+01  0.51100000000E-03 0.  1.
        -12    1    3    3    0    0 -0.62149309798E+01 -0.13859853668E+01 -0.36498768196E+01  0.73394770467E+01  0.00000000000E+00 0.  1.
</event>
<event>
 7    1  0.2834226E-010  0.4778726E+02  0.7816164E-02  0.1312668E+00
        -11   -1    0    0    0    0  0.00000000000E+00  0.00000000000E+00  0.45593999997E+02  0.45594000000E+02  0.51100000000E-03 0. -1.
         11   -1    0    0    0    0 -0.00000000000E+00 -0.00000000000E+00 -0.45593999997E+02  0.45594000000E+02  0.51100000000E-03 0.  1.
    9900012    2    1    2    0    0  0.37441279931E+02  0.25576835251E+01  0.21799841472E+02  0.47787259499E+02  0.19999947358E+02 0.  0.
        -12    1    1    2    0    0 -0.37441279931E+02 -0.25576835251E+01 -0.21799841472E+02  0.43400740501E+02  0.00000000000E+00 0.  1.
         11    1    3    3    0    0  0.15550866157E+02 -0.71534140865E+01  0.10794168044E+02  0.20236472898E+02  0.51100000000E-03 0. -1.
        -11    1    3    3    0    0  0.16946356240E+02  0.58635891290E+01  0.11440826903E+02  0.21270947035E+02  0.51100000000E-03 0.  1.
         12    1    3    3    0    0  0.49440575333E+01  0.38475084826E+01 -0.43515347520E+00  0.62798395651E+01  0.00000000000E+00 0. -1.
</event>
<event>
 7    1  0.2834226E-010  0.4778727E+02  0.7816164E-02  0.1312668E+00
        -11   -1    0    0    0    0  0.00000000000E+00  0.00000000000E+00  0.45593999997E+02  0.45594000000E+02  0.51100000000E-03 0. -1.
         11   -1    0    0    0    0 -0.00000000000E+00 -0.00000000000E+00 -0.45593999997E+02  0.45594000000E+02  0.51100000000E-03 0.  1.
    9900012    2    1    2    0    0  0.19086001059E+02 -0.11859222067E+02  0.37130941608E+02  0.47787269486E+02  0.19999992895E+02 0.  0.
        -12    1    1    2    0    0 -0.19086001059E+02  0.11859222067E+02 -0.37130941608E+02  0.43400730514E+02  0.00000000000E+00 0.  1.
         11    1    3    3    0    0  0.12260772171E+02  0.15130057908E+01  0.14413700199E+02  0.18983426310E+02  0.51100000000E-03 0. -1.
        -11    1    3    3    0    0 -0.11273122955E+01 -0.45414822962E+01  0.23818096289E+01  0.52506106147E+01  0.51100000000E-03 0.  1.
         12    1    3    3    0    0  0.79525411831E+01 -0.88307455618E+01  0.20335431779E+02  0.23553232562E+02  0.00000000000E+00 0. -1.
</event>
<event>
 7    1  0.2834226E-010  0.4778727E+02  0.7816164E-02  0.1312668E+00
        -11   -1    0    0    0    0  0.00000000000E+00  0.00000000000E+00  0.45593999997E+02  0.45594000000E+02  0.51100000000E-03 0.  1.
         11   -1    0    0    0    0 -0.00000000000E+00 -0.00000000000E+00 -0.45593999997E+02  0.45594000000E+02  0.51100000000E-03 0. -1.
    9900012    2    1    2    0    0 -0.10561524019E+02 -0.21894148045E+02 -0.35954468225E+02  0.47787270817E+02  0.19999998964E+02 0.  0.
        -12    1    1    2    0    0  0.10561524019E+02  0.21894148045E+02  0.35954468225E+02  0.43400729183E+02  0.00000000000E+00 0.  1.
         11    1    3    3    0    0 -0.11465529299E+02 -0.71786426853E+01 -0.12697057519E+02  0.18552804176E+02  0.51100000000E-03 0. -1.
        -11    1    3    3    0    0 -0.60389486603E+00 -0.97805806470E+01 -0.66467837276E+01  0.11840784644E+02  0.51100000000E-03 0.  1.
         12    1    3    3    0    0  0.15079001459E+01 -0.49349247131E+01 -0.16610626979E+02  0.17393681997E+02  0.00000000000E+00 0. -1.
</event>
<event>
 7    1  0.2834226E-010  0.4778728E+02  0.7816164E-02  0.1312668E+00
        -11   -1    0    0    0    0  0.00000000000E+00  0.00000000000E+00  0.45593999997E+02  0.45594000000E+02  0.51100000000E-03 0.  1.
         11   -1    0    0    0    0 -0.00000000000E+00 -0.00000000000E+00 -0.45593999997E+02  0.45594000000E+02  0.51100000000E-03 0. -1.
    9900012    2    1    2    0    0  0.35446277029E+02  0.11655821421E+02  0.22165873150E+02  0.47787278108E+02  0.20000032207E+02 0.  0.
        -12    1    1    2    0    0 -0.35446277029E+02 -0.11655821421E+02 -0.22165873150E+02  0.43400721892E+02  0.00000000000E+00 0.  1.
         11    1    3    3    0    0  0.17337257444E+02  0.12708421060E+01  0.42611935547E+01  0.17898416302E+02  0.51100000000E-03 0. -1.
        -11    1    3    3    0    0  0.12329406857E+02  0.12390001134E+02  0.15338095233E+02  0.23254753647E+02  0.51100000000E-03 0.  1.
         12    1    3    3    0    0  0.57796127279E+01 -0.20050218193E+01  0.25665843620E+01  0.66341081592E+01  0.00000000000E+00 0. -1.
</event>
<event>
 7    1  0.2834226E-010  0.4778727E+02  0.7816164E-02  0.1312668E+00
        -11   -1    0    0    0    0  0.00000000000E+00  0.00000000000E+00  0.45593999997E+02  0.45594000000E+02  0.51100000000E-03 0.  1.
         11   -1    0    0    0    0 -0.00000000000E+00 -0.00000000000E+00 -0.45593999997E+02  0.45594000000E+02  0.51100000000E-03 0. -1.
    9900012    2    1    2    0    0  0.22351719261E+02  0.32848622560E+02 -0.17464009478E+02  0.47787274372E+02  0.20000015171E+02 0.  0.
        -12    1    1    2    0    0 -0.22351719261E+02 -0.32848622560E+02  0.17464009478E+02  0.43400725628E+02  0.00000000000E+00 0.  1.
         11    1    3    3    0    0  0.81643048664E+00  0.11466911949E+02 -0.42536400998E+01  0.12257654048E+02  0.51100000000E-03 0. -1.
        -11    1    3    3    0    0  0.14029452638E+02  0.52454249570E+01 -0.40601702802E+01  0.15518537537E+02  0.51100000000E-03 0.  1.
        -12    1    3    3    0    0  0.75058361360E+01  0.16136285653E+02 -0.91501990985E+01  0.20011082788E+02  0.00000000000E+00 0.  1.
</event>
<event>
 7    1  0.2834226E-010  0.4778727E+02  0.7816164E-02  0.1312668E+00
        -11   -1    0    0    0    0  0.00000000000E+00  0.00000000000E+00  0.45593999997E+02  0.45594000000E+02  0.51100000000E-03 0.  1.
         11   -1    0    0    0    0 -0.00000000000E+00 -0.00000000000E+00 -0.45593999997E+02  0.45594000000E+02  0.51100000000E-03 0. -1.
    9900012    2    1    2    0    0  0.21947353123E+02  0.37028314529E+02  0.55534677326E+01  0.47787269709E+02  0.19999993912E+02 0.  0.
        -12    1    1    2    0    0 -0.21947353123E+02 -0.37028314529E+02 -0.55534677326E+01  0.43400730291E+02  0.00000000000E+00 0.  1.
         11    1    3    3    0    0  0.21872259679E+01  0.74178562895E+01 -0.47481879195E+01  0.90749015502E+01  0.51100000000E-03 0. -1.
        -11    1    3    3    0    0  0.19746812057E+02  0.23384992229E+02  0.10824872796E+02  0.32464939847E+02  0.51100000000E-03 0.  1.
        -12    1    3    3    0    0  0.13315097966E-01  0.62254660096E+01 -0.52321714352E+00  0.62474283116E+01  0.00000000000E+00 0.  1.
</event>
<event>
 7    1  0.2834226E-010  0.4778728E+02  0.7816164E-02  0.1312668E+00
        -11   -1    0    0    0    0  0.00000000000E+00  0.00000000000E+00  0.45593999997E+02  0.45594000000E+02  0.51100000000E-03 0.  1.
         11   -1    0    0    0    0 -0.00000000000E+00 -0.00000000000E+00 -0.45593999997E+02  0.45594000000E+02  0.51100000000E-03 0. -1.
    9900012    2    1    2    0    0  0.12088249544E+02 -0.18470157578E+02 -0.37367771600E+02  0.47787275901E+02  0.20000022143E+02 0.  0.
        -12    1    1    2    0    0 -0.12088249544E+02  0.18470157578E+02  0.37367771600E+02  0.43400724099E+02  0.00000000000E+00 0.  1.
         11    1    3    3    0    0  0.37373153964E-01 -0.34585309244E+01 -0.26942557693E+01  0.43842727241E+01  0.51100000000E-03 0. -1.
        -11    1    3    3    0    0 -0.40848227154E+01 -0.17306955671E+01 -0.26621051626E+01  0.51737692179E+01  0.51100000000E-03 0.  1.
        -12    1    3    3    0    0  0.16135699105E+02 -0.13280931086E+02 -0.32011410668E+02  0.38229233959E+02  0.00000000000E+00 0.  1.
</event>
<event>
 7    1  0.2834226E-010  0.4778727E+02  0.7816164E-02  0.1312668E+00
        -11   -1    0    0    0    0  0.00000000000E+00  0.00000000000E+00  0.45593999997E+02  0.45594000000E+02  0.51100000000E-03 0.  1.
         11   -1    0    0    0    0 -0.00000000000E+00 -0.00000000000E+00 -0.45593999997E+02  0.45594000000E+02  0.51100000000E-03 0. -1.
    9900012    2    1    2    0    0 -0.41111014883E+02 -0.13813223495E+02 -0.16438797353E+01  0.47787273870E+02  0.20000012882E+02 0.  0.
        -12    1    1    2    0    0  0.41111014883E+02  0.13813223495E+02  0.16438797353E+01  0.43400726130E+02  0.00000000000E+00 0.  1.
         11    1    3    3    0    0 -0.19359273556E+02 -0.48742666649E+00 -0.46897033222E+01  0.19925169381E+02  0.51100000000E-03 0. -1.
        -11    1    3    3    0    0 -0.21512296187E+02 -0.10885335444E+02  0.51236994047E+01  0.24647955510E+02  0.51100000000E-03 0.  1.
        -12    1    3    3    0    0 -0.23944514096E+00 -0.24404613845E+01 -0.20778758179E+01  0.32141489790E+01  0.00000000000E+00 0.  1.
</event>
<event>
 7    1  0.2834226E-010  0.4778727E+02  0.7816164E-02  0.1312668E+00
        -11   -1    0    0    0    0  0.00000000000E+00  0.00000000000E+00  0.45593999997E+02  0.45594000000E+02  0.51100000000E-03 0.  1.
         11   -1    0    0    0    0 -0.00000000000E+00 -0.00000000000E+00 -0.45593999997E+02  0.45594000000E+02  0.51100000000E-03 0. -1.
    9900012    2    1    2    0    0  0.24323241972E+02 -0.33085522262E+02 -0.14048183481E+02  0.47787270254E+02  0.19999996396E+02 0.  0.
        -12    1    1    2    0    0 -0.24323241972E+02  0.33085522262E+02  0.14048183481E+02  0.43400729746E+02  0.00000000000E+00 0.  1.
         11    1    3    3    0    0  0.17036010900E+02 -0.20426020313E+02 -0.10799181800E+02  0.28706624689E+02  0.51100000000E-03 0. -1.
        -11    1    3    3    0    0  0.48457328276E+01 -0.81475852598E+00  0.26958990463E+01  0.56047149813E+01  0.51100000000E-03 0.  1.
        -12    1    3    3    0    0  0.24414982438E+01 -0.11844743423E+02 -0.59449007282E+01  0.13475930584E+02  0.00000000000E+00 0.  1.
</event>
<event>
 7    1  0.2834226E-010  0.4778724E+02  0.7816164E-02  0.1312668E+00
        -11   -1    0    0    0    0  0.00000000000E+00  0.00000000000E+00  0.45593999997E+02  0.45594000000E+02  0.51100000000E-03 0.  1.
         11   -1    0    0    0    0 -0.00000000000E+00 -0.00000000000E+00 -0.45593999997E+02  0.45594000000E+02  0.51100000000E-03 0. -1.
    9900012    2    1    2    0    0 -0.36099844365E+02 -0.24071100559E+02 -0.10048627288E+01  0.47787235095E+02  0.19999836090E+02 0.  0.
        -12    1    1    2    0    0  0.36099844365E+02  0.24071100559E+02  0.10048627288E+01  0.43400764905E+02  0.00000000000E+00 0.  1.
         11    1    3    3    0    0 -0.25728880407E+02 -0.76553295027E+01  0.27645659644E+00  0.26845032786E+02  0.51100000000E-03 0. -1.
        -11    1    3    3    0    0  0.11572759227E+01 -0.19765615545E+01  0.60612823328E+00  0.23692772814E+01  0.51100000000E-03 0.  1.
         12    1    3    3    0    0 -0.11528239881E+02 -0.14439209501E+02 -0.18874475585E+01  0.18572925027E+02  0.00000000000E+00 0. -1.
</event>
<event>
 7    1  0.2834226E-010  0.4778727E+02  0.7816164E-02  0.1312668E+00
        -11   -1    0    0    0    0  0.00000000000E+00  0.00000000000E+00  0.45593999997E+02  0.45594000000E+02  0.51100000000E-03 0. -1.
         11   -1    0    0    0    0 -0.00000000000E+00 -0.00000000000E+00 -0.45593999997E+02  0.45594000000E+02  0.51100000000E-03 0.  1.
    9900012    2    1    2    0    0 -0.13684569749E+02 -0.17068206683E+02  0.37483755510E+02  0.47787273558E+02  0.20000011458E+02 0.  0.
        -12    1    1    2    0    0  0.13684569749E+02  0.17068206683E+02 -0.37483755510E+02  0.43400726442E+02  0.00000000000E+00 0.  1.
         11    1    3    3    0    0  0.39803583285E+01 -0.92389363275E+01  0.10624192914E+02  0.14631290860E+02  0.51100000000E-03 0. -1.
        -11    1    3    3    0    0 -0.10559359227E+01 -0.18671838419E-01  0.19122805156E+01  0.21845288604E+01  0.51100000000E-03 0.  1.
         12    1    3    3    0    0 -0.16608992155E+02 -0.78105985174E+01  0.24947282080E+02  0.30971453837E+02  0.00000000000E+00 0. -1.
</event>
<event>
 7    1  0.2834226E-010  0.4778728E+02  0.7816164E-02  0.1312668E+00
        -11   -1    0    0    0    0  0.00000000000E+00  0.00000000000E+00  0.45593999997E+02  0.45594000000E+02  0.51100000000E-03 0. -1.
         11   -1    0    0    0    0 -0.00000000000E+00 -0.00000000000E+00 -0.45593999997E+02  0.45594000000E+02  0.51100000000E-03 0.  1.
    9900012    2    1    2    0    0 -0.31531220936E+02  0.28324021163E+02  0.93356748348E+01  0.47787275430E+02  0.20000019996E+02 0.  0.
        -12    1    1    2    0    0  0.31531220936E+02 -0.28324021163E+02 -0.93356748348E+01  0.43400724570E+02  0.00000000000E+00 0.  1.
         11    1    3    3    0    0 -0.20301207439E+02  0.11253651488E+02  0.16113316573E+00  0.23212273897E+02  0.51100000000E-03 0. -1.
        -11    1    3    3    0    0 -0.99739050610E+01  0.13155292031E+02  0.24451224577E+01  0.16688891954E+02  0.51100000000E-03 0.  1.
         12    1    3    3    0    0 -0.12561084361E+01  0.39150776448E+01  0.67294192114E+01  0.78861095789E+01  0.00000000000E+00 0. -1.
</event>
<event>
 7    1  0.2834226E-010  0.4778727E+02  0.7816164E-02  0.1312668E+00
        -11   -1    0    0    0    0  0.00000000000E+00  0.00000000000E+00  0.45593999997E+02  0.45594000000E+02  0.51100000000E-03 0.  1.
         11   -1    0    0    0    0 -0.00000000000E+00 -0.00000000000E+00 -0.45593999997E+02  0.45594000000E+02  0.51100000000E-03 0. -1.
    9900012    2    1    2    0    0  0.23019892946E+02  0.22241487504E+02 -0.29309117518E+02  0.47787267203E+02  0.19999982487E+02 0.  0.
        -12    1    1    2    0    0 -0.23019892946E+02 -0.22241487504E+02  0.29309117518E+02  0.43400732797E+02  0.00000000000E+00 0.  1.
         11    1    3    3    0    0  0.99605267889E+01  0.14934715082E+02 -0.92265026509E+01  0.20183809351E+02  0.51100000000E-03 0. -1.
        -11    1    3    3    0    0  0.32930455083E+01 -0.29325943689E+01 -0.26263780460E+01  0.51324575355E+01  0.51100000000E-03 0.  1.
        -12    1    3    3    0    0  0.97663206484E+01  0.10239366790E+02 -0.17456236821E+02  0.22471000316E+02  0.00000000000E+00 0.  1.
</event>
<event>
 7    1  0.2834226E-010  0.4778727E+02  0.7816164E-02  0.1312668E+00
        -11   -1    0    0    0    0  0.00000000000E+00  0.00000000000E+00  0.45593999997E+02  0.45594000000E+02  0.51100000000E-03 0. -1.
         11   -1    0    0    0    0 -0.00000000000E+00 -0.00000000000E+00 -0.45593999997E+02  0.45594000000E+02  0.51100000000E-03 0.  1.
    9900012    2    1    2    0    0  0.78628021950E+01 -0.36253804498E+02  0.22526896644E+02  0.47787273378E+02  0.20000010640E+02 0.  0.
        -12    1    1    2    0    0 -0.78628021950E+01  0.36253804498E+02 -0.22526896644E+02  0.43400726622E+02  0.00000000000E+00 0.  1.
         11    1    3    3    0    0  0.77370749423E+01 -0.35717527659E+02  0.19926060418E+02  0.41625136574E+02  0.51100000000E-03 0. -1.
        -11    1    3    3    0    0  0.21548818106E+01 -0.18818865387E+01  0.23724809180E+01  0.37166757364E+01  0.51100000000E-03 0.  1.
         12    1    3    3    0    0 -0.20291545579E+01  0.13456097005E+01  0.22835530764E+00  0.24454610675E+01  0.00000000000E+00 0. -1.
</event>
<event>
 7    1  0.2834226E-010  0.4778728E+02  0.7816164E-02  0.1312668E+00
        -11   -1    0    0    0    0  0.00000000000E+00  0.00000000000E+00  0.45593999997E+02  0.45594000000E+02  0.51100000000E-03 0.  1.
         11   -1    0    0    0    0 -0.00000000000E+00 -0.00000000000E+00 -0.45593999997E+02  0.45594000000E+02  0.51100000000E-03 0. -1.
    9900012    2    1    2    0    0  0.43536620928E+01  0.10288622517E+02 -0.41938196473E+02  0.47787280533E+02  0.20000043261E+02 0.  0.
        -12    1    1    2    0    0 -0.43536620928E+01 -0.10288622517E+02  0.41938196473E+02  0.43400719467E+02  0.00000000000E+00 0.  1.
         11    1    3    3    0    0 -0.78371234366E+00  0.77331286671E+01 -0.33724665272E+02  0.34608792698E+02  0.51100000000E-03 0. -1.
        -11    1    3    3    0    0  0.12486710542E+01 -0.30070547445E+01 -0.41246145747E+01  0.52549027859E+01  0.51100000000E-03 0.  1.
         12    1    3    3    0    0  0.38887033822E+01  0.55625485939E+01 -0.40889166255E+01  0.79235850488E+01  0.00000000000E+00 0. -1.
</event>
<event>
 7    1  0.2834226E-010  0.4778726E+02  0.7816164E-02  0.1312668E+00
        -11   -1    0    0    0    0  0.00000000000E+00  0.00000000000E+00  0.45593999997E+02  0.45594000000E+02  0.51100000000E-03 0.  1.
         11   -1    0    0    0    0 -0.00000000000E+00 -0.00000000000E+00 -0.45593999997E+02  0.45594000000E+02  0.51100000000E-03 0. -1.
    9900012    2    1    2    0    0 -0.23784440997E+02  0.34424337529E+02 -0.11527758690E+02  0.47787264197E+02  0.19999968779E+02 0.  0.
        -12    1    1    2    0    0  0.23784440997E+02 -0.34424337529E+02  0.11527758690E+02  0.43400735803E+02  0.00000000000E+00 0.  1.
         11    1    3    3    0    0 -0.36303291284E+01  0.54619153196E+01 -0.22045065327E+01  0.69189347340E+01  0.51100000000E-03 0. -1.
        -11    1    3    3    0    0  0.20967704931E+01  0.80774585951E+01  0.15195415251E+01  0.84823811848E+01  0.51100000000E-03 0.  1.
        -12    1    3    3    0    0 -0.22250882362E+02  0.20884963614E+02 -0.10842793682E+02  0.32385948278E+02  0.00000000000E+00 0.  1.
</event>
<event>
 7    1  0.2834226E-010  0.4778727E+02  0.7816164E-02  0.1312668E+00
        -11   -1    0    0    0    0  0.00000000000E+00  0.00000000000E+00  0.45593999997E+02  0.45594000000E+02  0.51100000000E-03 0. -1.
         11   -1    0    0    0    0 -0.00000000000E+00 -0.00000000000E+00 -0.45593999997E+02  0.45594000000E+02  0.51100000000E-03 0.  1.
    9900012    2    1    2    0    0  0.18124849250E+02 -0.18199425252E+02  0.34984194661E+02  0.47787272864E+02  0.20000008296E+02 0.  0.
        -12    1    1    2    0    0 -0.18124849250E+02  0.18199425252E+02 -0.34984194661E+02  0.43400727136E+02  0.00000000000E+00 0.  1.
         11    1    3    3    0    0  0.22031765179E+01  0.26043052732E+01  0.12557739976E+02  0.13012810084E+02  0.51100000000E-03 0. -1.
        -11    1    3    3    0    0  0.40628269196E+00 -0.14271697343E+01  0.26480656816E+01  0.30354787418E+01  0.51100000000E-03 0.  1.
         12    1    3    3    0    0  0.15515390040E+02 -0.19376560791E+02  0.19778389004E+02  0.31738984038E+02  0.00000000000E+00 0. -1.
</event>
<event>
 7    1  0.2834226E-010  0.4778727E+02  0.7816164E-02  0.1312668E+00
        -11   -1    0    0    0    0  0.00000000000E+00  0.00000000000E+00  0.45593999997E+02  0.45594000000E+02  0.51100000000E-03 0.  1.
         11   -1    0    0    0    0 -0.00000000000E+00 -0.00000000000E+00 -0.45593999997E+02  0.45594000000E+02  0.51100000000E-03 0. -1.
    9900012    2    1    2    0    0 -0.13700552938E+02  0.32599847125E+02 -0.25162825583E+02  0.47787274491E+02  0.20000015714E+02 0.  0.
        -12    1    1    2    0    0  0.13700552938E+02 -0.32599847125E+02  0.25162825583E+02  0.43400725509E+02  0.00000000000E+00 0.  1.
         11    1    3    3    0    0 -0.72188493596E+01  0.21804674808E+01 -0.28371555869E+01  0.80570265357E+01  0.51100000000E-03 0. -1.
        -11    1    3    3    0    0 -0.70153884485E+00 -0.27521685422E+00 -0.27898180427E+01  0.28898072669E+01  0.51100000000E-03 0.  1.
         12    1    3    3    0    0 -0.57801647334E+01  0.30694596498E+02 -0.19535851954E+02  0.36840440688E+02  0.00000000000E+00 0. -1.
</event>
<event>
 7    1  0.2834226E-010  0.4778727E+02  0.7816164E-02  0.1312668E+00
        -11   -1    0    0    0    0  0.00000000000E+00  0.00000000000E+00  0.45593999997E+02  0.45594000000E+02  0.51100000000E-03 0.  1.
         11   -1    0    0    0    0 -0.00000000000E+00 -0.00000000000E+00 -0.45593999997E+02  0.45594000000E+02  0.51100000000E-03 0. -1.
    9900012    2    1    2    0    0 -0.31383334470E+02 -0.28933490589E+02 -0.78461897492E+01  0.47787271277E+02  0.20000001060E+02 0.  0.
        -12    1    1    2    0    0  0.31383334470E+02  0.28933490589E+02  0.78461897492E+01  0.43400728723E+02  0.00000000000E+00 0.  1.
         11    1    3    3    0    0 -0.10500267988E+02 -0.30575149436E+01  0.21044338114E+01  0.11136995438E+02  0.51100000000E-03 0. -1.
        -11    1    3    3    0    0 -0.80810000218E+01 -0.55293696304E+01 -0.77935209728E+01  0.12514609833E+02  0.51100000000E-03 0.  1.
        -12    1    3    3    0    0 -0.12802066460E+02 -0.20346606015E+02 -0.21571025878E+01  0.24135666006E+02  0.00000000000E+00 0.  1.
</event>
<event>
 7    1  0.2834226E-010  0.4778727E+02  0.7816164E-02  0.1312668E+00
        -11   -1    0    0    0    0  0.00000000000E+00  0.00000000000E+00  0.45593999997E+02  0.45594000000E+02  0.51100000000E-03 0.  1.
         11   -1    0    0    0    0 -0.00000000000E+00 -0.00000000000E+00 -0.45593999997E+02  0.45594000000E+02  0.51100000000E-03 0. -1.
    9900012    2    1    2    0    0  0.39301183190E+02 -0.31452619886E+01 -0.18142425754E+02  0.47787270912E+02  0.19999999396E+02 0.  0.
        -12    1    1    2    0    0 -0.39301183190E+02  0.31452619886E+01  0.18142425754E+02  0.43400729088E+02  0.00000000000E+00 0.  1.
         11    1    3    3    0    0  0.24980626382E+02 -0.73775295595E+01 -0.61876699475E+01  0.26772129099E+02  0.51100000000E-03 0. -1.
        -11    1    3    3    0    0 -0.12553541468E+00 -0.15505394716E+01 -0.32594415922E+00  0.15893934847E+01  0.51100000000E-03 0.  1.
         12    1    3    3    0    0  0.14446092223E+02  0.57828070424E+01 -0.11628811647E+02  0.19425748329E+02  0.00000000000E+00 0. -1.
</event>
<event>
 7    1  0.2834226E-010  0.4778727E+02  0.7816164E-02  0.1312668E+00
        -11   -1    0    0    0    0  0.00000000000E+00  0.00000000000E+00  0.45593999997E+02  0.45594000000E+02  0.51100000000E-03 0.  1.
         11   -1    0    0    0    0 -0.00000000000E+00 -0.00000000000E+00 -0.45593999997E+02  0.45594000000E+02  0.51100000000E-03 0. -1.
    9900012    2    1    2    0    0  0.39734009446E+02  0.55256636431E+01  0.16561959179E+02  0.47787274692E+02  0.20000016632E+02 0.  0.
        -12    1    1    2    0    0 -0.39734009446E+02 -0.55256636431E+01 -0.16561959179E+02  0.43400725308E+02  0.00000000000E+00 0.  1.
         11    1    3    3    0    0  0.75620664265E+01  0.59739428898E+01  0.24914715409E+01  0.99539074232E+01  0.51100000000E-03 0. -1.
        -11    1    3    3    0    0  0.31566469589E+02  0.28011158091E+01  0.13635685711E+02  0.34499567782E+02  0.51100000000E-03 0.  1.
        -12    1    3    3    0    0  0.60547343082E+00 -0.32493950557E+01  0.43480192714E+00  0.33337994870E+01  0.00000000000E+00 0.  1.
</event>
<event>
 7    1  0.2834226E-010  0.4778727E+02  0.7816164E-02  0.1312668E+00
        -11   -1    0    0    0    0  0.00000000000E+00  0.00000000000E+00  0.45593999997E+02  0.45594000000E+02  0.51100000000E-03 0. -1.
         11   -1    0    0    0    0 -0.00000000000E+00 -0.00000000000E+00 -0.45593999997E+02  0.45594000000E+02  0.51100000000E-03 0.  1.
    9900012    2    1    2    0    0 -0.57340151176E+01 -0.15433579003E+02  0.40156553252E+02  0.47787273517E+02  0.20000011273E+02 0.  0.
        -12    1    1    2    0    0  0.57340151176E+01  0.15433579003E+02 -0.40156553252E+02  0.43400726483E+02  0.00000000000E+00 0.  1.
         11    1    3    3    0    0 -0.14867368243E+01  0.38658628142E+01  0.51469589452E+01  0.66065473833E+01  0.51100000000E-03 0. -1.
        -11    1    3    3    0    0 -0.54983070867E+00 -0.38168259616E+01  0.16041228643E+01  0.41765637376E+01  0.51100000000E-03 0.  1.
         12    1    3    3    0    0 -0.36974475846E+01 -0.15482615855E+02  0.33405471442E+02  0.37004162396E+02  0.00000000000E+00 0. -1.
</event>
<event>
 7    1  0.2834226E-010  0.4778727E+02  0.7816164E-02  0.1312668E+00
        -11   -1    0    0    0    0  0.00000000000E+00  0.00000000000E+00  0.45593999997E+02  0.45594000000E+02  0.51100000000E-03 0.  1.
         11   -1    0    0    0    0 -0.00000000000E+00 -0.00000000000E+00 -0.45593999997E+02  0.45594000000E+02  0.51100000000E-03 0. -1.
    9900012    2    1    2    0    0  0.13608053560E+02  0.41191157022E+02 -0.13164071262E+01  0.47787268828E+02  0.19999989895E+02 0.  0.
        -12    1    1    2    0    0 -0.13608053560E+02 -0.41191157022E+02  0.13164071262E+01  0.43400731172E+02  0.00000000000E+00 0.  1.
         11    1    3    3    0    0 -0.48338832007E+00  0.68611443328E+00  0.37665940003E+01  0.38589697988E+01  0.51100000000E-03 0.  1.
        -11    1    3    3    0    0  0.22992232941E+01  0.16189906985E+02 -0.42323005174E+01  0.16891177693E+02  0.51100000000E-03 0. -1.
         12    1    3    3    0    0  0.11792218586E+02  0.24315135605E+02 -0.85070060915E+00  0.27037121337E+02  0.00000000000E+00 0. -1.
</event>
<event>
 7    1  0.2834226E-010  0.4778727E+02  0.7816164E-02  0.1312668E+00
        -11   -1    0    0    0    0  0.00000000000E+00  0.00000000000E+00  0.45593999997E+02  0.45594000000E+02  0.51100000000E-03 0.  1.
         11   -1    0    0    0    0 -0.00000000000E+00 -0.00000000000E+00 -0.45593999997E+02  0.45594000000E+02  0.51100000000E-03 0. -1.
    9900012    2    1    2    0    0  0.20024350306E+02  0.33879187882E+02 -0.18298888108E+02  0.47787270943E+02  0.19999999536E+02 0.  0.
        -12    1    1    2    0    0 -0.20024350306E+02 -0.33879187882E+02  0.18298888108E+02  0.43400729057E+02  0.00000000000E+00 0.  1.
         11    1    3    3    0    0  0.90375986070E+01  0.14075083269E+02 -0.48633467687E+01  0.17419480465E+02  0.51100000000E-03 0. -1.
        -11    1    3    3    0    0  0.14069690235E+02  0.11660690104E+02 -0.10988167591E+02  0.21322938453E+02  0.51100000000E-03 0.  1.
        -12    1    3    3    0    0 -0.30829385363E+01  0.81434145090E+01 -0.24473737492E+01  0.90448520249E+01  0.00000000000E+00 0.  1.
</event>
<event>
 7    1  0.2834226E-010  0.4778728E+02  0.7816164E-02  0.1312668E+00
        -11   -1    0    0    0    0  0.00000000000E+00  0.00000000000E+00  0.45593999997E+02  0.45594000000E+02  0.51100000000E-03 0.  1.
         11   -1    0    0    0    0 -0.00000000000E+00 -0.00000000000E+00 -0.45593999997E+02  0.45594000000E+02  0.51100000000E-03 0. -1.
    9900012    2    1    2    0    0 -0.32645253934E+02 -0.61432885399E+01 -0.27931524818E+02  0.47787277918E+02  0.20000031341E+02 0.  0.
        -12    1    1    2    0    0  0.32645253934E+02  0.61432885399E+01  0.27931524818E+02  0.43400722082E+02  0.00000000000E+00 0.  1.
         11    1    3    3    0    0 -0.37881254430E+01 -0.29211417905E+01 -0.12258861634E+02  0.13159128108E+02  0.51100000000E-03 0. -1.
        -11    1    3    3    0    0 -0.25597517139E+02 -0.43278554846E+01 -0.96596829941E+01  0.27699687590E+02  0.51100000000E-03 0.  1.
        -12    1    3    3    0    0 -0.32596113522E+01  0.11057087352E+01 -0.60129801904E+01  0.69284622208E+01  0.00000000000E+00 0.  1.
</event>
<event>
 7    1  0.2834226E-010  0.4778727E+02  0.7816164E-02  0.1312668E+00
        -11   -1    0    0    0    0  0.00000000000E+00  0.00000000000E+00  0.45593999997E+02  0.45594000000E+02  0.51100000000E-03 0.  1.
         11   -1    0    0    0    0 -0.00000000000E+00 -0.00000000000E+00 -0.45593999997E+02  0.45594000000E+02  0.51100000000E-03 0. -1.
    9900012    2    1    2    0    0 -0.14165545589E+02 -0.68527223708E+01 -0.40447510234E+02  0.47787267635E+02  0.19999984453E+02 0.  0.
        -12    1    1    2    0    0  0.14165545589E+02  0.68527223708E+01  0.40447510234E+02  0.43400732365E+02  0.00000000000E+00 0.  1.
         11    1    3    3    0    0 -0.14303931649E+02 -0.23182418194E+01 -0.35286457593E+02  0.38145914532E+02  0.51100000000E-03 0. -1.
        -11    1    3    3    0    0  0.10271413734E+01 -0.61772192923E+01 -0.37337129985E+01  0.72906563904E+01  0.51100000000E-03 0.  1.
        -12    1    3    3    0    0 -0.88875531374E+00  0.16427387409E+01 -0.14273396428E+01  0.23506967126E+01  0.00000000000E+00 0.  1.
</event>
<event>
 7    1  0.2834226E-010  0.4778727E+02  0.7816164E-02  0.1312668E+00
        -11   -1    0    0    0    0  0.00000000000E+00  0.00000000000E+00  0.45593999997E+02  0.45594000000E+02  0.51100000000E-03 0. -1.
         11   -1    0    0    0    0 -0.00000000000E+00 -0.00000000000E+00 -0.45593999997E+02  0.45594000000E+02  0.51100000000E-03 0.  1.
    9900012    2    1    2    0    0 -0.29951536601E+02  0.23094131939E+02  0.21288256122E+02  0.47787270473E+02  0.19999997394E+02 0.  0.
        -12    1    1    2    0    0  0.29951536601E+02 -0.23094131939E+02 -0.21288256122E+02  0.43400729527E+02  0.00000000000E+00 0.  1.
         11    1    3    3    0    0 -0.10277734143E+02  0.72135463889E+01  0.73989508317E+01  0.14574345416E+02  0.51100000000E-03 0. -1.
        -11    1    3    3    0    0 -0.16611580978E+02  0.93002964079E+01  0.16802471093E+02  0.25392187203E+02  0.51100000000E-03 0.  1.
        -12    1    3    3    0    0 -0.30622214792E+01  0.65802891424E+01 -0.29131658030E+01  0.78207378540E+01  0.00000000000E+00 0.  1.
</event>
<event>
 7    1  0.2834226E-010  0.4778728E+02  0.7816164E-02  0.1312668E+00
        -11   -1    0    0    0    0  0.00000000000E+00  0.00000000000E+00  0.45593999997E+02  0.45594000000E+02  0.51100000000E-03 0.  1.
         11   -1    0    0    0    0 -0.00000000000E+00 -0.00000000000E+00 -0.45593999997E+02  0.45594000000E+02  0.51100000000E-03 0. -1.
    9900012    2    1    2    0    0 -0.24578509838E+02 -0.17388106752E+02 -0.31259763502E+02  0.47787283226E+02  0.20000055543E+02 0.  0.
        -12    1    1    2    0    0  0.24578509838E+02  0.17388106752E+02  0.31259763502E+02  0.43400716774E+02  0.00000000000E+00 0.  1.
         11    1    3    3    0    0 -0.21706748288E+02 -0.10827936661E+02 -0.31868346022E+02  0.40050201148E+02  0.51100000000E-03 0. -1.
        -11    1    3    3    0    0 -0.21629696618E+01 -0.26592973236E+01  0.13848825406E+01  0.36970528703E+01  0.51100000000E-03 0.  1.
         12    1    3    3    0    0 -0.70879188893E+00 -0.39008727666E+01 -0.77630002076E+00  0.40400292085E+01  0.00000000000E+00 0. -1.
</event>
<event>
 7    1  0.2834226E-010  0.4778727E+02  0.7816164E-02  0.1312668E+00
        -11   -1    0    0    0    0  0.00000000000E+00  0.00000000000E+00  0.45593999997E+02  0.45594000000E+02  0.51100000000E-03 0. -1.
         11   -1    0    0    0    0 -0.00000000000E+00 -0.00000000000E+00 -0.45593999997E+02  0.45594000000E+02  0.51100000000E-03 0.  1.
    9900012    2    1    2    0    0  0.74091464425E+01 -0.54625451590E+01  0.42413308080E+02  0.47787267830E+02  0.19999985343E+02 0.  0.
        -12    1    1    2    0    0 -0.74091464425E+01  0.54625451590E+01 -0.42413308080E+02  0.43400732170E+02  0.00000000000E+00 0.  1.
         11    1    3    3    0    0  0.68470203849E+01  0.27436562847E+01  0.31514452186E+02  0.32366186596E+02  0.51100000000E-03 0. -1.
        -11    1    3    3    0    0  0.21808283655E+01 -0.60293217404E+01  0.30179967353E+01  0.70863980670E+01  0.51100000000E-03 0.  1.
        -12    1    3    3    0    0 -0.16187023079E+01 -0.21768797033E+01  0.78808591588E+01  0.83346831665E+01  0.00000000000E+00 0.  1.
</event>
<event>
 7    1  0.2834226E-010  0.4778727E+02  0.7816164E-02  0.1312668E+00
        -11   -1    0    0    0    0  0.00000000000E+00  0.00000000000E+00  0.45593999997E+02  0.45594000000E+02  0.51100000000E-03 0.  1.
         11   -1    0    0    0    0 -0.00000000000E+00 -0.00000000000E+00 -0.45593999997E+02  0.45594000000E+02  0.51100000000E-03 0. -1.
    9900012    2    1    2    0    0 -0.40345317993E+02  0.12435501186E+02 -0.10061678920E+02  0.47787265486E+02  0.19999974656E+02 0.  0.
        -12    1    1    2    0    0  0.40345317993E+02 -0.12435501186E+02  0.10061678920E+02  0.43400734514E+02  0.00000000000E+00 0.  1.
         11    1    3    3    0    0 -0.50730887938E+01  0.23349902541E+01 -0.22635454128E-01  0.55847042913E+01  0.51100000000E-03 0. -1.
        -11    1    3    3    0    0  0.59638713793E+00  0.39593435295E+01 -0.33102043562E+01  0.51951450359E+01  0.51100000000E-03 0.  1.
        -12    1    3    3    0    0 -0.35868616337E+02  0.61411674025E+01 -0.67288391098E+01  0.37007416159E+02  0.00000000000E+00 0.  1.
</event>
<event>
 7    1  0.2834226E-010  0.4778727E+02  0.7816164E-02  0.1312668E+00
        -11   -1    0    0    0    0  0.00000000000E+00  0.00000000000E+00  0.45593999997E+02  0.45594000000E+02  0.51100000000E-03 0.  1.
         11   -1    0    0    0    0 -0.00000000000E+00 -0.00000000000E+00 -0.45593999997E+02  0.45594000000E+02  0.51100000000E-03 0. -1.
    9900012    2    1    2    0    0 -0.24980594371E+02  0.27185777483E+02 -0.22815060208E+02  0.47787267693E+02  0.19999984721E+02 0.  0.
        -12    1    1    2    0    0  0.24980594371E+02 -0.27185777483E+02  0.22815060208E+02  0.43400732307E+02  0.00000000000E+00 0.  1.
         11    1    3    3    0    0  0.14047925710E+01  0.62574685342E+01 -0.58049605978E+01  0.86502556278E+01  0.51100000000E-03 0. -1.
        -11    1    3    3    0    0 -0.26761998867E+02  0.20646397164E+02 -0.14837067196E+02  0.36913640601E+02  0.51100000000E-03 0.  1.
        -12    1    3    3    0    0  0.37661192509E+00  0.28191178496E+00 -0.21730324137E+01  0.22233714641E+01  0.00000000000E+00 0.  1.
</event>
<event>
 7    1  0.2834226E-010  0.4778727E+02  0.7816164E-02  0.1312668E+00
        -11   -1    0    0    0    0  0.00000000000E+00  0.00000000000E+00  0.45593999997E+02  0.45594000000E+02  0.51100000000E-03 0.  1.
         11   -1    0    0    0    0 -0.00000000000E+00 -0.00000000000E+00 -0.45593999997E+02  0.45594000000E+02  0.51100000000E-03 0. -1.
    9900012    2    1    2    0    0  0.28443616120E+01 -0.99362956628E+01 -0.42152137545E+02  0.47787273461E+02  0.20000011018E+02 0.  0.
        -12    1    1    2    0    0 -0.28443616120E+01  0.99362956628E+01  0.42152137545E+02  0.43400726539E+02  0.00000000000E+00 0.  1.
         11    1    3    3    0    0 -0.77599221910E+00  0.88276304933E+00 -0.28331687840E+02  0.28356057036E+02  0.51100000000E-03 0. -1.
        -11    1    3    3    0    0  0.33237233885E+01 -0.11466799150E+02 -0.10084415677E+02  0.15627861649E+02  0.51100000000E-03 0.  1.
        -12    1    3    3    0    0  0.29663044259E+00  0.64774043738E+00 -0.37360340283E+01  0.38033547763E+01  0.00000000000E+00 0.  1.
</event>
<event>
 7    1  0.2834226E-010  0.4778727E+02  0.7816164E-02  0.1312668E+00
        -11   -1    0    0    0    0  0.00000000000E+00  0.00000000000E+00  0.45593999997E+02  0.45594000000E+02  0.51100000000E-03 0.  1.
         11   -1    0    0    0    0 -0.00000000000E+00 -0.00000000000E+00 -0.45593999997E+02  0.45594000000E+02  0.51100000000E-03 0. -1.
    9900012    2    1    2    0    0  0.22972042040E+02 -0.10036361624E+02 -0.35428514879E+02  0.47787274930E+02  0.20000017714E+02 0.  0.
        -12    1    1    2    0    0 -0.22972042040E+02  0.10036361624E+02  0.35428514879E+02  0.43400725070E+02  0.00000000000E+00 0.  1.
         11    1    3    3    0    0  0.10137199796E+02  0.30421044473E+01 -0.91361572023E+01  0.13981651829E+02  0.51100000000E-03 0.  1.
        -11    1    3    3    0    0  0.14733571184E+02 -0.11776715463E+02 -0.24298219570E+02  0.30759919074E+02  0.51100000000E-03 0. -1.
         12    1    3    3    0    0 -0.18987289393E+01 -0.13017506086E+01 -0.19941381057E+01  0.30457040264E+01  0.00000000000E+00 0. -1.
</event>
<event>
 7    1  0.2834226E-010  0.4778727E+02  0.7816164E-02  0.1312668E+00
        -11   -1    0    0    0    0  0.00000000000E+00  0.00000000000E+00  0.45593999997E+02  0.45594000000E+02  0.51100000000E-03 0.  1.
         11   -1    0    0    0    0 -0.00000000000E+00 -0.00000000000E+00 -0.45593999997E+02  0.45594000000E+02  0.51100000000E-03 0. -1.
    9900012    2    1    2    0    0 -0.30852662472E+02 -0.92419430521E+01 -0.29091633097E+02  0.47787269485E+02  0.19999992891E+02 0.  0.
        -12    1    1    2    0    0  0.30852662472E+02  0.92419430521E+01  0.29091633097E+02  0.43400730515E+02  0.00000000000E+00 0.  1.
         11    1    3    3    0    0 -0.96647663535E+01  0.11190181570E+01 -0.18119181980E+02  0.20566104789E+02  0.51100000000E-03 0. -1.
        -11    1    3    3    0    0 -0.15234188218E+02 -0.37387499491E+01 -0.48665188691E+01  0.16423816488E+02  0.51100000000E-03 0.  1.
        -12    1    3    3    0    0 -0.59537079001E+01 -0.66222112600E+01 -0.61059322479E+01  0.10797348209E+02  0.00000000000E+00 0.  1.
</event>
<event>
 7    1  0.2834226E-010  0.4778727E+02  0.7816164E-02  0.1312668E+00
        -11   -1    0    0    0    0  0.00000000000E+00  0.00000000000E+00  0.45593999997E+02  0.45594000000E+02  0.51100000000E-03 0.  1.
         11   -1    0    0    0    0 -0.00000000000E+00 -0.00000000000E+00 -0.45593999997E+02  0.45594000000E+02  0.51100000000E-03 0. -1.
    9900012    2    1    2    0    0 -0.14267305581E+02  0.20741130840E+02 -0.35353540091E+02  0.47787270582E+02  0.19999997892E+02 0.  0.
        -12    1    1    2    0    0  0.14267305581E+02 -0.20741130840E+02  0.35353540091E+02  0.43400729418E+02  0.00000000000E+00 0.  1.
         11    1    3    3    0    0 -0.17947177716E+01  0.39342245906E+01 -0.64993901009E+01  0.78064849295E+01  0.51100000000E-03 0. -1.
        -11    1    3    3    0    0 -0.15178478692E+02  0.58114356642E+01 -0.15330144429E+02  0.22342164809E+02  0.51100000000E-03 0.  1.
        -12    1    3    3    0    0  0.27058908825E+01  0.10995470586E+02 -0.13524005561E+02  0.17638620844E+02  0.00000000000E+00 0.  1.
</event>
<event>
 7    1  0.2834226E-010  0.4778727E+02  0.7816164E-02  0.1312668E+00
        -11   -1    0    0    0    0  0.00000000000E+00  0.00000000000E+00  0.45593999997E+02  0.45594000000E+02  0.51100000000E-03 0.  1.
         11   -1    0    0    0    0 -0.00000000000E+00 -0.00000000000E+00 -0.45593999997E+02  0.45594000000E+02  0.51100000000E-03 0. -1.
    9900012    2    1    2    0    0 -0.72756015510E+01 -0.34311943581E+02 -0.25561295845E+02  0.47787266187E+02  0.19999977855E+02 0.  0.
        -12    1    1    2    0    0  0.72756015510E+01  0.34311943581E+02  0.25561295845E+02  0.43400733813E+02  0.00000000000E+00 0.  1.
         11    1    3    3    0    0 -0.10797224070E+02 -0.19302653318E+02 -0.22591189615E+02  0.31615412717E+02  0.51100000000E-03 0. -1.
        -11    1    3    3    0    0  0.31789213355E+00 -0.93600492867E+01 -0.12112183562E+01  0.94434436635E+01  0.51100000000E-03 0.  1.
         12    1    3    3    0    0  0.32037303859E+01 -0.56492409754E+01 -0.17588878734E+01  0.67284098073E+01  0.00000000000E+00 0. -1.
</event>
<event>
 7    1  0.2834226E-010  0.4778727E+02  0.7816164E-02  0.1312668E+00
        -11   -1    0    0    0    0  0.00000000000E+00  0.00000000000E+00  0.45593999997E+02  0.45594000000E+02  0.51100000000E-03 0.  1.
         11   -1    0    0    0    0 -0.00000000000E+00 -0.00000000000E+00 -0.45593999997E+02  0.45594000000E+02  0.51100000000E-03 0. -1.
    9900012    2    1    2    0    0 -0.22893728645E+02 -0.20948676982E+02 -0.30342272525E+02  0.47787269815E+02  0.19999994396E+02 0.  0.
        -12    1    1    2    0    0  0.22893728645E+02  0.20948676982E+02  0.30342272525E+02  0.43400730185E+02  0.00000000000E+00 0.  1.
         11    1    3    3    0    0 -0.85666657152E+01 -0.11041389112E+00 -0.15899319986E+02  0.18060684621E+02  0.51100000000E-03 0. -1.
        -11    1    3    3    0    0 -0.50861631514E+01 -0.84850873141E+01 -0.89805229019E+01  0.13360971304E+02  0.51100000000E-03 0.  1.
         12    1    3    3    0    0 -0.92408997783E+01 -0.12353175776E+02 -0.54624296380E+01  0.16365613891E+02  0.00000000000E+00 0. -1.
</event>
<event>
 7    1  0.2834226E-010  0.4778728E+02  0.7816164E-02  0.1312668E+00
        -11   -1    0    0    0    0  0.00000000000E+00  0.00000000000E+00  0.45593999997E+02  0.45594000000E+02  0.51100000000E-03 0.  1.
         11   -1    0    0    0    0 -0.00000000000E+00 -0.00000000000E+00 -0.45593999997E+02  0.45594000000E+02  0.51100000000E-03 0. -1.
    9900012    2    1    2    0    0  0.23642600080E+02 -0.34502420851E+02 -0.11585910349E+02  0.47787275332E+02  0.20000019547E+02 0.  0.
        -12    1    1    2    0    0 -0.23642600080E+02  0.34502420851E+02  0.11585910349E+02  0.43400724668E+02  0.00000000000E+00 0.  1.
         11    1    3    3    0    0 -0.98042976585E+00 -0.67818527123E+01 -0.73625295326E+01  0.10057912811E+02  0.51100000000E-03 0. -1.
        -11    1    3    3    0    0  0.15756763414E+02 -0.21323556347E+02 -0.38339337892E+01  0.26789339244E+02  0.51100000000E-03 0.  1.
         12    1    3    3    0    0  0.88662664322E+01 -0.63970117919E+01 -0.38944702685E+00  0.10940023277E+02  0.00000000000E+00 0. -1.
</event>
<event>
 7    1  0.2834226E-010  0.4778727E+02  0.7816164E-02  0.1312668E+00
        -11   -1    0    0    0    0  0.00000000000E+00  0.00000000000E+00  0.45593999997E+02  0.45594000000E+02  0.51100000000E-03 0.  1.
         11   -1    0    0    0    0 -0.00000000000E+00 -0.00000000000E+00 -0.45593999997E+02  0.45594000000E+02  0.51100000000E-03 0. -1.
    9900012    2    1    2    0    0  0.15451928678E+02  0.25599103780E+02 -0.31457067327E+02  0.47787270755E+02  0.19999998679E+02 0.  0.
        -12    1    1    2    0    0 -0.15451928678E+02 -0.25599103780E+02  0.31457067327E+02  0.43400729245E+02  0.00000000000E+00 0.  1.
         11    1    3    3    0    0  0.29104979631E+01  0.18983471560E+02 -0.20257006686E+02  0.27913966236E+02  0.51100000000E-03 0. -1.
        -11    1    3    3    0    0  0.76153324961E+01  0.14553889312E+01 -0.16063588629E+01  0.79178175670E+01  0.51100000000E-03 0.  1.
        -12    1    3    3    0    0  0.49260982189E+01  0.51602432890E+01 -0.95937017775E+01  0.11955486952E+02  0.00000000000E+00 0.  1.
</event>
<event>
 7    1  0.2834226E-010  0.4778727E+02  0.7816164E-02  0.1312668E+00
        -11   -1    0    0    0    0  0.00000000000E+00  0.00000000000E+00  0.45593999997E+02  0.45594000000E+02  0.51100000000E-03 0. -1.
         11   -1    0    0    0    0 -0.00000000000E+00 -0.00000000000E+00 -0.45593999997E+02  0.45594000000E+02  0.51100000000E-03 0.  1.
    9900012    2    1    2    0    0  0.27138197813E+02 -0.33839270096E+02  0.14301978870E+01  0.47787269048E+02  0.19999990897E+02 0.  0.
        -12    1    1    2    0    0 -0.27138197813E+02  0.33839270096E+02 -0.14301978870E+01  0.43400730952E+02  0.00000000000E+00 0.  1.
         11    1    3    3    0    0  0.11666425426E+02 -0.21990031224E+02  0.14774560095E+01  0.24936917050E+02  0.51100000000E-03 0. -1.
        -11    1    3    3    0    0  0.12319723505E+02 -0.47948249416E+01  0.44029267766E+01  0.13933832851E+02  0.51100000000E-03 0.  1.
        -12    1    3    3    0    0  0.31520488826E+01 -0.70544139310E+01 -0.44501848990E+01  0.89165191473E+01  0.00000000000E+00 0.  1.
</event>
<event>
 7    1  0.2834226E-010  0.4778727E+02  0.7816164E-02  0.1312668E+00
        -11   -1    0    0    0    0  0.00000000000E+00  0.00000000000E+00  0.45593999997E+02  0.45594000000E+02  0.51100000000E-03 0.  1.
         11   -1    0    0    0    0 -0.00000000000E+00 -0.00000000000E+00 -0.45593999997E+02  0.45594000000E+02  0.51100000000E-03 0. -1.
    9900012    2    1    2    0    0 -0.89189186777E+01  0.41146142303E+02 -0.10539026660E+02  0.47787271668E+02  0.20000002843E+02 0.  0.
        -12    1    1    2    0    0  0.89189186777E+01 -0.41146142303E+02  0.10539026660E+02  0.43400728332E+02  0.00000000000E+00 0.  1.
         11    1    3    3    0    0 -0.16696854335E+01  0.16857554587E+02 -0.46175441168E+01  0.17558095284E+02  0.51100000000E-03 0. -1.
        -11    1    3    3    0    0 -0.11382851480E+02  0.22184235025E+02 -0.42210076706E+01  0.25288861134E+02  0.51100000000E-03 0.  1.
        -12    1    3    3    0    0  0.41336182357E+01  0.21043526918E+01 -0.17004748723E+01  0.49403152492E+01  0.00000000000E+00 0.  1.
</event>
<event>
 7    1  0.2834226E-010  0.4778727E+02  0.7816164E-02  0.1312668E+00
        -11   -1    0    0    0    0  0.00000000000E+00  0.00000000000E+00  0.45593999997E+02  0.45594000000E+02  0.51100000000E-03 0. -1.
         11   -1    0    0    0    0 -0.00000000000E+00 -0.00000000000E+00 -0.45593999997E+02  0.45594000000E+02  0.51100000000E-03 0.  1.
    9900012    2    1    2    0    0 -0.97959903745E+01  0.35484505523E+02  0.22989386195E+02  0.47787269163E+02  0.19999991420E+02 0.  0.
        -12    1    1    2    0    0  0.97959903745E+01 -0.35484505523E+02 -0.22989386195E+02  0.43400730837E+02  0.00000000000E+00 0.  1.
         11    1    3    3    0    0 -0.79689007366E+01  0.16358049983E+02  0.12954865747E+01  0.18241915029E+02  0.51100000000E-03 0. -1.
        -11    1    3    3    0    0  0.19643258914E+00  0.38601399603E+01  0.82191734996E+01  0.90826251466E+01  0.51100000000E-03 0.  1.
         12    1    3    3    0    0 -0.20235222270E+01  0.15266315579E+02  0.13474726121E+02  0.20462728987E+02  0.00000000000E+00 0. -1.
</event>
<event>
 7    1  0.2834226E-010  0.4778724E+02  0.7816164E-02  0.1312668E+00
        -11   -1    0    0    0    0  0.00000000000E+00  0.00000000000E+00  0.45593999997E+02  0.45594000000E+02  0.51100000000E-03 0. -1.
         11   -1    0    0    0    0 -0.00000000000E+00 -0.00000000000E+00 -0.45593999997E+02  0.45594000000E+02  0.51100000000E-03 0.  1.
    9900012    2    1    2    0    0 -0.49509910145E+01  0.42909958758E+02 -0.42247936364E+01  0.47787242473E+02  0.19999869733E+02 0.  0.
        -12    1    1    2    0    0  0.49509910145E+01 -0.42909958758E+02  0.42247936364E+01  0.43400757527E+02  0.00000000000E+00 0.  1.
         11    1    3    3    0    0  0.40226738003E+01  0.20609532971E+02  0.56150808227E+01  0.21736234418E+02  0.51100000000E-03 0. -1.
        -11    1    3    3    0    0 -0.71942659786E+01  0.16156730447E+02 -0.65653513938E+01  0.18865344971E+02  0.51100000000E-03 0.  1.
         12    1    3    3    0    0 -0.17793988362E+01  0.61436953399E+01 -0.32745230652E+01  0.71856630837E+01  0.00000000000E+00 0. -1.
</event>
<event>
 7    1  0.2834226E-010  0.4778727E+02  0.7816164E-02  0.1312668E+00
        -11   -1    0    0    0    0  0.00000000000E+00  0.00000000000E+00  0.45593999997E+02  0.45594000000E+02  0.51100000000E-03 0.  1.
         11   -1    0    0    0    0 -0.00000000000E+00 -0.00000000000E+00 -0.45593999997E+02  0.45594000000E+02  0.51100000000E-03 0. -1.
    9900012    2    1    2    0    0 -0.16641555694E+02 -0.25403964257E+02 -0.31005163931E+02  0.47787274589E+02  0.20000016160E+02 0.  0.
        -12    1    1    2    0    0  0.16641555694E+02  0.25403964257E+02  0.31005163931E+02  0.43400725411E+02  0.00000000000E+00 0.  1.
         11    1    3    3    0    0 -0.11206120961E+02 -0.10764416082E+02 -0.12204064266E+02  0.19758263726E+02  0.51100000000E-03 0. -1.
        -11    1    3    3    0    0  0.24260801161E+01 -0.83154167990E+01 -0.14853519092E+02  0.17194739049E+02  0.51100000000E-03 0.  1.
        -12    1    3    3    0    0 -0.78615148483E+01 -0.63241313760E+01 -0.39475805724E+01  0.10834271814E+02  0.00000000000E+00 0.  1.
</event>
<event>
 7    1  0.2834226E-010  0.4778728E+02  0.7816164E-02  0.1312668E+00
        -11   -1    0    0    0    0  0.00000000000E+00  0.00000000000E+00  0.45593999997E+02  0.45594000000E+02  0.51100000000E-03 0.  1.
         11   -1    0    0    0    0 -0.00000000000E+00 -0.00000000000E+00 -0.45593999997E+02  0.45594000000E+02  0.51100000000E-03 0. -1.
    9900012    2    1    2    0    0  0.52315016085E+01 -0.42603061217E+02 -0.64212835056E+01  0.47787282080E+02  0.20000050316E+02 0.  0.
        -12    1    1    2    0    0 -0.52315016085E+01  0.42603061217E+02  0.64212835056E+01  0.43400717920E+02  0.00000000000E+00 0.  1.
         11    1    3    3    0    0  0.67543124295E+01 -0.33749492484E+02 -0.90028644662E+01  0.35576685458E+02  0.51100000000E-03 0. -1.
        -11    1    3    3    0    0 -0.15765731181E+01 -0.32012854444E+01  0.49330847237E+01  0.60884428588E+01  0.51100000000E-03 0.  1.
        -12    1    3    3    0    0  0.53762297033E-01 -0.56522832880E+01 -0.23515037630E+01  0.61221537631E+01  0.00000000000E+00 0.  1.
</event>
<event>
 7    1  0.2834226E-010  0.4778727E+02  0.7816164E-02  0.1312668E+00
        -11   -1    0    0    0    0  0.00000000000E+00  0.00000000000E+00  0.45593999997E+02  0.45594000000E+02  0.51100000000E-03 0. -1.
         11   -1    0    0    0    0 -0.00000000000E+00 -0.00000000000E+00 -0.45593999997E+02  0.45594000000E+02  0.51100000000E-03 0.  1.
    9900012    2    1    2    0    0 -0.24126799541E+02  0.21807217482E+02  0.28739621371E+02  0.47787273889E+02  0.20000012970E+02 0.  0.
        -12    1    1    2    0    0  0.24126799541E+02 -0.21807217482E+02 -0.28739621371E+02  0.43400726111E+02  0.00000000000E+00 0.  1.
         11    1    3    3    0    0 -0.22832649038E+02  0.18822051525E+02  0.22936095933E+02  0.37438803168E+02  0.51100000000E-03 0. -1.
        -11    1    3    3    0    0  0.73019096049E+00  0.37722749092E+01 -0.31566835168E+00  0.38552410558E+01  0.51100000000E-03 0.  1.
        -12    1    3    3    0    0 -0.20243414644E+01 -0.78710895239E+00  0.61191937888E+01  0.64932296657E+01  0.00000000000E+00 0.  1.
</event>
<event>
 7    1  0.2834226E-010  0.4778728E+02  0.7816164E-02  0.1312668E+00
        -11   -1    0    0    0    0  0.00000000000E+00  0.00000000000E+00  0.45593999997E+02  0.45594000000E+02  0.51100000000E-03 0.  1.
         11   -1    0    0    0    0 -0.00000000000E+00 -0.00000000000E+00 -0.45593999997E+02  0.45594000000E+02  0.51100000000E-03 0. -1.
    9900012    2    1    2    0    0  0.32270789931E+02  0.51857741052E+01 -0.28553918679E+02  0.47787281022E+02  0.20000045493E+02 0.  0.
        -12    1    1    2    0    0 -0.32270789931E+02 -0.51857741052E+01  0.28553918679E+02  0.43400718978E+02  0.00000000000E+00 0.  1.
         11    1    3    3    0    0  0.25083726428E+02 -0.19476640848E+01 -0.25649279014E+02  0.35928710541E+02  0.51100000000E-03 0. -1.
        -11    1    3    3    0    0  0.79018230084E+01  0.69518898106E+01 -0.32895230648E+01  0.11026719415E+02  0.51100000000E-03 0.  1.
         12    1    3    3    0    0 -0.71475950576E+00  0.18154837938E+00  0.38488340020E+00  0.83185106653E+00  0.00000000000E+00 0. -1.
</event>
<event>
 7    1  0.2834226E-010  0.4778727E+02  0.7816164E-02  0.1312668E+00
        -11   -1    0    0    0    0  0.00000000000E+00  0.00000000000E+00  0.45593999997E+02  0.45594000000E+02  0.51100000000E-03 0. -1.
         11   -1    0    0    0    0 -0.00000000000E+00 -0.00000000000E+00 -0.45593999997E+02  0.45594000000E+02  0.51100000000E-03 0.  1.
    9900012    2    1    2    0    0  0.21185398118E+02  0.21697064530E+02  0.31048990249E+02  0.47787268461E+02  0.19999988222E+02 0.  0.
        -12    1    1    2    0    0 -0.21185398118E+02 -0.21697064530E+02 -0.31048990249E+02  0.43400731539E+02  0.00000000000E+00 0.  1.
         11    1    3    3    0    0  0.18692984061E+01  0.90666317177E+01  0.14360677881E+02  0.17085875942E+02  0.51100000000E-03 0. -1.
        -11    1    3    3    0    0  0.13692685597E+02  0.13985694467E+02  0.10425962021E+02  0.22176338131E+02  0.51100000000E-03 0.  1.
        -12    1    3    3    0    0  0.56234141147E+01 -0.13552616544E+01  0.62623503466E+01  0.85250543881E+01  0.00000000000E+00 0.  1.
</event>
<event>
 7    1  0.2834226E-010  0.4778727E+02  0.7816164E-02  0.1312668E+00
        -11   -1    0    0    0    0  0.00000000000E+00  0.00000000000E+00  0.45593999997E+02  0.45594000000E+02  0.51100000000E-03 0.  1.
         11   -1    0    0    0    0 -0.00000000000E+00 -0.00000000000E+00 -0.45593999997E+02  0.45594000000E+02  0.51100000000E-03 0. -1.
    9900012    2    1    2    0    0  0.34025152194E+02 -0.57741884535E+01 -0.26316744444E+02  0.47787271063E+02  0.20000000085E+02 0.  0.
        -12    1    1    2    0    0 -0.34025152194E+02  0.57741884535E+01  0.26316744444E+02  0.43400728937E+02  0.00000000000E+00 0.  1.
         11    1    3    3    0    0  0.20136591190E+02 -0.63687217210E+01 -0.22107244066E+02  0.30574060273E+02  0.51100000000E-03 0. -1.
        -11    1    3    3    0    0  0.14039913148E+02 -0.14426790643E+01 -0.20869412277E+01  0.14267298554E+02  0.51100000000E-03 0.  1.
        -12    1    3    3    0    0 -0.15135214364E+00  0.20372123317E+01 -0.21225591501E+01  0.29459122359E+01  0.00000000000E+00 0.  1.
</event>
<event>
 7    1  0.2834226E-010  0.4778728E+02  0.7816164E-02  0.1312668E+00
        -11   -1    0    0    0    0  0.00000000000E+00  0.00000000000E+00  0.45593999997E+02  0.45594000000E+02  0.51100000000E-03 0.  1.
         11   -1    0    0    0    0 -0.00000000000E+00 -0.00000000000E+00 -0.45593999997E+02  0.45594000000E+02  0.51100000000E-03 0. -1.
    9900012    2    1    2    0    0 -0.32138654310E+02 -0.17228010304E+02 -0.23535618324E+02  0.47787276852E+02  0.20000026479E+02 0.  0.
        -12    1    1    2    0    0  0.32138654310E+02  0.17228010304E+02  0.23535618324E+02  0.43400723148E+02  0.00000000000E+00 0.  1.
         11    1    3    3    0    0 -0.16390759362E+02 -0.89981117152E+01 -0.19202846586E+02  0.26802468621E+02  0.51100000000E-03 0. -1.
        -11    1    3    3    0    0  0.47051632593E+00  0.89901146987E+00  0.11973259364E+01  0.15694575162E+01  0.51100000000E-03 0.  1.
         12    1    3    3    0    0 -0.16218411274E+02 -0.91289100585E+01 -0.55300976744E+01  0.19415350715E+02  0.00000000000E+00 0. -1.
</event>
<event>
 7    1  0.2834226E-010  0.4778727E+02  0.7816164E-02  0.1312668E+00
        -11   -1    0    0    0    0  0.00000000000E+00  0.00000000000E+00  0.45593999997E+02  0.45594000000E+02  0.51100000000E-03 0.  1.
         11   -1    0    0    0    0 -0.00000000000E+00 -0.00000000000E+00 -0.45593999997E+02  0.45594000000E+02  0.51100000000E-03 0. -1.
    9900012    2    1    2    0    0 -0.34021723160E+02 -0.17606163260E+02  0.20400207178E+02  0.47787273227E+02  0.20000009951E+02 0.  0.
        -12    1    1    2    0    0  0.34021723160E+02  0.17606163260E+02 -0.20400207178E+02  0.43400726773E+02  0.00000000000E+00 0.  1.
         11    1    3    3    0    0 -0.28309439821E+02 -0.14736825080E+02  0.19078226250E+02  0.37183021845E+02  0.51100000000E-03 0. -1.
        -11    1    3    3    0    0  0.70343504798E-02 -0.40603626601E+01 -0.12104647492E+01  0.42369587659E+01  0.51100000000E-03 0.  1.
        -12    1    3    3    0    0 -0.57193176896E+01  0.11910244804E+01  0.25324456768E+01  0.63672926156E+01  0.00000000000E+00 0.  1.
</event>
<event>
 7    1  0.2834226E-010  0.4778728E+02  0.7816164E-02  0.1312668E+00
        -11   -1    0    0    0    0  0.00000000000E+00  0.00000000000E+00  0.45593999997E+02  0.45594000000E+02  0.51100000000E-03 0.  1.
         11   -1    0    0    0    0 -0.00000000000E+00 -0.00000000000E+00 -0.45593999997E+02  0.45594000000E+02  0.51100000000E-03 0. -1.
    9900012    2    1    2    0    0 -0.37062454994E+02 -0.20966089820E+02 -0.83916394049E+01  0.47787284517E+02  0.20000061429E+02 0.  0.
        -12    1    1    2    0    0  0.37062454994E+02  0.20966089820E+02  0.83916394049E+01  0.43400715483E+02  0.00000000000E+00 0.  1.
         11    1    3    3    0    0 -0.77576688558E+01 -0.10880245022E+02  0.13853598066E+01  0.13434298637E+02  0.51100000000E-03 0. -1.
        -11    1    3    3    0    0 -0.13958676496E+02  0.91514889227E+00 -0.31232956762E+01  0.14333077937E+02  0.51100000000E-03 0.  1.
         12    1    3    3    0    0 -0.15346109642E+02 -0.11000993690E+02 -0.66537035353E+01  0.20019907943E+02  0.00000000000E+00 0. -1.
</event>
<event>
 7    1  0.2834226E-010  0.4778727E+02  0.7816164E-02  0.1312668E+00
        -11   -1    0    0    0    0  0.00000000000E+00  0.00000000000E+00  0.45593999997E+02  0.45594000000E+02  0.51100000000E-03 0. -1.
         11   -1    0    0    0    0 -0.00000000000E+00 -0.00000000000E+00 -0.45593999997E+02  0.45594000000E+02  0.51100000000E-03 0.  1.
    9900012    2    1    2    0    0 -0.19582850623E+02 -0.36974690980E+02  0.11532891273E+02  0.47787269676E+02  0.19999993759E+02 0.  0.
        -12    1    1    2    0    0  0.19582850623E+02  0.36974690980E+02 -0.11532891273E+02  0.43400730324E+02  0.00000000000E+00 0.  1.
         11    1    3    3    0    0 -0.15374064430E+02 -0.33386334840E+02  0.14982164795E+02  0.39692247018E+02  0.51100000000E-03 0. -1.
        -11    1    3    3    0    0 -0.49506729150E+01 -0.39839892356E+01 -0.34962277077E+01  0.72529263740E+01  0.51100000000E-03 0.  1.
         12    1    3    3    0    0  0.74188672183E+00  0.39563309604E+00  0.46954185509E-01  0.84209628324E+00  0.00000000000E+00 0. -1.
</event>
<event>
 7    1  0.2834226E-010  0.4778727E+02  0.7816164E-02  0.1312668E+00
        -11   -1    0    0    0    0  0.00000000000E+00  0.00000000000E+00  0.45593999997E+02  0.45594000000E+02  0.51100000000E-03 0.  1.
         11   -1    0    0    0    0 -0.00000000000E+00 -0.00000000000E+00 -0.45593999997E+02  0.45594000000E+02  0.51100000000E-03 0. -1.
    9900012    2    1    2    0    0 -0.32928746378E+02  0.14119619551E+02 -0.24494024659E+02  0.47787271455E+02  0.20000001870E+02 0.  0.
        -12    1    1    2    0    0  0.32928746378E+02 -0.14119619551E+02  0.24494024659E+02  0.43400728545E+02  0.00000000000E+00 0.  1.
         11    1    3    3    0    0 -0.66890485575E+01  0.31343611406E+01 -0.43551485914E+01  0.85752498435E+01  0.51100000000E-03 0. -1.
        -11    1    3    3    0    0 -0.28234674257E+02  0.12225785109E+02 -0.16588799763E+02  0.34955041550E+02  0.51100000000E-03 0.  1.
        -12    1    3    3    0    0  0.19949764368E+01 -0.12405266982E+01 -0.35500763045E+01  0.42569800610E+01  0.00000000000E+00 0.  1.
</event>
<event>
 7    1  0.2834226E-010  0.4778727E+02  0.7816164E-02  0.1312668E+00
        -11   -1    0    0    0    0  0.00000000000E+00  0.00000000000E+00  0.45593999997E+02  0.45594000000E+02  0.51100000000E-03 0. -1.
         11   -1    0    0    0    0 -0.00000000000E+00 -0.00000000000E+00 -0.45593999997E+02  0.45594000000E+02  0.51100000000E-03 0.  1.
    9900012    2    1    2    0    0  0.29455333162E+02 -0.16466581353E+02  0.27292089611E+02  0.47787272951E+02  0.20000008691E+02 0.  0.
        -12    1    1    2    0    0 -0.29455333162E+02  0.16466581353E+02 -0.27292089611E+02  0.43400727049E+02  0.00000000000E+00 0.  1.
         11    1    3    3    0    0  0.16800347494E+02 -0.11500062455E+02  0.15517176527E+02  0.25598552303E+02  0.51100000000E-03 0. -1.
        -11    1    3    3    0    0 -0.77904047404E+00 -0.34957604894E+00 -0.21397772273E+01  0.23038564013E+01  0.51100000000E-03 0.  1.
        -12    1    3    3    0    0  0.13434026142E+02 -0.46169428490E+01  0.13914690311E+02  0.19884864246E+02  0.00000000000E+00 0.  1.
</event>
<event>
 7    1  0.2834226E-010  0.4778727E+02  0.7816164E-02  0.1312668E+00
        -11   -1    0    0    0    0  0.00000000000E+00  0.00000000000E+00  0.45593999997E+02  0.45594000000E+02  0.51100000000E-03 0.  1.
         11   -1    0    0    0    0 -0.00000000000E+00 -0.00000000000E+00 -0.45593999997E+02  0.45594000000E+02  0.51100000000E-03 0. -1.
    9900012    2    1    2    0    0  0.36671525650E+02  0.21030652851E+02  0.98251753999E+01  0.47787271613E+02  0.20000002593E+02 0.  0.
        -12    1    1    2    0    0 -0.36671525650E+02 -0.21030652851E+02 -0.98251753999E+01  0.43400728387E+02  0.00000000000E+00 0.  1.
         11    1    3    3    0    0  0.15815050846E+02 -0.84077676837E-01  0.19168858684E+01  0.15931018611E+02  0.51100000000E-03 0. -1.
        -11    1    3    3    0    0  0.47268828375E+01  0.58279323374E+01  0.58950192286E+01  0.95425085095E+01  0.51100000000E-03 0.  1.
         12    1    3    3    0    0  0.16129591967E+02  0.15286798191E+02  0.20132703029E+01  0.22313744492E+02  0.00000000000E+00 0. -1.
</event>
<event>
 7    1  0.2834226E-010  0.4778727E+02  0.7816164E-02  0.1312668E+00
        -11   -1    0    0    0    0  0.00000000000E+00  0.00000000000E+00  0.45593999997E+02  0.45594000000E+02  0.51100000000E-03 0. -1.
         11   -1    0    0    0    0 -0.00000000000E+00 -0.00000000000E+00 -0.45593999997E+02  0.45594000000E+02  0.51100000000E-03 0.  1.
    9900012    2    1    2    0    0 -0.39395167946E+02  0.14812539559E+02  0.10594013929E+02  0.47787265941E+02  0.19999976733E+02 0.  0.
        -12    1    1    2    0    0  0.39395167946E+02 -0.14812539559E+02 -0.10594013929E+02  0.43400734059E+02  0.00000000000E+00 0.  1.
         11    1    3    3    0    0 -0.98472352914E+01  0.13508353476E+01  0.56854448601E+01  0.11450636774E+02  0.51100000000E-03 0. -1.
        -11    1    3    3    0    0 -0.28665301435E+02  0.15180170891E+02  0.73144205360E+01  0.33251132954E+02  0.51100000000E-03 0.  1.
        -12    1    3    3    0    0 -0.88263121958E+00 -0.17184666793E+01 -0.24058514676E+01  0.30854962132E+01  0.00000000000E+00 0.  1.
</event>
<event>
 7    1  0.2834226E-010  0.4778727E+02  0.7816164E-02  0.1312668E+00
        -11   -1    0    0    0    0  0.00000000000E+00  0.00000000000E+00  0.45593999997E+02  0.45594000000E+02  0.51100000000E-03 0. -1.
         11   -1    0    0    0    0 -0.00000000000E+00 -0.00000000000E+00 -0.45593999997E+02  0.45594000000E+02  0.51100000000E-03 0.  1.
    9900012    2    1    2    0    0  0.27662755377E+01  0.32615210991E+02  0.28499455873E+02  0.47787271280E+02  0.20000001075E+02 0.  0.
        -12    1    1    2    0    0 -0.27662755377E+01 -0.32615210991E+02 -0.28499455873E+02  0.43400728720E+02  0.00000000000E+00 0.  1.
         11    1    3    3    0    0  0.33771583127E+01  0.68786180635E+00  0.68220723093E+01  0.76432338043E+01  0.51100000000E-03 0. -1.
        -11    1    3    3    0    0 -0.19747327255E+01  0.16852744633E+02  0.51487782032E+01  0.17732018730E+02  0.51100000000E-03 0.  1.
         12    1    3    3    0    0  0.13638499505E+01  0.15074604552E+02  0.16528605360E+02  0.22412018745E+02  0.00000000000E+00 0. -1.
</event>
<event>
 7    1  0.2834226E-010  0.4778727E+02  0.7816164E-02  0.1312668E+00
        -11   -1    0    0    0    0  0.00000000000E+00  0.00000000000E+00  0.45593999997E+02  0.45594000000E+02  0.51100000000E-03 0.  1.
         11   -1    0    0    0    0 -0.00000000000E+00 -0.00000000000E+00 -0.45593999997E+02  0.45594000000E+02  0.51100000000E-03 0. -1.
    9900012    2    1    2    0    0  0.29001784901E+02 -0.24518004404E+02 -0.21009210462E+02  0.47787274296E+02  0.20000014827E+02 0.  0.
        -12    1    1    2    0    0 -0.29001784901E+02  0.24518004404E+02  0.21009210462E+02  0.43400725704E+02  0.00000000000E+00 0.  1.
         11    1    3    3    0    0  0.10520229097E+02 -0.10182068446E+02 -0.12668719122E+02  0.19360944774E+02  0.51100000000E-03 0. -1.
        -11    1    3    3    0    0  0.51469485594E+01  0.24674783165E+01 -0.13597141644E+01  0.58675677742E+01  0.51100000000E-03 0.  1.
        -12    1    3    3    0    0  0.13334607244E+02 -0.16803414274E+02 -0.69807771754E+01  0.22558761748E+02  0.00000000000E+00 0.  1.
</event>
<event>
 7    1  0.2834226E-010  0.4778727E+02  0.7816164E-02  0.1312668E+00
        -11   -1    0    0    0    0  0.00000000000E+00  0.00000000000E+00  0.45593999997E+02  0.45594000000E+02  0.51100000000E-03 0. -1.
         11   -1    0    0    0    0 -0.00000000000E+00 -0.00000000000E+00 -0.45593999997E+02  0.45594000000E+02  0.51100000000E-03 0.  1.
    9900012    2    1    2    0    0  0.38115430445E+01 -0.16151639323E+02 -0.40102616391E+02  0.47787272419E+02  0.20000006266E+02 0.  0.
        -12    1    1    2    0    0 -0.38115430445E+01  0.16151639323E+02  0.40102616391E+02  0.43400727581E+02  0.00000000000E+00 0.  1.
         11    1    3    3    0    0 -0.71667761792E+01 -0.37187832472E+01 -0.17546671546E+02  0.19315219705E+02  0.51100000000E-03 0.  1.
        -11    1    3    3    0    0  0.70753268182E+01 -0.72468245218E+01 -0.94739678892E+01  0.13868409536E+02  0.51100000000E-03 0. -1.
        -12    1    3    3    0    0  0.39029924055E+01 -0.51860315543E+01 -0.13081976956E+02  0.14603643178E+02  0.00000000000E+00 0.  1.
</event>
<event>
 7    1  0.2834226E-010  0.4778727E+02  0.7816164E-02  0.1312668E+00
        -11   -1    0    0    0    0  0.00000000000E+00  0.00000000000E+00  0.45593999997E+02  0.45594000000E+02  0.51100000000E-03 0.  1.
         11   -1    0    0    0    0 -0.00000000000E+00 -0.00000000000E+00 -0.45593999997E+02  0.45594000000E+02  0.51100000000E-03 0. -1.
    9900012    2    1    2    0    0 -0.26831999127E+01 -0.42287429994E+02 -0.93913245193E+01  0.47787271049E+02  0.20000000019E+02 0.  0.
        -12    1    1    2    0    0  0.26831999127E+01  0.42287429994E+02  0.93913245193E+01  0.43400728951E+02  0.00000000000E+00 0.  1.
         11    1    3    3    0    0 -0.42792040721E+01 -0.36761725765E+01 -0.65360769088E+01  0.86340103035E+01  0.51100000000E-03 0. -1.
        -11    1    3    3    0    0 -0.46448354105E+00 -0.19027670620E+02  0.11124616953E+01  0.19065821919E+02  0.51100000000E-03 0.  1.
         12    1    3    3    0    0  0.20604877004E+01 -0.19583586798E+02 -0.39677093058E+01  0.20087438826E+02  0.00000000000E+00 0. -1.
</event>
<event>
 7    1  0.2834226E-010  0.4778727E+02  0.7816164E-02  0.1312668E+00
        -11   -1    0    0    0    0  0.00000000000E+00  0.00000000000E+00  0.45593999997E+02  0.45594000000E+02  0.51100000000E-03 0.  1.
         11   -1    0    0    0    0 -0.00000000000E+00 -0.00000000000E+00 -0.45593999997E+02  0.45594000000E+02  0.51100000000E-03 0. -1.
    9900012    2    1    2    0    0  0.40271127800E+02  0.60158504876E+01 -0.15022291199E+02  0.47787269312E+02  0.19999992102E+02 0.  0.
        -12    1    1    2    0    0 -0.40271127800E+02 -0.60158504876E+01  0.15022291199E+02  0.43400730688E+02  0.00000000000E+00 0.  1.
         11    1    3    3    0    0  0.21835331742E+02  0.11706946033E+01 -0.11661730557E+02  0.24782013598E+02  0.51100000000E-03 0. -1.
        -11    1    3    3    0    0  0.84021864958E+01  0.12310525235E+01  0.46365878515E+01  0.96752351595E+01  0.51100000000E-03 0.  1.
        -12    1    3    3    0    0  0.10033609562E+02  0.36141033608E+01 -0.79971484937E+01  0.13330020554E+02  0.00000000000E+00 0.  1.
</event>
<event>
 7    1  0.2834226E-010  0.4778727E+02  0.7816164E-02  0.1312668E+00
        -11   -1    0    0    0    0  0.00000000000E+00  0.00000000000E+00  0.45593999997E+02  0.45594000000E+02  0.51100000000E-03 0. -1.
         11   -1    0    0    0    0 -0.00000000000E+00 -0.00000000000E+00 -0.45593999997E+02  0.45594000000E+02  0.51100000000E-03 0.  1.
    9900012    2    1    2    0    0 -0.24717652045E+02  0.82877303310E+01  0.34698336321E+02  0.47787270282E+02  0.19999996522E+02 0.  0.
        -12    1    1    2    0    0  0.24717652045E+02 -0.82877303310E+01 -0.34698336321E+02  0.43400729718E+02  0.00000000000E+00 0.  1.
         11    1    3    3    0    0 -0.91747420134E+01  0.63854715099E+00  0.88598051212E+01  0.12770269399E+02  0.51100000000E-03 0. -1.
        -11    1    3    3    0    0  0.10612043199E+01  0.63139025246E+01  0.39948546657E+01  0.75465478041E+01  0.51100000000E-03 0.  1.
        -12    1    3    3    0    0 -0.16604114351E+02  0.13352806554E+01  0.21843676534E+02  0.27470453079E+02  0.00000000000E+00 0.  1.
</event>
<event>
 7    1  0.2834226E-010  0.4778724E+02  0.7816164E-02  0.1312668E+00
        -11   -1    0    0    0    0  0.00000000000E+00  0.00000000000E+00  0.45593999997E+02  0.45594000000E+02  0.51100000000E-03 0.  1.
         11   -1    0    0    0    0 -0.00000000000E+00 -0.00000000000E+00 -0.45593999997E+02  0.45594000000E+02  0.51100000000E-03 0. -1.
    9900012    2    1    2    0    0  0.35182540614E+02 -0.22939283889E+02  0.10936365921E+02  0.47787239535E+02  0.19999856336E+02 0.  0.
        -12    1    1    2    0    0 -0.35182540614E+02  0.22939283889E+02 -0.10936365921E+02  0.43400760465E+02  0.00000000000E+00 0.  1.
         11    1    3    3    0    0  0.49923657949E+01 -0.11417369202E+01 -0.12250594164E+01  0.52657430872E+01  0.51100000000E-03 0. -1.
        -11    1    3    3    0    0 -0.11854557110E+01  0.10523681450E+01 -0.55137443472E+00  0.16783319051E+01  0.51100000000E-03 0.  1.
        -12    1    3    3    0    0  0.31375630530E+02 -0.22849915114E+02  0.12712799772E+02  0.40843164543E+02  0.00000000000E+00 0.  1.
</event>
<event>
 7    1  0.2834226E-010  0.4778727E+02  0.7816164E-02  0.1312668E+00
        -11   -1    0    0    0    0  0.00000000000E+00  0.00000000000E+00  0.45593999997E+02  0.45594000000E+02  0.51100000000E-03 0. -1.
         11   -1    0    0    0    0 -0.00000000000E+00 -0.00000000000E+00 -0.45593999997E+02  0.45594000000E+02  0.51100000000E-03 0.  1.
    9900012    2    1    2    0    0  0.13917248930E+02 -0.19995287659E+02  0.35918265864E+02  0.47787272252E+02  0.20000005507E+02 0.  0.
        -12    1    1    2    0    0 -0.13917248930E+02  0.19995287659E+02 -0.35918265864E+02  0.43400727748E+02  0.00000000000E+00 0.  1.
         11    1    3    3    0    0  0.20447552759E+01 -0.27417460135E+01  0.45454925931E+01  0.56885585622E+01  0.51100000000E-03 0. -1.
        -11    1    3    3    0    0  0.21358200278E+01 -0.17998665812E+02  0.22612817482E+02  0.28980221065E+02  0.51100000000E-03 0.  1.
        -12    1    3    3    0    0  0.97366736266E+01  0.74512416680E+00  0.87599557888E+01  0.13118492625E+02  0.00000000000E+00 0.  1.
</event>
<event>
 7    1  0.2834226E-010  0.4778727E+02  0.7816164E-02  0.1312668E+00
        -11   -1    0    0    0    0  0.00000000000E+00  0.00000000000E+00  0.45593999997E+02  0.45594000000E+02  0.51100000000E-03 0.  1.
         11   -1    0    0    0    0 -0.00000000000E+00 -0.00000000000E+00 -0.45593999997E+02  0.45594000000E+02  0.51100000000E-03 0. -1.
    9900012    2    1    2    0    0  0.24068844228E+02 -0.19986950570E+01 -0.36059936298E+02  0.47787273621E+02  0.20000011748E+02 0.  0.
        -12    1    1    2    0    0 -0.24068844228E+02  0.19986950570E+01  0.36059936298E+02  0.43400726379E+02  0.00000000000E+00 0.  1.
         11    1    3    3    0    0  0.19205005342E+02 -0.45434047590E+01 -0.17590448872E+02  0.26436691336E+02  0.51100000000E-03 0. -1.
        -11    1    3    3    0    0 -0.11529736217E+01  0.41818281121E+01 -0.59410975565E+01  0.73561997641E+01  0.51100000000E-03 0.  1.
         12    1    3    3    0    0  0.60168125082E+01 -0.16371184101E+01 -0.12528389869E+02  0.13994382521E+02  0.00000000000E+00 0. -1.
</event>
<event>
 7    1  0.2834226E-010  0.4778727E+02  0.7816164E-02  0.1312668E+00
        -11   -1    0    0    0    0  0.00000000000E+00  0.00000000000E+00  0.45593999997E+02  0.45594000000E+02  0.51100000000E-03 0.  1.
         11   -1    0    0    0    0 -0.00000000000E+00 -0.00000000000E+00 -0.45593999997E+02  0.45594000000E+02  0.51100000000E-03 0. -1.
    9900012    2    1    2    0    0 -0.88306308789E+00  0.32751373839E+01 -0.43267965819E+02  0.47787271995E+02  0.20000004332E+02 0.  0.
        -12    1    1    2    0    0  0.88306308789E+00 -0.32751373839E+01  0.43267965819E+02  0.43400728005E+02  0.00000000000E+00 0.  1.
         11    1    3    3    0    0 -0.11535011623E+01 -0.17646444805E+01 -0.26486906905E+02  0.26570675052E+02  0.51100000000E-03 0. -1.
        -11    1    3    3    0    0 -0.40818300994E+01  0.70312853607E+01 -0.11571683770E+02  0.14142283278E+02  0.51100000000E-03 0.  1.
        -12    1    3    3    0    0  0.43522681738E+01 -0.19915034962E+01 -0.52093751439E+01  0.70743136644E+01  0.00000000000E+00 0.  1.
</event>
<event>
 7    1  0.2834226E-010  0.4778727E+02  0.7816164E-02  0.1312668E+00
        -11   -1    0    0    0    0  0.00000000000E+00  0.00000000000E+00  0.45593999997E+02  0.45594000000E+02  0.51100000000E-03 0.  1.
         11   -1    0    0    0    0 -0.00000000000E+00 -0.00000000000E+00 -0.45593999997E+02  0.45594000000E+02  0.51100000000E-03 0. -1.
    9900012    2    1    2    0    0 -0.32016393541E+01 -0.39187557900E+02  0.18376829448E+02  0.47787273632E+02  0.20000011797E+02 0.  0.
        -12    1    1    2    0    0  0.32016393541E+01  0.39187557900E+02 -0.18376829448E+02  0.43400726368E+02  0.00000000000E+00 0.  1.
         11    1    3    3    0    0  0.28265073246E+01 -0.17786665802E+02  0.31134078385E+00  0.18012538892E+02  0.51100000000E-03 0. -1.
        -11    1    3    3    0    0 -0.36649586365E+01 -0.12067502961E+02  0.50500270058E+01  0.13585261225E+02  0.51100000000E-03 0.  1.
         12    1    3    3    0    0 -0.23631880422E+01 -0.93333891367E+01  0.13015461658E+02  0.16189473515E+02  0.00000000000E+00 0. -1.
</event>
<event>
 7    1  0.2834226E-010  0.4778727E+02  0.7816164E-02  0.1312668E+00
        -11   -1    0    0    0    0  0.00000000000E+00  0.00000000000E+00  0.45593999997E+02  0.45594000000E+02  0.51100000000E-03 0.  1.
         11   -1    0    0    0    0 -0.00000000000E+00 -0.00000000000E+00 -0.45593999997E+02  0.45594000000E+02  0.51100000000E-03 0. -1.
    9900012    2    1    2    0    0  0.19962099103E+02  0.37172520871E+02 -0.10165701502E+02  0.47787271947E+02  0.20000004117E+02 0.  0.
        -12    1    1    2    0    0 -0.19962099103E+02 -0.37172520871E+02  0.10165701502E+02  0.43400728053E+02  0.00000000000E+00 0.  1.
         11    1    3    3    0    0  0.10050645052E+02  0.27965182940E+02 -0.11160531635E+02  0.31743099872E+02  0.51100000000E-03 0. -1.
        -11    1    3    3    0    0  0.90366911599E+01  0.35454091645E+01 -0.14504085950E+01  0.98150597867E+01  0.51100000000E-03 0.  1.
         12    1    3    3    0    0  0.87476289056E+00  0.56619287660E+01  0.24452387281E+01  0.62291122885E+01  0.00000000000E+00 0. -1.
</event>
<event>
 7    1  0.2834226E-010  0.4778726E+02  0.7816164E-02  0.1312668E+00
        -11   -1    0    0    0    0  0.00000000000E+00  0.00000000000E+00  0.45593999997E+02  0.45594000000E+02  0.51100000000E-03 0. -1.
         11   -1    0    0    0    0 -0.00000000000E+00 -0.00000000000E+00 -0.45593999997E+02  0.45594000000E+02  0.51100000000E-03 0.  1.
    9900012    2    1    2    0    0 -0.43079642553E+02  0.16845460262E+01 -0.49930480528E+01  0.47787264676E+02  0.19999970963E+02 0.  0.
        -12    1    1    2    0    0  0.43079642553E+02 -0.16845460262E+01  0.49930480528E+01  0.43400735324E+02  0.00000000000E+00 0.  1.
         11    1    3    3    0    0 -0.86904716505E+01 -0.40613963701E+01 -0.29300630425E+01  0.10030179843E+02  0.51100000000E-03 0. -1.
        -11    1    3    3    0    0 -0.19459981755E+02  0.10071087647E+02 -0.33268032471E+01  0.22162701017E+02  0.51100000000E-03 0.  1.
        -12    1    3    3    0    0 -0.14929189148E+02 -0.43251452504E+01  0.12638182369E+01  0.15594383816E+02  0.00000000000E+00 0.  1.
</event>
<event>
 7    1  0.2834226E-010  0.4778727E+02  0.7816164E-02  0.1312668E+00
        -11   -1    0    0    0    0  0.00000000000E+00  0.00000000000E+00  0.45593999997E+02  0.45594000000E+02  0.51100000000E-03 0.  1.
         11   -1    0    0    0    0 -0.00000000000E+00 -0.00000000000E+00 -0.45593999997E+02  0.45594000000E+02  0.51100000000E-03 0. -1.
    9900012    2    1    2    0    0 -0.39039648749E+02 -0.15012538614E+02 -0.11582437114E+02  0.47787270288E+02  0.19999996551E+02 0.  0.
        -12    1    1    2    0    0  0.39039648749E+02  0.15012538614E+02  0.11582437114E+02  0.43400729712E+02  0.00000000000E+00 0.  1.
         11    1    3    3    0    0 -0.17156956650E+02 -0.20346393358E+01 -0.73480691336E+01  0.18774851237E+02  0.51100000000E-03 0. -1.
        -11    1    3    3    0    0 -0.10923040528E+02 -0.13634765112E+02 -0.72383202640E+00  0.17485524502E+02  0.51100000000E-03 0.  1.
        -12    1    3    3    0    0 -0.10959651570E+02  0.65686583335E+00 -0.35105359535E+01  0.11526894549E+02  0.00000000000E+00 0.  1.
</event>
<event>
 7    1  0.2834226E-010  0.4778727E+02  0.7816164E-02  0.1312668E+00
        -11   -1    0    0    0    0  0.00000000000E+00  0.00000000000E+00  0.45593999997E+02  0.45594000000E+02  0.51100000000E-03 0. -1.
         11   -1    0    0    0    0 -0.00000000000E+00 -0.00000000000E+00 -0.45593999997E+02  0.45594000000E+02  0.51100000000E-03 0.  1.
    9900012    2    1    2    0    0  0.16014566982E+02  0.37565425265E+02 -0.14696783587E+02  0.47787274445E+02  0.20000015503E+02 0.  0.
        -12    1    1    2    0    0 -0.16014566982E+02 -0.37565425265E+02  0.14696783587E+02  0.43400725555E+02  0.00000000000E+00 0.  1.
         11    1    3    3    0    0  0.81333797857E+00  0.12128094433E+02 -0.67303602581E+01  0.13894241350E+02  0.51100000000E-03 0. -1.
        -11    1    3    3    0    0  0.14100538581E+02  0.21347068199E+02 -0.83347854033E+00  0.25597210702E+02  0.51100000000E-03 0.  1.
        -12    1    3    3    0    0  0.11006904223E+01  0.40902626330E+01 -0.71329447885E+01  0.82958223925E+01  0.00000000000E+00 0.  1.
</event>
<event>
 7    1  0.2834226E-010  0.4778727E+02  0.7816164E-02  0.1312668E+00
        -11   -1    0    0    0    0  0.00000000000E+00  0.00000000000E+00  0.45593999997E+02  0.45594000000E+02  0.51100000000E-03 0.  1.
         11   -1    0    0    0    0 -0.00000000000E+00 -0.00000000000E+00 -0.45593999997E+02  0.45594000000E+02  0.51100000000E-03 0. -1.
    9900012    2    1    2    0    0  0.24546965630E+02  0.27851155966E+02 -0.22480727420E+02  0.47787268259E+02  0.19999987301E+02 0.  0.
        -12    1    1    2    0    0 -0.24546965630E+02 -0.27851155966E+02  0.22480727420E+02  0.43400731741E+02  0.00000000000E+00 0.  1.
         11    1    3    3    0    0  0.14663420749E+02  0.10790931867E+02 -0.88096192632E+01  0.20225466878E+02  0.51100000000E-03 0. -1.
        -11    1    3    3    0    0 -0.73094405217E+00  0.35415861415E+00 -0.64374041993E+01  0.64884420794E+01  0.51100000000E-03 0.  1.
        -12    1    3    3    0    0  0.10614488933E+02  0.16706065485E+02 -0.72337039579E+01  0.21073359301E+02  0.00000000000E+00 0.  1.
</event>
<event>
 7    1  0.2834226E-010  0.4778726E+02  0.7816164E-02  0.1312668E+00
        -11   -1    0    0    0    0  0.00000000000E+00  0.00000000000E+00  0.45593999997E+02  0.45594000000E+02  0.51100000000E-03 0. -1.
         11   -1    0    0    0    0 -0.00000000000E+00 -0.00000000000E+00 -0.45593999997E+02  0.45594000000E+02  0.51100000000E-03 0.  1.
    9900012    2    1    2    0    0 -0.14333805435E+02  0.40875122978E+02 -0.27184847842E+01  0.47787264796E+02  0.19999971509E+02 0.  0.
        -12    1    1    2    0    0  0.14333805435E+02 -0.40875122978E+02  0.27184847842E+01  0.43400735204E+02  0.00000000000E+00 0.  1.
         11    1    3    3    0    0 -0.57080131593E+01  0.19608716987E+02  0.78626277562E+01  0.21883877892E+02  0.51100000000E-03 0. -1.
        -11    1    3    3    0    0 -0.51904479593E+01  0.17573112732E+02 -0.65944952143E+01  0.19474147183E+02  0.51100000000E-03 0.  1.
         12    1    3    3    0    0 -0.34353443168E+01  0.36932932588E+01 -0.39866173261E+01  0.64292397199E+01  0.00000000000E+00 0. -1.
</event>
<event>
 7    1  0.2834226E-010  0.4778727E+02  0.7816164E-02  0.1312668E+00
        -11   -1    0    0    0    0  0.00000000000E+00  0.00000000000E+00  0.45593999997E+02  0.45594000000E+02  0.51100000000E-03 0. -1.
         11   -1    0    0    0    0 -0.00000000000E+00 -0.00000000000E+00 -0.45593999997E+02  0.45594000000E+02  0.51100000000E-03 0.  1.
    9900012    2    1    2    0    0  0.42480179056E+02  0.71368367382E+01 -0.53031369289E+01  0.47787270599E+02  0.19999997970E+02 0.  0.
        -12    1    1    2    0    0 -0.42480179056E+02 -0.71368367382E+01  0.53031369289E+01  0.43400729401E+02  0.00000000000E+00 0.  1.
         11    1    3    3    0    0  0.25482978733E+02  0.25619391172E+01 -0.71047360753E+01  0.26578619455E+02  0.51100000000E-03 0. -1.
        -11    1    3    3    0    0  0.77726744873E+01  0.33849581947E+01  0.65989994843E+01  0.10743333055E+02  0.51100000000E-03 0.  1.
        -12    1    3    3    0    0  0.92245258349E+01  0.11899394263E+01 -0.47974003379E+01  0.10465318090E+02  0.00000000000E+00 0.  1.
</event>
<event>
 7    1  0.2834226E-010  0.4778727E+02  0.7816164E-02  0.1312668E+00
        -11   -1    0    0    0    0  0.00000000000E+00  0.00000000000E+00  0.45593999997E+02  0.45594000000E+02  0.51100000000E-03 0.  1.
         11   -1    0    0    0    0 -0.00000000000E+00 -0.00000000000E+00 -0.45593999997E+02  0.45594000000E+02  0.51100000000E-03 0. -1.
    9900012    2    1    2    0    0 -0.16577382929E+02  0.33189988452E+02 -0.22521947196E+02  0.47787273466E+02  0.20000011040E+02 0.  0.
        -12    1    1    2    0    0  0.16577382929E+02 -0.33189988452E+02  0.22521947196E+02  0.43400726534E+02  0.00000000000E+00 0.  1.
         11    1    3    3    0    0 -0.54433047456E+01  0.17231353540E+02 -0.59032630261E+01  0.19010460962E+02  0.51100000000E-03 0. -1.
        -11    1    3    3    0    0 -0.92368004164E+01  0.29192248608E+01 -0.38370848949E+01  0.10419384649E+02  0.51100000000E-03 0.  1.
        -12    1    3    3    0    0 -0.18972777669E+01  0.13039410051E+02 -0.12781599275E+02  0.18357427854E+02  0.00000000000E+00 0.  1.
</event>
<event>
 7    1  0.2834226E-010  0.4778727E+02  0.7816164E-02  0.1312668E+00
        -11   -1    0    0    0    0  0.00000000000E+00  0.00000000000E+00  0.45593999997E+02  0.45594000000E+02  0.51100000000E-03 0.  1.
         11   -1    0    0    0    0 -0.00000000000E+00 -0.00000000000E+00 -0.45593999997E+02  0.45594000000E+02  0.51100000000E-03 0. -1.
    9900012    2    1    2    0    0 -0.16731420961E+02 -0.41654979832E+01 -0.39828776290E+02  0.47787271416E+02  0.20000001695E+02 0.  0.
        -12    1    1    2    0    0  0.16731420961E+02  0.41654979832E+01  0.39828776290E+02  0.43400728584E+02  0.00000000000E+00 0.  1.
         11    1    3    3    0    0 -0.20965539815E+02 -0.52339695792E+01 -0.35259659411E+02  0.41354466256E+02  0.51100000000E-03 0. -1.
        -11    1    3    3    0    0  0.24719653489E+01  0.11602332938E+00 -0.20439858659E+01  0.32096654935E+01  0.51100000000E-03 0.  1.
         12    1    3    3    0    0  0.17621535050E+01  0.95244826658E+00 -0.25251310129E+01  0.32231396662E+01  0.00000000000E+00 0. -1.
</event>
<event>
 7    1  0.2834226E-010  0.4778727E+02  0.7816164E-02  0.1312668E+00
        -11   -1    0    0    0    0  0.00000000000E+00  0.00000000000E+00  0.45593999997E+02  0.45594000000E+02  0.51100000000E-03 0.  1.
         11   -1    0    0    0    0 -0.00000000000E+00 -0.00000000000E+00 -0.45593999997E+02  0.45594000000E+02  0.51100000000E-03 0. -1.
    9900012    2    1    2    0    0  0.23193006235E+02 -0.36535681190E+02 -0.32942107273E+01  0.47787270023E+02  0.19999995343E+02 0.  0.
        -12    1    1    2    0    0 -0.23193006235E+02  0.36535681190E+02  0.32942107273E+01  0.43400729977E+02  0.00000000000E+00 0.  1.
         11    1    3    3    0    0  0.70315001228E+01 -0.89330516199E+01 -0.80118470108E+01  0.13907950892E+02  0.51100000000E-03 0. -1.
        -11    1    3    3    0    0  0.10738968075E+02 -0.16112130024E+02  0.76839422281E+01  0.20831925923E+02  0.51100000000E-03 0.  1.
        -12    1    3    3    0    0  0.54225380372E+01 -0.11490499546E+02 -0.29663059446E+01  0.13047393208E+02  0.00000000000E+00 0.  1.
</event>
<event>
 7    1  0.2834226E-010  0.4778727E+02  0.7816164E-02  0.1312668E+00
        -11   -1    0    0    0    0  0.00000000000E+00  0.00000000000E+00  0.45593999997E+02  0.45594000000E+02  0.51100000000E-03 0. -1.
         11   -1    0    0    0    0 -0.00000000000E+00 -0.00000000000E+00 -0.45593999997E+02  0.45594000000E+02  0.51100000000E-03 0.  1.
    9900012    2    1    2    0    0 -0.25159018263E+02 -0.17534542295E+01  0.35320993605E+02  0.47787269696E+02  0.19999993853E+02 0.  0.
        -12    1    1    2    0    0  0.25159018263E+02  0.17534542295E+01 -0.35320993605E+02  0.43400730304E+02  0.00000000000E+00 0.  1.
         11    1    3    3    0    0 -0.19725191438E+02  0.38353450175E+01  0.20511026827E+02  0.28714025674E+02  0.51100000000E-03 0. -1.
        -11    1    3    3    0    0  0.16856638307E+01 -0.18090452283E+01  0.84539025171E+01  0.88080971394E+01  0.51100000000E-03 0.  1.
         12    1    3    3    0    0 -0.71194906558E+01 -0.37797540188E+01  0.63560642610E+01  0.10265146883E+02  0.00000000000E+00 0. -1.
</event>
<event>
 7    1  0.2834226E-010  0.4778727E+02  0.7816164E-02  0.1312668E+00
        -11   -1    0    0    0    0  0.00000000000E+00  0.00000000000E+00  0.45593999997E+02  0.45594000000E+02  0.51100000000E-03 0.  1.
         11   -1    0    0    0    0 -0.00000000000E+00 -0.00000000000E+00 -0.45593999997E+02  0.45594000000E+02  0.51100000000E-03 0. -1.
    9900012    2    1    2    0    0 -0.49709312055E+01  0.40386118585E+02 -0.15095517350E+02  0.47787269874E+02  0.19999994662E+02 0.  0.
        -12    1    1    2    0    0  0.49709312055E+01 -0.40386118585E+02  0.15095517350E+02  0.43400730126E+02  0.00000000000E+00 0.  1.
         11    1    3    3    0    0  0.38364552301E+01  0.11332340098E+02 -0.52532146020E+01  0.13066621014E+02  0.51100000000E-03 0. -1.
        -11    1    3    3    0    0 -0.11982603870E+02  0.21223225627E+02 -0.46765806953E+01  0.24816899661E+02  0.51100000000E-03 0.  1.
        -12    1    3    3    0    0  0.31752174342E+01  0.78305528606E+01 -0.51657220524E+01  0.99037491981E+01  0.00000000000E+00 0.  1.
</event>
<event>
 7    1  0.2834226E-010  0.4778727E+02  0.7816164E-02  0.1312668E+00
        -11   -1    0    0    0    0  0.00000000000E+00  0.00000000000E+00  0.45593999997E+02  0.45594000000E+02  0.51100000000E-03 0.  1.
         11   -1    0    0    0    0 -0.00000000000E+00 -0.00000000000E+00 -0.45593999997E+02  0.45594000000E+02  0.51100000000E-03 0. -1.
    9900012    2    1    2    0    0 -0.10763263555E+02  0.19020487274E+02 -0.37496622918E+02  0.47787268339E+02  0.19999987664E+02 0.  0.
        -12    1    1    2    0    0  0.10763263555E+02 -0.19020487274E+02  0.37496622918E+02  0.43400731661E+02  0.00000000000E+00 0.  1.
         11    1    3    3    0    0 -0.10162829137E+01  0.10037248765E+01 -0.88426314192E+01  0.89572554538E+01  0.51100000000E-03 0. -1.
        -11    1    3    3    0    0 -0.12031332509E+02  0.16981394673E+02 -0.29570419247E+02  0.36159790123E+02  0.51100000000E-03 0.  1.
        -12    1    3    3    0    0  0.22843518682E+01  0.10353677243E+01  0.91642774850E+00  0.26702227623E+01  0.00000000000E+00 0.  1.
</event>
<event>
 7    1  0.2834226E-010  0.4778727E+02  0.7816164E-02  0.1312668E+00
        -11   -1    0    0    0    0  0.00000000000E+00  0.00000000000E+00  0.45593999997E+02  0.45594000000E+02  0.51100000000E-03 0. -1.
         11   -1    0    0    0    0 -0.00000000000E+00 -0.00000000000E+00 -0.45593999997E+02  0.45594000000E+02  0.51100000000E-03 0.  1.
    9900012    2    1    2    0    0  0.11434899793E+02  0.38349126091E+02  0.16799130867E+02  0.47787271859E+02  0.20000003716E+02 0.  0.
        -12    1    1    2    0    0 -0.11434899793E+02 -0.38349126091E+02 -0.16799130867E+02  0.43400728141E+02  0.00000000000E+00 0.  1.
         11    1    3    3    0    0  0.11062959828E+01  0.79397153972E+01  0.11753279377E+02  0.14226824936E+02  0.51100000000E-03 0. -1.
        -11    1    3    3    0    0  0.11251727666E+02  0.21958801342E+02  0.39910746820E+01  0.24994379553E+02  0.51100000000E-03 0.  1.
        -12    1    3    3    0    0 -0.92312385597E+00  0.84506093526E+01  0.10547768075E+01  0.85660673706E+01  0.00000000000E+00 0.  1.
</event>
<event>
 7    1  0.2834226E-010  0.4778727E+02  0.7816164E-02  0.1312668E+00
        -11   -1    0    0    0    0  0.00000000000E+00  0.00000000000E+00  0.45593999997E+02  0.45594000000E+02  0.51100000000E-03 0.  1.
         11   -1    0    0    0    0 -0.00000000000E+00 -0.00000000000E+00 -0.45593999997E+02  0.45594000000E+02  0.51100000000E-03 0. -1.
    9900012    2    1    2    0    0  0.13780963884E+02  0.14945958827E+02 -0.38344837167E+02  0.47787272032E+02  0.20000004501E+02 0.  0.
        -12    1    1    2    0    0 -0.13780963884E+02 -0.14945958827E+02  0.38344837167E+02  0.43400727968E+02  0.00000000000E+00 0.  1.
         11    1    3    3    0    0  0.77594830441E+01  0.57115394179E+01 -0.19587807254E+02  0.21829188096E+02  0.51100000000E-03 0. -1.
        -11    1    3    3    0    0 -0.27115614760E+01  0.48509808770E+01 -0.93838231981E+00  0.56360573761E+01  0.51100000000E-03 0.  1.
        -12    1    3    3    0    0  0.87330423156E+01  0.43834385323E+01 -0.17818647593E+02  0.20322026560E+02  0.00000000000E+00 0.  1.
</event>
<event>
 7    1  0.2834226E-010  0.4778727E+02  0.7816164E-02  0.1312668E+00
        -11   -1    0    0    0    0  0.00000000000E+00  0.00000000000E+00  0.45593999997E+02  0.45594000000E+02  0.51100000000E-03 0. -1.
         11   -1    0    0    0    0 -0.00000000000E+00 -0.00000000000E+00 -0.45593999997E+02  0.45594000000E+02  0.51100000000E-03 0.  1.
    9900012    2    1    2    0    0  0.23305339799E+02  0.36070842073E+02  0.62752320750E+01  0.47787273639E+02  0.20000011832E+02 0.  0.
        -12    1    1    2    0    0 -0.23305339799E+02 -0.36070842073E+02 -0.62752320750E+01  0.43400726361E+02  0.00000000000E+00 0.  1.
         11    1    3    3    0    0  0.12648764894E+02  0.23922514931E+02  0.55319210944E+01  0.27620284669E+02  0.51100000000E-03 0. -1.
        -11    1    3    3    0    0  0.31472655899E+01 -0.18524008586E+01  0.21154894306E+01  0.42204224227E+01  0.51100000000E-03 0.  1.
        -12    1    3    3    0    0  0.75093093154E+01  0.14000728001E+02 -0.13721784500E+01  0.15946566547E+02  0.00000000000E+00 0.  1.
</event>
<event>
 7    1  0.2834226E-010  0.4778726E+02  0.7816164E-02  0.1312668E+00
        -11   -1    0    0    0    0  0.00000000000E+00  0.00000000000E+00  0.45593999997E+02  0.45594000000E+02  0.51100000000E-03 0. -1.
         11   -1    0    0    0    0 -0.00000000000E+00 -0.00000000000E+00 -0.45593999997E+02  0.45594000000E+02  0.51100000000E-03 0.  1.
    9900012    2    1    2    0    0  0.31758906855E+02 -0.20372256195E+02  0.21446848541E+02  0.47787259229E+02  0.19999946130E+02 0.  0.
        -12    1    1    2    0    0 -0.31758906855E+02  0.20372256195E+02 -0.21446848541E+02  0.43400740771E+02  0.00000000000E+00 0.  1.
         11    1    3    3    0    0  0.20106550048E+02 -0.13780553817E+02  0.96669383849E+01  0.26222637479E+02  0.51100000000E-03 0. -1.
        -11    1    3    3    0    0  0.67825220320E+01 -0.28132232167E+01  0.13321349653E+02  0.15211021887E+02  0.51100000000E-03 0.  1.
         12    1    3    3    0    0  0.48698347749E+01 -0.37784791616E+01 -0.15414394975E+01  0.63535998641E+01  0.00000000000E+00 0. -1.
</event>
<event>
 7    1  0.2834226E-010  0.4778725E+02  0.7816164E-02  0.1312668E+00
        -11   -1    0    0    0    0  0.00000000000E+00  0.00000000000E+00  0.45593999997E+02  0.45594000000E+02  0.51100000000E-03 0. -1.
         11   -1    0    0    0    0 -0.00000000000E+00 -0.00000000000E+00 -0.45593999997E+02  0.45594000000E+02  0.51100000000E-03 0.  1.
    9900012    2    1    2    0    0 -0.33013157033E+02  0.23807894671E+02  0.15064545978E+02  0.47787251948E+02  0.19999912931E+02 0.  0.
        -12    1    1    2    0    0  0.33013157033E+02 -0.23807894671E+02 -0.15064545978E+02  0.43400748052E+02  0.00000000000E+00 0.  1.
         11    1    3    3    0    0 -0.13198595252E+02  0.12885286492E+02  0.71454078897E+01  0.19781061113E+02  0.51100000000E-03 0. -1.
        -11    1    3    3    0    0 -0.37987503153E+01  0.52910965274E+01 -0.36456852684E+01  0.74643973473E+01  0.51100000000E-03 0.  1.
        -12    1    3    3    0    0 -0.16015811466E+02  0.56315116520E+01  0.11564823357E+02  0.20541793487E+02  0.00000000000E+00 0.  1.
</event>
<event>
 7    1  0.2834226E-010  0.4778727E+02  0.7816164E-02  0.1312668E+00
        -11   -1    0    0    0    0  0.00000000000E+00  0.00000000000E+00  0.45593999997E+02  0.45594000000E+02  0.51100000000E-03 0.  1.
         11   -1    0    0    0    0 -0.00000000000E+00 -0.00000000000E+00 -0.45593999997E+02  0.45594000000E+02  0.51100000000E-03 0. -1.
    9900012    2    1    2    0    0  0.37232582851E+02 -0.90459954598E+01 -0.20384513834E+02  0.47787266551E+02  0.19999979514E+02 0.  0.
        -12    1    1    2    0    0 -0.37232582851E+02  0.90459954598E+01  0.20384513834E+02  0.43400733449E+02  0.00000000000E+00 0.  1.
         11    1    3    3    0    0  0.12104748762E+02 -0.59943379540E+01 -0.82932918228E+01  0.15850417017E+02  0.51100000000E-03 0. -1.
        -11    1    3    3    0    0  0.15467780578E+02 -0.43875923766E+01  0.40823085744E+00  0.16083216580E+02  0.51100000000E-03 0.  1.
        -12    1    3    3    0    0  0.96600535114E+01  0.13359348709E+01 -0.12499452869E+02  0.15853632954E+02  0.00000000000E+00 0.  1.
</event>
<event>
 7    1  0.2834226E-010  0.4778726E+02  0.7816164E-02  0.1312668E+00
        -11   -1    0    0    0    0  0.00000000000E+00  0.00000000000E+00  0.45593999997E+02  0.45594000000E+02  0.51100000000E-03 0. -1.
         11   -1    0    0    0    0 -0.00000000000E+00 -0.00000000000E+00 -0.45593999997E+02  0.45594000000E+02  0.51100000000E-03 0.  1.
    9900012    2    1    2    0    0 -0.14919916011E+01 -0.29005875075E+02  0.32249922012E+02  0.47787259251E+02  0.19999946228E+02 0.  0.
        -12    1    1    2    0    0  0.14919916011E+01  0.29005875075E+02 -0.32249922012E+02  0.43400740749E+02  0.00000000000E+00 0.  1.
         11    1    3    3    0    0  0.14330372866E+01 -0.62734132959E+01  0.58618049394E+01  0.87046003731E+01  0.51100000000E-03 0. -1.
        -11    1    3    3    0    0 -0.10127359675E+02 -0.14593348628E+02  0.18546761292E+02  0.25680957786E+02  0.51100000000E-03 0.  1.
        -12    1    3    3    0    0  0.72023307872E+01 -0.81391131512E+01  0.78413557810E+01  0.13401701091E+02  0.00000000000E+00 0.  1.
</event>
<event>
 7    1  0.2834226E-010  0.4778726E+02  0.7816164E-02  0.1312668E+00
        -11   -1    0    0    0    0  0.00000000000E+00  0.00000000000E+00  0.45593999997E+02  0.45594000000E+02  0.51100000000E-03 0.  1.
         11   -1    0    0    0    0 -0.00000000000E+00 -0.00000000000E+00 -0.45593999997E+02  0.45594000000E+02  0.51100000000E-03 0. -1.
    9900012    2    1    2    0    0 -0.36699674976E+02 -0.97048273680E+01 -0.21037452138E+02  0.47787260259E+02  0.19999950826E+02 0.  0.
        -12    1    1    2    0    0  0.36699674976E+02  0.97048273680E+01  0.21037452138E+02  0.43400739741E+02  0.00000000000E+00 0.  1.
         11    1    3    3    0    0 -0.24060540991E+02  0.34151647931E+00 -0.14173933073E+02  0.27927166797E+02  0.51100000000E-03 0. -1.
        -11    1    3    3    0    0 -0.50885515624E+01 -0.30013610973E+00  0.10575916000E+01  0.52059522607E+01  0.51100000000E-03 0.  1.
         12    1    3    3    0    0 -0.75505824226E+01 -0.97462077376E+01 -0.79211106656E+01  0.14654141202E+02  0.00000000000E+00 0. -1.
</event>
<event>
 7    1  0.2834226E-010  0.4778726E+02  0.7816164E-02  0.1312668E+00
        -11   -1    0    0    0    0  0.00000000000E+00  0.00000000000E+00  0.45593999997E+02  0.45594000000E+02  0.51100000000E-03 0.  1.
         11   -1    0    0    0    0 -0.00000000000E+00 -0.00000000000E+00 -0.45593999997E+02  0.45594000000E+02  0.51100000000E-03 0. -1.
    9900012    2    1    2    0    0  0.16979072415E+02 -0.39519080658E+02 -0.57945872131E+01  0.47787264095E+02  0.19999968314E+02 0.  0.
        -12    1    1    2    0    0 -0.16979072415E+02  0.39519080658E+02  0.57945872131E+01  0.43400735905E+02  0.00000000000E+00 0.  1.
         11    1    3    3    0    0  0.12379813055E+02 -0.10509016786E+02 -0.20664268542E+01  0.16369768638E+02  0.51100000000E-03 0. -1.
        -11    1    3    3    0    0  0.20544572394E+01 -0.23965394077E+02  0.96463855526E+00  0.24072628349E+02  0.51100000000E-03 0.  1.
        -12    1    3    3    0    0  0.25448021204E+01 -0.50446697957E+01 -0.46927989142E+01  0.73448671076E+01  0.00000000000E+00 0.  1.
</event>
<event>
 7    1  0.2834226E-010  0.4778727E+02  0.7816164E-02  0.1312668E+00
        -11   -1    0    0    0    0  0.00000000000E+00  0.00000000000E+00  0.45593999997E+02  0.45594000000E+02  0.51100000000E-03 0. -1.
         11   -1    0    0    0    0 -0.00000000000E+00 -0.00000000000E+00 -0.45593999997E+02  0.45594000000E+02  0.51100000000E-03 0.  1.
    9900012    2    1    2    0    0  0.33872881651E+02 -0.11365019775E+02 -0.24639144092E+02  0.47787271810E+02  0.20000003490E+02 0.  0.
        -12    1    1    2    0    0 -0.33872881651E+02  0.11365019775E+02  0.24639144092E+02  0.43400728190E+02  0.00000000000E+00 0.  1.
         11    1    3    3    0    0  0.71492378803E+01 -0.84152935340E+01 -0.12797908210E+01  0.11116052912E+02  0.51100000000E-03 0. -1.
        -11    1    3    3    0    0  0.56470807151E+01 -0.14370411676E+01 -0.10289993482E+02  0.11825336107E+02  0.51100000000E-03 0.  1.
         12    1    3    3    0    0  0.21076563056E+02 -0.15126850737E+01 -0.13069359789E+02  0.24845882791E+02  0.00000000000E+00 0. -1.
</event>
<event>
 7    1  0.2834226E-010  0.4778727E+02  0.7816164E-02  0.1312668E+00
        -11   -1    0    0    0    0  0.00000000000E+00  0.00000000000E+00  0.45593999997E+02  0.45594000000E+02  0.51100000000E-03 0.  1.
         11   -1    0    0    0    0 -0.00000000000E+00 -0.00000000000E+00 -0.45593999997E+02  0.45594000000E+02  0.51100000000E-03 0. -1.
    9900012    2    1    2    0    0  0.22950875898E+02 -0.52830393555E+01 -0.36455045320E+02  0.47787267995E+02  0.19999986095E+02 0.  0.
        -12    1    1    2    0    0 -0.22950875898E+02  0.52830393555E+01  0.36455045320E+02  0.43400732005E+02  0.00000000000E+00 0.  1.
         11    1    3    3    0    0 -0.12583435017E+01  0.43685446356E+01 -0.70738692944E+01  0.84087595790E+01  0.51100000000E-03 0. -1.
        -11    1    3    3    0    0  0.22256935105E+01 -0.14400191660E+01 -0.20243972388E+01  0.33354986498E+01  0.51100000000E-03 0.  1.
         12    1    3    3    0    0  0.21983525889E+02 -0.82115648251E+01 -0.27356778787E+02  0.36043009766E+02  0.00000000000E+00 0. -1.
</event>
<event>
 7    1  0.2834226E-010  0.4778727E+02  0.7816164E-02  0.1312668E+00
        -11   -1    0    0    0    0  0.00000000000E+00  0.00000000000E+00  0.45593999997E+02  0.45594000000E+02  0.51100000000E-03 0.  1.
         11   -1    0    0    0    0 -0.00000000000E+00 -0.00000000000E+00 -0.45593999997E+02  0.45594000000E+02  0.51100000000E-03 0. -1.
    9900012    2    1    2    0    0  0.30258581181E+02 -0.29736019316E+02 -0.91548093981E+01  0.47787272876E+02  0.20000008349E+02 0.  0.
        -12    1    1    2    0    0 -0.30258581181E+02  0.29736019316E+02  0.91548093981E+01  0.43400727124E+02  0.00000000000E+00 0.  1.
         11    1    3    3    0    0  0.69043895266E+01 -0.92908160415E+01 -0.29640031797E+01  0.11948856538E+02  0.51100000000E-03 0. -1.
        -11    1    3    3    0    0  0.15248728389E+02 -0.21765723277E+02 -0.72783367839E+01  0.27554393731E+02  0.51100000000E-03 0.  1.
        -12    1    3    3    0    0  0.81054632652E+01  0.13205200030E+01  0.10875305655E+01  0.82840226070E+01  0.00000000000E+00 0.  1.
</event>
<event>
 7    1  0.2834226E-010  0.4778727E+02  0.7816164E-02  0.1312668E+00
        -11   -1    0    0    0    0  0.00000000000E+00  0.00000000000E+00  0.45593999997E+02  0.45594000000E+02  0.51100000000E-03 0. -1.
         11   -1    0    0    0    0 -0.00000000000E+00 -0.00000000000E+00 -0.45593999997E+02  0.45594000000E+02  0.51100000000E-03 0.  1.
    9900012    2    1    2    0    0 -0.42909509950E+01  0.92579780307E+01  0.42184131455E+02  0.47787270003E+02  0.19999995251E+02 0.  0.
        -12    1    1    2    0    0  0.42909509950E+01 -0.92579780307E+01 -0.42184131455E+02  0.43400729997E+02  0.00000000000E+00 0.  1.
         11    1    3    3    0    0 -0.15471560495E+01 -0.27251668661E+01  0.85771592123E+00  0.32489849418E+01  0.51100000000E-03 0.  1.
        -11    1    3    3    0    0  0.33828514038E+00  0.11237394438E+02  0.39046367828E+02  0.40632650805E+02  0.51100000000E-03 0. -1.
         12    1    3    3    0    0 -0.30820800858E+01  0.74575045919E+00  0.22800477058E+01  0.39056342562E+01  0.00000000000E+00 0. -1.
</event>
<event>
 7    1  0.2834226E-010  0.4778727E+02  0.7816164E-02  0.1312668E+00
        -11   -1    0    0    0    0  0.00000000000E+00  0.00000000000E+00  0.45593999997E+02  0.45594000000E+02  0.51100000000E-03 0. -1.
         11   -1    0    0    0    0 -0.00000000000E+00 -0.00000000000E+00 -0.45593999997E+02  0.45594000000E+02  0.51100000000E-03 0.  1.
    9900012    2    1    2    0    0  0.20697272149E+02  0.32760344819E+02  0.19544977935E+02  0.47787269251E+02  0.19999991825E+02 0.  0.
        -12    1    1    2    0    0 -0.20697272149E+02 -0.32760344819E+02 -0.19544977935E+02  0.43400730749E+02  0.00000000000E+00 0.  1.
         11    1    3    3    0    0 -0.28433404527E-01  0.26334584196E+01  0.18373359545E+01  0.32111859767E+01  0.51100000000E-03 0. -1.
        -11    1    3    3    0    0  0.51097092145E+01  0.21801369005E+02  0.14258320593E+02  0.26546346738E+02  0.51100000000E-03 0.  1.
        -12    1    3    3    0    0  0.15615996339E+02  0.83255173939E+01  0.34493213871E+01  0.18029736536E+02  0.00000000000E+00 0.  1.
</event>
<event>
 7    1  0.2834226E-010  0.4778727E+02  0.7816164E-02  0.1312668E+00
        -11   -1    0    0    0    0  0.00000000000E+00  0.00000000000E+00  0.45593999997E+02  0.45594000000E+02  0.51100000000E-03 0. -1.
         11   -1    0    0    0    0 -0.00000000000E+00 -0.00000000000E+00 -0.45593999997E+02  0.45594000000E+02  0.51100000000E-03 0.  1.
    9900012    2    1    2    0    0  0.28061099309E+02 -0.29496477763E+02 -0.15038480411E+02  0.47787269730E+02  0.19999994006E+02 0.  0.
        -12    1    1    2    0    0 -0.28061099309E+02  0.29496477763E+02  0.15038480411E+02  0.43400730270E+02  0.00000000000E+00 0.  1.
         11    1    3    3    0    0  0.11780005661E+02 -0.34384579283E+01 -0.27295344766E+00  0.12274609165E+02  0.51100000000E-03 0. -1.
        -11    1    3    3    0    0  0.14618756335E+02 -0.24622739961E+02 -0.16189602679E+02  0.32895145465E+02  0.51100000000E-03 0.  1.
        -12    1    3    3    0    0  0.16623373129E+01 -0.14352798739E+01  0.14240757152E+01  0.26175151004E+01  0.00000000000E+00 0.  1.
</event>
<event>
 7    1  0.2834226E-010  0.4778727E+02  0.7816164E-02  0.1312668E+00
        -11   -1    0    0    0    0  0.00000000000E+00  0.00000000000E+00  0.45593999997E+02  0.45594000000E+02  0.51100000000E-03 0. -1.
         11   -1    0    0    0    0 -0.00000000000E+00 -0.00000000000E+00 -0.45593999997E+02  0.45594000000E+02  0.51100000000E-03 0.  1.
    9900012    2    1    2    0    0  0.32991247734E+02  0.14745884533E+01  0.28160725578E+02  0.47787270706E+02  0.19999998458E+02 0.  0.
        -12    1    1    2    0    0 -0.32991247734E+02 -0.14745884533E+01 -0.28160725578E+02  0.43400729294E+02  0.00000000000E+00 0.  1.
         11    1    3    3    0    0  0.22678124898E+02 -0.55947010735E+01  0.25167844416E+02  0.34336837679E+02  0.51100000000E-03 0. -1.
        -11    1    3    3    0    0  0.53716224592E+01  0.22464968587E+01 -0.23735381857E+00  0.58272989521E+01  0.51100000000E-03 0.  1.
         12    1    3    3    0    0  0.49415003770E+01  0.48227926681E+01  0.32302349802E+01  0.76231340749E+01  0.00000000000E+00 0. -1.
</event>
<event>
 7    1  0.2834226E-010  0.4778727E+02  0.7816164E-02  0.1312668E+00
        -11   -1    0    0    0    0  0.00000000000E+00  0.00000000000E+00  0.45593999997E+02  0.45594000000E+02  0.51100000000E-03 0.  1.
         11   -1    0    0    0    0 -0.00000000000E+00 -0.00000000000E+00 -0.45593999997E+02  0.45594000000E+02  0.51100000000E-03 0. -1.
    9900012    2    1    2    0    0 -0.42935395724E+02  0.19715773361E+01 -0.60239488989E+01  0.47787270934E+02  0.19999999496E+02 0.  0.
        -12    1    1    2    0    0  0.42935395724E+02 -0.19715773361E+01  0.60239488989E+01  0.43400729066E+02  0.00000000000E+00 0.  1.
         11    1    3    3    0    0 -0.23415425251E+01  0.42382318606E+01  0.16733491890E+01  0.51230389878E+01  0.51100000000E-03 0.  1.
        -11    1    3    3    0    0 -0.32618258052E+02 -0.24313356099E+01 -0.10268655810E+02  0.34282757235E+02  0.51100000000E-03 0. -1.
         12    1    3    3    0    0 -0.79755951461E+01  0.16468108537E+00  0.25713577223E+01  0.83814747110E+01  0.00000000000E+00 0. -1.
</event>
<event>
 7    1  0.2834226E-010  0.4778727E+02  0.7816164E-02  0.1312668E+00
        -11   -1    0    0    0    0  0.00000000000E+00  0.00000000000E+00  0.45593999997E+02  0.45594000000E+02  0.51100000000E-03 0.  1.
         11   -1    0    0    0    0 -0.00000000000E+00 -0.00000000000E+00 -0.45593999997E+02  0.45594000000E+02  0.51100000000E-03 0. -1.
    9900012    2    1    2    0    0 -0.19213019228E+01 -0.47546906794E+01 -0.43096687700E+02  0.47787274484E+02  0.20000015684E+02 0.  0.
        -12    1    1    2    0    0  0.19213019228E+01  0.47546906794E+01  0.43096687700E+02  0.43400725516E+02  0.00000000000E+00 0.  1.
         11    1    3    3    0    0 -0.37413507938E+01  0.45707208713E+01 -0.88033707268E+01  0.10601345738E+02  0.51100000000E-03 0. -1.
        -11    1    3    3    0    0  0.29228417770E+01 -0.81348627711E+01 -0.34484972971E+02  0.35551826359E+02  0.51100000000E-03 0.  1.
        -12    1    3    3    0    0 -0.11027929061E+01 -0.11905487795E+01  0.19165599785E+00  0.16341023872E+01  0.00000000000E+00 0.  1.
</event>
<event>
 7    1  0.2834226E-010  0.4778727E+02  0.7816164E-02  0.1312668E+00
        -11   -1    0    0    0    0  0.00000000000E+00  0.00000000000E+00  0.45593999997E+02  0.45594000000E+02  0.51100000000E-03 0.  1.
         11   -1    0    0    0    0 -0.00000000000E+00 -0.00000000000E+00 -0.45593999997E+02  0.45594000000E+02  0.51100000000E-03 0. -1.
    9900012    2    1    2    0    0  0.71148149398E+01 -0.42022828949E+02  0.81904989656E+01  0.47787273994E+02  0.20000013449E+02 0.  0.
        -12    1    1    2    0    0 -0.71148149398E+01  0.42022828949E+02 -0.81904989656E+01  0.43400726006E+02  0.00000000000E+00 0.  1.
         11    1    3    3    0    0 -0.47166240812E+01 -0.18036879883E+02  0.26414387720E+01  0.18829571894E+02  0.51100000000E-03 0. -1.
        -11    1    3    3    0    0 -0.32606755718E+00  0.21465775695E+00 -0.10178818054E+01  0.10901750480E+01  0.51100000000E-03 0.  1.
         12    1    3    3    0    0  0.12157506578E+02 -0.24200606823E+02  0.65669419990E+01  0.27867527052E+02  0.00000000000E+00 0. -1.
</event>
<event>
 7    1  0.2834226E-010  0.4778728E+02  0.7816164E-02  0.1312668E+00
        -11   -1    0    0    0    0  0.00000000000E+00  0.00000000000E+00  0.45593999997E+02  0.45594000000E+02  0.51100000000E-03 0.  1.
         11   -1    0    0    0    0 -0.00000000000E+00 -0.00000000000E+00 -0.45593999997E+02  0.45594000000E+02  0.51100000000E-03 0. -1.
    9900012    2    1    2    0    0 -0.17151477453E+02  0.22259877914E+02 -0.33074872290E+02  0.47787279723E+02  0.20000039571E+02 0.  0.
        -12    1    1    2    0    0  0.17151477453E+02 -0.22259877914E+02  0.33074872290E+02  0.43400720277E+02  0.00000000000E+00 0.  1.
         11    1    3    3    0    0 -0.76000861924E+01  0.84863934537E+00 -0.14882810307E+01  0.77907945396E+01  0.51100000000E-03 0. -1.
        -11    1    3    3    0    0 -0.52882114821E+01  0.15113277009E+02 -0.26095245363E+02  0.30615978728E+02  0.51100000000E-03 0.  1.
         12    1    3    3    0    0 -0.42631797785E+01  0.62979615590E+01 -0.54913458957E+01  0.93805064559E+01  0.00000000000E+00 0. -1.
</event>
<event>
 7    1  0.2834226E-010  0.4778727E+02  0.7816164E-02  0.1312668E+00
        -11   -1    0    0    0    0  0.00000000000E+00  0.00000000000E+00  0.45593999997E+02  0.45594000000E+02  0.51100000000E-03 0. -1.
         11   -1    0    0    0    0 -0.00000000000E+00 -0.00000000000E+00 -0.45593999997E+02  0.45594000000E+02  0.51100000000E-03 0.  1.
    9900012    2    1    2    0    0  0.22104216912E+01  0.32320840388E+02  0.28880800227E+02  0.47787270638E+02  0.19999998145E+02 0.  0.
        -12    1    1    2    0    0 -0.22104216912E+01 -0.32320840388E+02 -0.28880800227E+02  0.43400729362E+02  0.00000000000E+00 0.  1.
         11    1    3    3    0    0  0.76015496266E+01  0.17782136582E+02  0.24890017083E+02  0.31519849124E+02  0.51100000000E-03 0. -1.
        -11    1    3    3    0    0 -0.35992149334E+01  0.56233116058E+01  0.17176049597E+01  0.68939211348E+01  0.51100000000E-03 0.  1.
         12    1    3    3    0    0 -0.17919130019E+01  0.89153922010E+01  0.22731781841E+01  0.93735003793E+01  0.00000000000E+00 0. -1.
</event>
<event>
 7    1  0.2834226E-010  0.4778727E+02  0.7816164E-02  0.1312668E+00
        -11   -1    0    0    0    0  0.00000000000E+00  0.00000000000E+00  0.45593999997E+02  0.45594000000E+02  0.51100000000E-03 0.  1.
         11   -1    0    0    0    0 -0.00000000000E+00 -0.00000000000E+00 -0.45593999997E+02  0.45594000000E+02  0.51100000000E-03 0. -1.
    9900012    2    1    2    0    0  0.21868956024E+02  0.19080408619E+02 -0.32269331304E+02  0.47787274505E+02  0.20000015779E+02 0.  0.
        -12    1    1    2    0    0 -0.21868956024E+02 -0.19080408619E+02  0.32269331304E+02  0.43400725495E+02  0.00000000000E+00 0.  1.
         11    1    3    3    0    0  0.11440831886E+02  0.82010473951E+01 -0.26005342681E+02  0.29570723036E+02  0.51100000000E-03 0. -1.
        -11    1    3    3    0    0  0.10946302755E+02  0.65885670518E+01 -0.44439055542E+01  0.13526975147E+02  0.51100000000E-03 0.  1.
         12    1    3    3    0    0 -0.51817861650E+00  0.42907941723E+01 -0.18200830683E+01  0.46895763224E+01  0.00000000000E+00 0. -1.
</event>
<event>
 7    1  0.2834226E-010  0.4778727E+02  0.7816164E-02  0.1312668E+00
        -11   -1    0    0    0    0  0.00000000000E+00  0.00000000000E+00  0.45593999997E+02  0.45594000000E+02  0.51100000000E-03 0. -1.
         11   -1    0    0    0    0 -0.00000000000E+00 -0.00000000000E+00 -0.45593999997E+02  0.45594000000E+02  0.51100000000E-03 0.  1.
    9900012    2    1    2    0    0  0.34542643884E+02  0.19283669136E+02  0.17848501133E+02  0.47787272649E+02  0.20000007318E+02 0.  0.
        -12    1    1    2    0    0 -0.34542643884E+02 -0.19283669136E+02 -0.17848501133E+02  0.43400727351E+02  0.00000000000E+00 0.  1.
         11    1    3    3    0    0  0.19640321044E+02  0.15072334619E+02  0.12160560251E+02  0.27582543528E+02  0.51100000000E-03 0. -1.
        -11    1    3    3    0    0 -0.51595166514E+00  0.24454866339E+01 -0.16941201194E+01  0.30193797770E+01  0.51100000000E-03 0.  1.
        -12    1    3    3    0    0  0.15418274506E+02  0.17658478831E+01  0.73820610015E+01  0.17185349345E+02  0.00000000000E+00 0.  1.
</event>
<event>
 7    1  0.2834226E-010  0.4778723E+02  0.7816164E-02  0.1312668E+00
        -11   -1    0    0    0    0  0.00000000000E+00  0.00000000000E+00  0.45593999997E+02  0.45594000000E+02  0.51100000000E-03 0.  1.
         11   -1    0    0    0    0 -0.00000000000E+00 -0.00000000000E+00 -0.45593999997E+02  0.45594000000E+02  0.51100000000E-03 0. -1.
    9900012    2    1    2    0    0  0.99245690575E+01 -0.15802645633E+02 -0.39184259160E+02  0.47787229893E+02  0.19999812372E+02 0.  0.
        -12    1    1    2    0    0 -0.99245690575E+01  0.15802645633E+02  0.39184259160E+02  0.43400770107E+02  0.00000000000E+00 0.  1.
         11    1    3    3    0    0  0.51759785185E+01 -0.70144180244E+01 -0.32034809416E+02  0.33199726331E+02  0.51100000000E-03 0. -1.
        -11    1    3    3    0    0  0.27686904032E+01 -0.87729286609E+01 -0.24985846850E+01  0.95327251890E+01  0.51100000000E-03 0.  1.
        -12    1    3    3    0    0  0.19799001358E+01 -0.15298947842E-01 -0.46508650585E+01  0.50547783728E+01  0.00000000000E+00 0.  1.
</event>
<event>
 7    1  0.2834226E-010  0.4778727E+02  0.7816164E-02  0.1312668E+00
        -11   -1    0    0    0    0  0.00000000000E+00  0.00000000000E+00  0.45593999997E+02  0.45594000000E+02  0.51100000000E-03 0. -1.
         11   -1    0    0    0    0 -0.00000000000E+00 -0.00000000000E+00 -0.45593999997E+02  0.45594000000E+02  0.51100000000E-03 0.  1.
    9900012    2    1    2    0    0  0.11824363743E+02 -0.41748278599E+02 -0.94286637748E+00  0.47787270272E+02  0.19999996477E+02 0.  0.
        -12    1    1    2    0    0 -0.11824363743E+02  0.41748278599E+02  0.94286637748E+00  0.43400729728E+02  0.00000000000E+00 0.  1.
         11    1    3    3    0    0 -0.29025102744E+01 -0.20453806398E+01 -0.65419784902E+00  0.36105571511E+01  0.51100000000E-03 0.  1.
        -11    1    3    3    0    0  0.13065714671E+02 -0.38451619625E+02  0.25118468452E+01  0.40688442173E+02  0.51100000000E-03 0. -1.
         12    1    3    3    0    0  0.16611593470E+01 -0.12512783348E+01 -0.28005153737E+01  0.34882709479E+01  0.00000000000E+00 0. -1.
</event>
<event>
 7    1  0.2834226E-010  0.4778727E+02  0.7816164E-02  0.1312668E+00
        -11   -1    0    0    0    0  0.00000000000E+00  0.00000000000E+00  0.45593999997E+02  0.45594000000E+02  0.51100000000E-03 0. -1.
         11   -1    0    0    0    0 -0.00000000000E+00 -0.00000000000E+00 -0.45593999997E+02  0.45594000000E+02  0.51100000000E-03 0.  1.
    9900012    2    1    2    0    0  0.23475739586E+02 -0.34780373695E+02  0.11083252497E+02  0.47787271557E+02  0.20000002335E+02 0.  0.
        -12    1    1    2    0    0 -0.23475739586E+02  0.34780373695E+02 -0.11083252497E+02  0.43400728443E+02  0.00000000000E+00 0.  1.
         11    1    3    3    0    0  0.14752454064E+02 -0.20450026826E+02  0.67850671711E+01  0.26112748512E+02  0.51100000000E-03 0. -1.
        -11    1    3    3    0    0 -0.20039919168E+01 -0.67816647798E+01 -0.16660657710E+01  0.72651728268E+01  0.51100000000E-03 0.  1.
        -12    1    3    3    0    0  0.10727277440E+02 -0.75486820897E+01  0.59642510971E+01  0.14409350218E+02  0.00000000000E+00 0.  1.
</event>
<event>
 7    1  0.2834226E-010  0.4778728E+02  0.7816164E-02  0.1312668E+00
        -11   -1    0    0    0    0  0.00000000000E+00  0.00000000000E+00  0.45593999997E+02  0.45594000000E+02  0.51100000000E-03 0.  1.
         11   -1    0    0    0    0 -0.00000000000E+00 -0.00000000000E+00 -0.45593999997E+02  0.45594000000E+02  0.51100000000E-03 0. -1.
    9900012    2    1    2    0    0  0.36484138513E+02 -0.22518054529E+02 -0.67429739754E+01  0.47787276033E+02  0.20000022747E+02 0.  0.
        -12    1    1    2    0    0 -0.36484138513E+02  0.22518054529E+02  0.67429739754E+01  0.43400723967E+02  0.00000000000E+00 0.  1.
         11    1    3    3    0    0  0.30737082247E+02 -0.13851475401E+02 -0.25966997851E+01  0.33813820339E+02  0.51100000000E-03 0. -1.
        -11    1    3    3    0    0  0.59871652319E+01 -0.10177674084E+02 -0.35358123356E+01  0.12326117248E+02  0.51100000000E-03 0.  1.
         12    1    3    3    0    0 -0.24010896655E+00  0.15110949561E+01 -0.61046185472E+00  0.16473384468E+01  0.00000000000E+00 0. -1.
</event>
<event>
 7    1  0.2834226E-010  0.4778727E+02  0.7816164E-02  0.1312668E+00
        -11   -1    0    0    0    0  0.00000000000E+00  0.00000000000E+00  0.45593999997E+02  0.45594000000E+02  0.51100000000E-03 0. -1.
         11   -1    0    0    0    0 -0.00000000000E+00 -0.00000000000E+00 -0.45593999997E+02  0.45594000000E+02  0.51100000000E-03 0.  1.
    9900012    2    1    2    0    0  0.37491513006E+02 -0.86117560124E+01 -0.20095948688E+02  0.47787273707E+02  0.20000012140E+02 0.  0.
        -12    1    1    2    0    0 -0.37491513006E+02  0.86117560124E+01  0.20095948688E+02  0.43400726293E+02  0.00000000000E+00 0.  1.
         11    1    3    3    0    0  0.35616230419E+02 -0.10948919154E+02 -0.14905489675E+02  0.40131886607E+02  0.51100000000E-03 0. -1.
        -11    1    3    3    0    0  0.10913769607E+01  0.37171770897E+01 -0.27759714747E+01  0.47659759836E+01  0.51100000000E-03 0.  1.
         12    1    3    3    0    0  0.78390562602E+00 -0.13800139482E+01 -0.24144875386E+01  0.28894111168E+01  0.00000000000E+00 0. -1.
</event>
<event>
 7    1  0.2834226E-010  0.4778727E+02  0.7816164E-02  0.1312668E+00
        -11   -1    0    0    0    0  0.00000000000E+00  0.00000000000E+00  0.45593999997E+02  0.45594000000E+02  0.51100000000E-03 0.  1.
         11   -1    0    0    0    0 -0.00000000000E+00 -0.00000000000E+00 -0.45593999997E+02  0.45594000000E+02  0.51100000000E-03 0. -1.
    9900012    2    1    2    0    0 -0.34092665188E+02  0.26852320768E+02  0.51622290193E+00  0.47787269172E+02  0.19999991465E+02 0.  0.
        -12    1    1    2    0    0  0.34092665188E+02 -0.26852320768E+02 -0.51622290193E+00  0.43400730828E+02  0.00000000000E+00 0.  1.
         11    1    3    3    0    0 -0.26304826245E+02  0.13629773583E+02 -0.29723572653E+01  0.29774981438E+02  0.51100000000E-03 0. -1.
        -11    1    3    3    0    0 -0.78121982708E+01  0.14050747236E+02  0.18583113773E+01  0.16183549090E+02  0.51100000000E-03 0.  1.
         12    1    3    3    0    0  0.24359327512E-01 -0.82820005035E+00  0.16302687899E+01  0.18287386438E+01  0.00000000000E+00 0. -1.
</event>
<event>
 7    1  0.2834226E-010  0.4778727E+02  0.7816164E-02  0.1312668E+00
        -11   -1    0    0    0    0  0.00000000000E+00  0.00000000000E+00  0.45593999997E+02  0.45594000000E+02  0.51100000000E-03 0.  1.
         11   -1    0    0    0    0 -0.00000000000E+00 -0.00000000000E+00 -0.45593999997E+02  0.45594000000E+02  0.51100000000E-03 0. -1.
    9900012    2    1    2    0    0  0.27700474370E+02 -0.22955336068E+02  0.24276727028E+02  0.47787271786E+02  0.20000003380E+02 0.  0.
        -12    1    1    2    0    0 -0.27700474370E+02  0.22955336068E+02 -0.24276727028E+02  0.43400728214E+02  0.00000000000E+00 0.  1.
         11    1    3    3    0    0  0.16962449848E+02 -0.22286853034E+02  0.15661956403E+02  0.32089334702E+02  0.51100000000E-03 0. -1.
        -11    1    3    3    0    0  0.28708350460E+01  0.31847267285E+01  0.36361350788E+01  0.56218908535E+01  0.51100000000E-03 0.  1.
        -12    1    3    3    0    0  0.78671894762E+01 -0.38532097622E+01  0.49786355466E+01  0.10076046230E+02  0.00000000000E+00 0.  1.
</event>
<event>
 7    1  0.2834226E-010  0.4778728E+02  0.7816164E-02  0.1312668E+00
        -11   -1    0    0    0    0  0.00000000000E+00  0.00000000000E+00  0.45593999997E+02  0.45594000000E+02  0.51100000000E-03 0. -1.
         11   -1    0    0    0    0 -0.00000000000E+00 -0.00000000000E+00 -0.45593999997E+02  0.45594000000E+02  0.51100000000E-03 0.  1.
    9900012    2    1    2    0    0 -0.11136498388E+01 -0.21043271624E+02  0.37941577493E+02  0.47787276513E+02  0.20000024933E+02 0.  0.
        -12    1    1    2    0    0  0.11136498388E+01  0.21043271624E+02 -0.37941577493E+02  0.43400723487E+02  0.00000000000E+00 0.  1.
         11    1    3    3    0    0  0.72976829498E+01 -0.72271280297E+01  0.18911546299E+02  0.21520551566E+02  0.51100000000E-03 0. -1.
        -11    1    3    3    0    0 -0.65898406220E+01 -0.89610529317E+01  0.69377781525E+01  0.13109509336E+02  0.51100000000E-03 0.  1.
        -12    1    3    3    0    0 -0.18214921665E+01 -0.48550906621E+01  0.12092253041E+02  0.13157215612E+02  0.00000000000E+00 0.  1.
</event>
<event>
 7    1  0.2834226E-010  0.4778726E+02  0.7816164E-02  0.1312668E+00
        -11   -1    0    0    0    0  0.00000000000E+00  0.00000000000E+00  0.45593999997E+02  0.45594000000E+02  0.51100000000E-03 0.  1.
         11   -1    0    0    0    0 -0.00000000000E+00 -0.00000000000E+00 -0.45593999997E+02  0.45594000000E+02  0.51100000000E-03 0. -1.
    9900012    2    1    2    0    0 -0.81806738454E+01 -0.86272487782E+01 -0.41740522691E+02  0.47787261751E+02  0.19999957627E+02 0.  0.
        -12    1    1    2    0    0  0.81806738454E+01  0.86272487782E+01  0.41740522691E+02  0.43400738249E+02  0.00000000000E+00 0.  1.
         11    1    3    3    0    0 -0.56356512603E+01  0.28215152032E+01 -0.11239695312E+02  0.12886126809E+02  0.51100000000E-03 0. -1.
        -11    1    3    3    0    0 -0.73225287761E+01 -0.59714958106E+01 -0.20127712833E+02  0.22235175152E+02  0.51100000000E-03 0.  1.
         12    1    3    3    0    0  0.47775061910E+01 -0.54772681708E+01 -0.10373114547E+02  0.12665959791E+02  0.00000000000E+00 0. -1.
</event>
<event>
 7    1  0.2834226E-010  0.4778725E+02  0.7816164E-02  0.1312668E+00
        -11   -1    0    0    0    0  0.00000000000E+00  0.00000000000E+00  0.45593999997E+02  0.45594000000E+02  0.51100000000E-03 0. -1.
         11   -1    0    0    0    0 -0.00000000000E+00 -0.00000000000E+00 -0.45593999997E+02  0.45594000000E+02  0.51100000000E-03 0.  1.
    9900012    2    1    2    0    0  0.13478352509E+02  0.31517357395E+02  0.26619827677E+02  0.47787250823E+02  0.19999907804E+02 0.  0.
        -12    1    1    2    0    0 -0.13478352509E+02 -0.31517357395E+02 -0.26619827677E+02  0.43400749177E+02  0.00000000000E+00 0.  1.
         11    1    3    3    0    0  0.91028575007E+01  0.71027545448E+01  0.16833531338E+02  0.20412714527E+02  0.51100000000E-03 0. -1.
        -11    1    3    3    0    0  0.32133118626E+01  0.17252663478E+02  0.98378647625E+01  0.20118731410E+02  0.51100000000E-03 0.  1.
         12    1    3    3    0    0  0.11621831458E+01  0.71619393728E+01 -0.51568423600E-01  0.72558048862E+01  0.00000000000E+00 0. -1.
</event>
<event>
 7    1  0.2834226E-010  0.4778727E+02  0.7816164E-02  0.1312668E+00
        -11   -1    0    0    0    0  0.00000000000E+00  0.00000000000E+00  0.45593999997E+02  0.45594000000E+02  0.51100000000E-03 0.  1.
         11   -1    0    0    0    0 -0.00000000000E+00 -0.00000000000E+00 -0.45593999997E+02  0.45594000000E+02  0.51100000000E-03 0. -1.
    9900012    2    1    2    0    0 -0.40857421781E+02 -0.12921125594E+02 -0.68803191471E+01  0.47787271979E+02  0.20000004262E+02 0.  0.
        -12    1    1    2    0    0  0.40857421781E+02  0.12921125594E+02  0.68803191471E+01  0.43400728021E+02  0.00000000000E+00 0.  1.
         11    1    3    3    0    0 -0.24177419489E+02 -0.14034731163E+01  0.19563940255E+01  0.24297012734E+02  0.51100000000E-03 0. -1.
        -11    1    3    3    0    0 -0.14868462103E+02 -0.12261945593E+02 -0.94135774759E+01  0.21448587744E+02  0.51100000000E-03 0.  1.
        -12    1    3    3    0    0 -0.18115401879E+01  0.74429311587E+00  0.57686430329E+00  0.20416715012E+01  0.00000000000E+00 0.  1.
</event>
<event>
 7    1  0.2834226E-010  0.4778727E+02  0.7816164E-02  0.1312668E+00
        -11   -1    0    0    0    0  0.00000000000E+00  0.00000000000E+00  0.45593999997E+02  0.45594000000E+02  0.51100000000E-03 0.  1.
         11   -1    0    0    0    0 -0.00000000000E+00 -0.00000000000E+00 -0.45593999997E+02  0.45594000000E+02  0.51100000000E-03 0. -1.
    9900012    2    1    2    0    0  0.12397670242E+02 -0.64995758510E+01 -0.41081342710E+02  0.47787269217E+02  0.19999991666E+02 0.  0.
        -12    1    1    2    0    0 -0.12397670242E+02  0.64995758510E+01  0.41081342710E+02  0.43400730783E+02  0.00000000000E+00 0.  1.
         11    1    3    3    0    0  0.35416037507E+01 -0.35835272447E+01 -0.29662568875E+02  0.30087416259E+02  0.51100000000E-03 0. -1.
        -11    1    3    3    0    0  0.10057174709E+02  0.14034046437E+00 -0.97826483590E+01  0.14030918279E+02  0.51100000000E-03 0.  1.
         12    1    3    3    0    0 -0.12011082174E+01 -0.30563890706E+01 -0.16361254761E+01  0.36689346784E+01  0.00000000000E+00 0. -1.
</event>
<event>
 7    1  0.2834226E-010  0.4778727E+02  0.7816164E-02  0.1312668E+00
        -11   -1    0    0    0    0  0.00000000000E+00  0.00000000000E+00  0.45593999997E+02  0.45594000000E+02  0.51100000000E-03 0.  1.
         11   -1    0    0    0    0 -0.00000000000E+00 -0.00000000000E+00 -0.45593999997E+02  0.45594000000E+02  0.51100000000E-03 0. -1.
    9900012    2    1    2    0    0 -0.38009281719E+02  0.33240124089E-01 -0.20950333456E+02  0.47787273351E+02  0.20000010518E+02 0.  0.
        -12    1    1    2    0    0  0.38009281719E+02 -0.33240124089E-01  0.20950333456E+02  0.43400726649E+02  0.00000000000E+00 0.  1.
         11    1    3    3    0    0 -0.19781523738E+02  0.61860970376E+01 -0.16279777553E+02  0.26355409984E+02  0.51100000000E-03 0. -1.
        -11    1    3    3    0    0 -0.67430742897E+01 -0.62257559848E+01 -0.37362128453E+01  0.99090047505E+01  0.51100000000E-03 0.  1.
        -12    1    3    3    0    0 -0.11484683691E+02  0.72899071303E-01 -0.93434305770E+00  0.11522858617E+02  0.00000000000E+00 0.  1.
</event>
<event>
 7    1  0.2834226E-010  0.4778727E+02  0.7816164E-02  0.1312668E+00
        -11   -1    0    0    0    0  0.00000000000E+00  0.00000000000E+00  0.45593999997E+02  0.45594000000E+02  0.51100000000E-03 0.  1.
         11   -1    0    0    0    0 -0.00000000000E+00 -0.00000000000E+00 -0.45593999997E+02  0.45594000000E+02  0.51100000000E-03 0. -1.
    9900012    2    1    2    0    0 -0.84031530213E+01  0.13002996042E+02 -0.40545439175E+02  0.47787268155E+02  0.19999986825E+02 0.  0.
        -12    1    1    2    0    0  0.84031530213E+01 -0.13002996042E+02  0.40545439175E+02  0.43400731845E+02  0.00000000000E+00 0.  1.
         11    1    3    3    0    0 -0.10515576295E+02  0.59904083915E+01 -0.23018386459E+02  0.26005931111E+02  0.51100000000E-03 0. -1.
        -11    1    3    3    0    0  0.31208728475E+01  0.67067784193E+00 -0.14189660099E+02  0.14544281010E+02  0.51100000000E-03 0.  1.
        -12    1    3    3    0    0 -0.10084495737E+01  0.63419098084E+01 -0.33373926174E+01  0.72370560343E+01  0.00000000000E+00 0.  1.
</event>
<event>
 7    1  0.2834226E-010  0.4778727E+02  0.7816164E-02  0.1312668E+00
        -11   -1    0    0    0    0  0.00000000000E+00  0.00000000000E+00  0.45593999997E+02  0.45594000000E+02  0.51100000000E-03 0.  1.
         11   -1    0    0    0    0 -0.00000000000E+00 -0.00000000000E+00 -0.45593999997E+02  0.45594000000E+02  0.51100000000E-03 0. -1.
    9900012    2    1    2    0    0 -0.19815142653E+02  0.35193196738E+02 -0.15887805940E+02  0.47787270137E+02  0.19999995863E+02 0.  0.
        -12    1    1    2    0    0  0.19815142653E+02 -0.35193196738E+02  0.15887805940E+02  0.43400729863E+02  0.00000000000E+00 0.  1.
         11    1    3    3    0    0 -0.10259982090E+02  0.28025140554E+02 -0.70302736528E+01  0.30661058095E+02  0.51100000000E-03 0. -1.
        -11    1    3    3    0    0 -0.12165544187E+01  0.42597782829E+01 -0.67051811610E+01  0.80364899263E+01  0.51100000000E-03 0.  1.
         12    1    3    3    0    0 -0.83386061443E+01  0.29082779011E+01 -0.21523511265E+01  0.90897221162E+01  0.00000000000E+00 0. -1.
</event>
<event>
 7    1  0.2834226E-010  0.4778727E+02  0.7816164E-02  0.1312668E+00
        -11   -1    0    0    0    0  0.00000000000E+00  0.00000000000E+00  0.45593999997E+02  0.45594000000E+02  0.51100000000E-03 0.  1.
         11   -1    0    0    0    0 -0.00000000000E+00 -0.00000000000E+00 -0.45593999997E+02  0.45594000000E+02  0.51100000000E-03 0. -1.
    9900012    2    1    2    0    0 -0.29456268866E+02 -0.72753085316E+01 -0.31032587331E+02  0.47787269981E+02  0.19999995150E+02 0.  0.
        -12    1    1    2    0    0  0.29456268866E+02  0.72753085316E+01  0.31032587331E+02  0.43400730019E+02  0.00000000000E+00 0.  1.
         11    1    3    3    0    0 -0.11961371106E+02 -0.33399187739E+01 -0.18546229447E+02  0.22320216914E+02  0.51100000000E-03 0. -1.
        -11    1    3    3    0    0 -0.16735941210E+02 -0.62029381219E+00 -0.53825515544E+01  0.17591144195E+02  0.51100000000E-03 0.  1.
        -12    1    3    3    0    0 -0.75895654998E+00 -0.33150959454E+01 -0.71038063299E+01  0.78759088710E+01  0.00000000000E+00 0.  1.
</event>
<event>
 7    1  0.2834226E-010  0.4778726E+02  0.7816164E-02  0.1312668E+00
        -11   -1    0    0    0    0  0.00000000000E+00  0.00000000000E+00  0.45593999997E+02  0.45594000000E+02  0.51100000000E-03 0.  1.
         11   -1    0    0    0    0 -0.00000000000E+00 -0.00000000000E+00 -0.45593999997E+02  0.45594000000E+02  0.51100000000E-03 0. -1.
    9900012    2    1    2    0    0  0.79520660421E+01 -0.40465430976E+02 -0.13525433211E+02  0.47787264960E+02  0.19999972261E+02 0.  0.
        -12    1    1    2    0    0 -0.79520660421E+01  0.40465430976E+02  0.13525433211E+02  0.43400735040E+02  0.00000000000E+00 0.  1.
         11    1    3    3    0    0  0.83533879468E+01 -0.24744855469E+02 -0.12099562606E+02  0.28783439299E+02  0.51100000000E-03 0. -1.
        -11    1    3    3    0    0 -0.40691954666E+01 -0.89280486493E+01  0.27998965334E+01  0.10203324227E+02  0.51100000000E-03 0.  1.
        -12    1    3    3    0    0  0.36678735619E+01 -0.67925268576E+01 -0.42257671383E+01  0.88005014337E+01  0.00000000000E+00 0.  1.
</event>
<event>
 7    1  0.2834226E-010  0.4778727E+02  0.7816164E-02  0.1312668E+00
        -11   -1    0    0    0    0  0.00000000000E+00  0.00000000000E+00  0.45593999997E+02  0.45594000000E+02  0.51100000000E-03 0.  1.
         11   -1    0    0    0    0 -0.00000000000E+00 -0.00000000000E+00 -0.45593999997E+02  0.45594000000E+02  0.51100000000E-03 0. -1.
    9900012    2    1    2    0    0  0.20346725387E+02 -0.21837591472E+02 -0.31507994099E+02  0.47787270428E+02  0.19999997191E+02 0.  0.
        -12    1    1    2    0    0 -0.20346725387E+02  0.21837591472E+02  0.31507994099E+02  0.43400729572E+02  0.00000000000E+00 0.  1.
         11    1    3    3    0    0  0.58518438130E+01 -0.57399569239E+01 -0.65305517678E+01  0.10480424045E+02  0.51100000000E-03 0. -1.
        -11    1    3    3    0    0  0.11772736481E+02 -0.11379380113E+02 -0.26932858734E+02  0.31519303544E+02  0.51100000000E-03 0.  1.
        -12    1    3    3    0    0  0.27221450927E+01 -0.47182544342E+01  0.19554164036E+01  0.57875428399E+01  0.00000000000E+00 0.  1.
</event>
<event>
 7    1  0.2834226E-010  0.4778728E+02  0.7816164E-02  0.1312668E+00
        -11   -1    0    0    0    0  0.00000000000E+00  0.00000000000E+00  0.45593999997E+02  0.45594000000E+02  0.51100000000E-03 0.  1.
         11   -1    0    0    0    0 -0.00000000000E+00 -0.00000000000E+00 -0.45593999997E+02  0.45594000000E+02  0.51100000000E-03 0. -1.
    9900012    2    1    2    0    0  0.30474796065E+02 -0.19332127685E+02 -0.24107645276E+02  0.47787275158E+02  0.20000018756E+02 0.  0.
        -12    1    1    2    0    0 -0.30474796065E+02  0.19332127685E+02  0.24107645276E+02  0.43400724842E+02  0.00000000000E+00 0.  1.
         11    1    3    3    0    0  0.18510230270E+02 -0.21485769971E+02 -0.20622591723E+02  0.35065057044E+02  0.51100000000E-03 0. -1.
        -11    1    3    3    0    0  0.69289200278E+01  0.18488797475E+01 -0.23971546067E+01  0.75613913760E+01  0.51100000000E-03 0.  1.
         12    1    3    3    0    0  0.50356457676E+01  0.30476253825E+00 -0.10878989466E+01  0.51608267380E+01  0.00000000000E+00 0. -1.
</event>
<event>
 7    1  0.2834226E-010  0.4778727E+02  0.7816164E-02  0.1312668E+00
        -11   -1    0    0    0    0  0.00000000000E+00  0.00000000000E+00  0.45593999997E+02  0.45594000000E+02  0.51100000000E-03 0.  1.
         11   -1    0    0    0    0 -0.00000000000E+00 -0.00000000000E+00 -0.45593999997E+02  0.45594000000E+02  0.51100000000E-03 0. -1.
    9900012    2    1    2    0    0  0.21259864716E+02  0.36943881260E+02  0.81725733130E+01  0.47787272300E+02  0.20000005726E+02 0.  0.
        -12    1    1    2    0    0 -0.21259864716E+02 -0.36943881260E+02 -0.81725733130E+01  0.43400727700E+02  0.00000000000E+00 0.  1.
         11    1    3    3    0    0  0.11667024154E+02  0.24358009977E+02 -0.15073544293E+01  0.27050031798E+02  0.51100000000E-03 0. -1.
        -11    1    3    3    0    0 -0.22375507740E+00  0.70806993828E+01  0.37909685417E+01  0.80347876655E+01  0.51100000000E-03 0.  1.
         12    1    3    3    0    0  0.98165956394E+01  0.55051719001E+01  0.58889592005E+01  0.12702452836E+02  0.00000000000E+00 0. -1.
</event>
<event>
 7    1  0.2834226E-010  0.4778726E+02  0.7816164E-02  0.1312668E+00
        -11   -1    0    0    0    0  0.00000000000E+00  0.00000000000E+00  0.45593999997E+02  0.45594000000E+02  0.51100000000E-03 0.  1.
         11   -1    0    0    0    0 -0.00000000000E+00 -0.00000000000E+00 -0.45593999997E+02  0.45594000000E+02  0.51100000000E-03 0. -1.
    9900012    2    1    2    0    0 -0.26467814900E+02  0.22920542913E+02 -0.25646197046E+02  0.47787263417E+02  0.19999965224E+02 0.  0.
        -12    1    1    2    0    0  0.26467814900E+02 -0.22920542913E+02  0.25646197046E+02  0.43400736583E+02  0.00000000000E+00 0.  1.
         11    1    3    3    0    0 -0.10541397006E+02  0.84037771823E+01 -0.20313182328E+02  0.24379702588E+02  0.51100000000E-03 0. -1.
        -11    1    3    3    0    0 -0.16253456793E+02  0.14800041982E+02 -0.44554850636E+01  0.22429165116E+02  0.51100000000E-03 0.  1.
        -12    1    3    3    0    0  0.32703889868E+00 -0.28327625128E+00 -0.87752965474E+00  0.97839571275E+00  0.00000000000E+00 0.  1.
</event>
<event>
 7    1  0.2834226E-010  0.4778727E+02  0.7816164E-02  0.1312668E+00
        -11   -1    0    0    0    0  0.00000000000E+00  0.00000000000E+00  0.45593999997E+02  0.45594000000E+02  0.51100000000E-03 0.  1.
         11   -1    0    0    0    0 -0.00000000000E+00 -0.00000000000E+00 -0.45593999997E+02  0.45594000000E+02  0.51100000000E-03 0. -1.
    9900012    2    1    2    0    0  0.17766388877E+02  0.22237195490E+02  0.32764091283E+02  0.47787272880E+02  0.20000008368E+02 0.  0.
        -12    1    1    2    0    0 -0.17766388877E+02 -0.22237195490E+02 -0.32764091283E+02  0.43400727120E+02  0.00000000000E+00 0.  1.
         11    1    3    3    0    0  0.10334181944E+02  0.22383854726E+02  0.19903970810E+02  0.31685964134E+02  0.51100000000E-03 0. -1.
        -11    1    3    3    0    0  0.77057131268E+01  0.15519129291E+01  0.11385820058E+02  0.13835582648E+02  0.51100000000E-03 0.  1.
         12    1    3    3    0    0 -0.27350619363E+00 -0.16985721655E+01  0.14743004141E+01  0.22657260978E+01  0.00000000000E+00 0. -1.
</event>
<event>
 7    1  0.2834226E-010  0.4778727E+02  0.7816164E-02  0.1312668E+00
        -11   -1    0    0    0    0  0.00000000000E+00  0.00000000000E+00  0.45593999997E+02  0.45594000000E+02  0.51100000000E-03 0.  1.
         11   -1    0    0    0    0 -0.00000000000E+00 -0.00000000000E+00 -0.45593999997E+02  0.45594000000E+02  0.51100000000E-03 0. -1.
    9900012    2    1    2    0    0  0.93098205752E+01 -0.36449152818E+02 -0.21642775908E+02  0.47787271328E+02  0.20000001293E+02 0.  0.
        -12    1    1    2    0    0 -0.93098205752E+01  0.36449152818E+02  0.21642775908E+02  0.43400728672E+02  0.00000000000E+00 0.  1.
         11    1    3    3    0    0  0.10368758045E+02 -0.28976660642E+02 -0.15582557540E+02  0.34496001291E+02  0.51100000000E-03 0. -1.
        -11    1    3    3    0    0 -0.25454160195E+00  0.21352587571E+01 -0.70799370565E+00  0.22639294899E+01  0.51100000000E-03 0.  1.
        -12    1    3    3    0    0 -0.80439586740E+00 -0.96077509328E+01 -0.53522246624E+01  0.11027340547E+02  0.00000000000E+00 0.  1.
</event>
<event>
 7    1  0.2834226E-010  0.4778727E+02  0.7816164E-02  0.1312668E+00
        -11   -1    0    0    0    0  0.00000000000E+00  0.00000000000E+00  0.45593999997E+02  0.45594000000E+02  0.51100000000E-03 0. -1.
         11   -1    0    0    0    0 -0.00000000000E+00 -0.00000000000E+00 -0.45593999997E+02  0.45594000000E+02  0.51100000000E-03 0.  1.
    9900012    2    1    2    0    0  0.18185002737E+01  0.25240419137E+02  0.35259570731E+02  0.47787273859E+02  0.20000012831E+02 0.  0.
        -12    1    1    2    0    0 -0.18185002737E+01 -0.25240419137E+02 -0.35259570731E+02  0.43400726141E+02  0.00000000000E+00 0.  1.
         11    1    3    3    0    0 -0.68824254362E+00  0.98678500077E+01  0.15652257886E+02  0.18515974691E+02  0.51100000000E-03 0. -1.
        -11    1    3    3    0    0  0.27822543053E+01  0.17902759875E+02  0.19647406835E+02  0.26725836671E+02  0.51100000000E-03 0.  1.
        -12    1    3    3    0    0 -0.27551148789E+00 -0.25301907463E+01 -0.40093989748E-01  0.25454624964E+01  0.00000000000E+00 0.  1.
</event>
<event>
 7    1  0.2834226E-010  0.4778727E+02  0.7816164E-02  0.1312668E+00
        -11   -1    0    0    0    0  0.00000000000E+00  0.00000000000E+00  0.45593999997E+02  0.45594000000E+02  0.51100000000E-03 0.  1.
         11   -1    0    0    0    0 -0.00000000000E+00 -0.00000000000E+00 -0.45593999997E+02  0.45594000000E+02  0.51100000000E-03 0. -1.
    9900012    2    1    2    0    0  0.39876526559E+02  0.16628666809E+02 -0.41199326272E+01  0.47787265270E+02  0.19999973670E+02 0.  0.
        -12    1    1    2    0    0 -0.39876526559E+02 -0.16628666809E+02  0.41199326272E+01  0.43400734730E+02  0.00000000000E+00 0.  1.
         11    1    3    3    0    0  0.12898395996E+02  0.99560536686E+00  0.45324512321E+01  0.13707770196E+02  0.51100000000E-03 0.  1.
        -11    1    3    3    0    0  0.15697189777E+02  0.32261893376E+01 -0.25072468769E+01  0.16220245118E+02  0.51100000000E-03 0. -1.
         12    1    3    3    0    0  0.11280940787E+02  0.12406872104E+02 -0.61451369824E+01  0.17859249956E+02  0.00000000000E+00 0. -1.
</event>
<event>
 7    1  0.2834226E-010  0.4778725E+02  0.7816164E-02  0.1312668E+00
        -11   -1    0    0    0    0  0.00000000000E+00  0.00000000000E+00  0.45593999997E+02  0.45594000000E+02  0.51100000000E-03 0.  1.
         11   -1    0    0    0    0 -0.00000000000E+00 -0.00000000000E+00 -0.45593999997E+02  0.45594000000E+02  0.51100000000E-03 0. -1.
    9900012    2    1    2    0    0  0.57191288496E+01  0.17957123841E+02 -0.39095501247E+02  0.47787251744E+02  0.19999912003E+02 0.  0.
        -12    1    1    2    0    0 -0.57191288496E+01 -0.17957123841E+02  0.39095501247E+02  0.43400748256E+02  0.00000000000E+00 0.  1.
         11    1    3    3    0    0  0.31664461487E+01  0.84381692889E+01 -0.24527574637E+02  0.26131035188E+02  0.51100000000E-03 0. -1.
        -11    1    3    3    0    0 -0.24739968129E+01 -0.11097460737E+01  0.26981390715E+00  0.27248846552E+01  0.51100000000E-03 0.  1.
        -12    1    3    3    0    0  0.50266795139E+01  0.10628700625E+02 -0.14837740517E+02  0.18931331902E+02  0.00000000000E+00 0.  1.
</event>
<event>
 7    1  0.2834226E-010  0.4778733E+02  0.7816164E-02  0.1312668E+00
        -11   -1    0    0    0    0  0.00000000000E+00  0.00000000000E+00  0.45593999997E+02  0.45594000000E+02  0.51100000000E-03 0.  1.
         11   -1    0    0    0    0 -0.00000000000E+00 -0.00000000000E+00 -0.45593999997E+02  0.45594000000E+02  0.51100000000E-03 0. -1.
    9900012    2    1    2    0    0 -0.87647364748E+01  0.41669749848E+02 -0.83922492881E+01  0.47787325973E+02  0.20000250441E+02 0.  0.
        -12    1    1    2    0    0  0.87647364748E+01 -0.41669749848E+02  0.83922492881E+01  0.43400674027E+02  0.00000000000E+00 0.  1.
         11    1    3    3    0    0  0.33190216597E+01  0.17474686270E+02  0.18748519667E+01  0.17885626497E+02  0.51100000000E-03 0. -1.
        -11    1    3    3    0    0 -0.63224294689E+01  0.84652856539E+01 -0.74173584392E+01  0.12909352504E+02  0.51100000000E-03 0.  1.
         12    1    3    3    0    0 -0.57613286657E+01  0.15729777924E+02 -0.28497428155E+01  0.16992346973E+02  0.00000000000E+00 0. -1.
</event>
<event>
 7    1  0.2834226E-010  0.4778727E+02  0.7816164E-02  0.1312668E+00
        -11   -1    0    0    0    0  0.00000000000E+00  0.00000000000E+00  0.45593999997E+02  0.45594000000E+02  0.51100000000E-03 0.  1.
         11   -1    0    0    0    0 -0.00000000000E+00 -0.00000000000E+00 -0.45593999997E+02  0.45594000000E+02  0.51100000000E-03 0. -1.
    9900012    2    1    2    0    0  0.34355898915E+02  0.42933874998E+01 -0.26169875315E+02  0.47787270277E+02  0.19999996502E+02 0.  0.
        -12    1    1    2    0    0 -0.34355898915E+02 -0.42933874998E+01  0.26169875315E+02  0.43400729723E+02  0.00000000000E+00 0.  1.
         11    1    3    3    0    0  0.28489250625E+02  0.49829881133E+01 -0.21166072084E+02  0.35839505848E+02  0.51100000000E-03 0. -1.
        -11    1    3    3    0    0  0.39904867208E+01 -0.44021198129E+01 -0.50348882704E+01  0.77879871130E+01  0.51100000000E-03 0.  1.
         12    1    3    3    0    0  0.18761615686E+01  0.37125191994E+01  0.31085039140E-01  0.41597773158E+01  0.00000000000E+00 0. -1.
</event>
<event>
 7    1  0.3060009E-010  0.4778727E+02  0.7816164E-02  0.1312668E+00
        -11   -1    0    0    0    0  0.00000000000E+00  0.00000000000E+00  0.45593999997E+02  0.45594000000E+02  0.51100000000E-03 0. -1.
         11   -1    0    0    0    0 -0.00000000000E+00 -0.00000000000E+00 -0.45593999997E+02  0.45594000000E+02  0.51100000000E-03 0.  1.
    9900012    2    1    2    0    0  0.27093013410E+02 -0.33707894930E+02  0.36564629977E+01  0.47787270998E+02  0.19999999790E+02 0.  0.
        -12    1    1    2    0    0 -0.27093013410E+02  0.33707894930E+02 -0.36564629977E+01  0.43400729002E+02  0.00000000000E+00 0.  1.
         11    1    3    3    0    0  0.23325666263E+02 -0.19554684649E+02 -0.27303868956E+01  0.30560225968E+02  0.51100000000E-03 0. -1.
        -11    1    3    3    0    0 -0.63952043412E+00 -0.64608434068E+01  0.35060673367E+00  0.65018773639E+01  0.51100000000E-03 0.  1.
         12    1    3    3    0    0  0.44068675808E+01 -0.76923668739E+01  0.60362431596E+01  0.10725167667E+02  0.00000000000E+00 0. -1.
</event>
<event>
 7    1  0.2834226E-010  0.4778727E+02  0.7816164E-02  0.1312668E+00
        -11   -1    0    0    0    0  0.00000000000E+00  0.00000000000E+00  0.45593999997E+02  0.45594000000E+02  0.51100000000E-03 0.  1.
         11   -1    0    0    0    0 -0.00000000000E+00 -0.00000000000E+00 -0.45593999997E+02  0.45594000000E+02  0.51100000000E-03 0. -1.
    9900012    2    1    2    0    0  0.30283261529E+02  0.26628712850E+01 -0.30975099354E+02  0.47787267376E+02  0.19999983274E+02 0.  0.
        -12    1    1    2    0    0 -0.30283261529E+02 -0.26628712850E+01  0.30975099354E+02  0.43400732624E+02  0.00000000000E+00 0.  1.
         11    1    3    3    0    0  0.97989297792E+01 -0.26452976760E+01 -0.36589353945E+01  0.10789088613E+02  0.51100000000E-03 0.  1.
        -11    1    3    3    0    0  0.17681901992E+02  0.63379162475E+01 -0.28201305059E+02  0.33884103171E+02  0.51100000000E-03 0. -1.
         12    1    3    3    0    0  0.28024297586E+01 -0.10297472865E+01  0.88514110001E+00  0.31140755920E+01  0.00000000000E+00 0. -1.
</event>
<event>
 7    1  0.2834226E-010  0.4778727E+02  0.7816164E-02  0.1312668E+00
        -11   -1    0    0    0    0  0.00000000000E+00  0.00000000000E+00  0.45593999997E+02  0.45594000000E+02  0.51100000000E-03 0.  1.
         11   -1    0    0    0    0 -0.00000000000E+00 -0.00000000000E+00 -0.45593999997E+02  0.45594000000E+02  0.51100000000E-03 0. -1.
    9900012    2    1    2    0    0 -0.23574801274E+02  0.19399569275E+01 -0.36388029575E+02  0.47787269772E+02  0.19999994200E+02 0.  0.
        -12    1    1    2    0    0  0.23574801274E+02 -0.19399569275E+01  0.36388029575E+02  0.43400730228E+02  0.00000000000E+00 0.  1.
         11    1    3    3    0    0 -0.24012396321E+00  0.11146615746E+00 -0.17253671531E+02  0.17255702413E+02  0.51100000000E-03 0.  1.
        -11    1    3    3    0    0 -0.15357156670E+02 -0.62461441052E+00 -0.11218864297E+02  0.19028802393E+02  0.51100000000E-03 0. -1.
        -12    1    3    3    0    0 -0.79775206403E+01  0.24531051806E+01 -0.79154937471E+01  0.11502764966E+02  0.00000000000E+00 0.  1.
</event>
<event>
 7    1  0.2834226E-010  0.4778727E+02  0.7816164E-02  0.1312668E+00
        -11   -1    0    0    0    0  0.00000000000E+00  0.00000000000E+00  0.45593999997E+02  0.45594000000E+02  0.51100000000E-03 0.  1.
         11   -1    0    0    0    0 -0.00000000000E+00 -0.00000000000E+00 -0.45593999997E+02  0.45594000000E+02  0.51100000000E-03 0. -1.
    9900012    2    1    2    0    0 -0.55479679236E+01 -0.15071326903E+02 -0.40319950858E+02  0.47787270975E+02  0.19999999684E+02 0.  0.
        -12    1    1    2    0    0  0.55479679236E+01  0.15071326903E+02  0.40319950858E+02  0.43400729025E+02  0.00000000000E+00 0.  1.
         11    1    3    3    0    0 -0.30034830516E+01 -0.36396938644E+01 -0.77991775013E+01  0.91156706734E+01  0.51100000000E-03 0. -1.
        -11    1    3    3    0    0 -0.54048447302E+01 -0.11706490453E+02 -0.10967164029E+02  0.16927284259E+02  0.51100000000E-03 0.  1.
        -12    1    3    3    0    0  0.28603598582E+01  0.27485741409E+00 -0.21553609328E+02  0.21744316043E+02  0.00000000000E+00 0.  1.
</event>
<event>
 7    1  0.2834226E-010  0.4778727E+02  0.7816164E-02  0.1312668E+00
        -11   -1    0    0    0    0  0.00000000000E+00  0.00000000000E+00  0.45593999997E+02  0.45594000000E+02  0.51100000000E-03 0.  1.
         11   -1    0    0    0    0 -0.00000000000E+00 -0.00000000000E+00 -0.45593999997E+02  0.45594000000E+02  0.51100000000E-03 0. -1.
    9900012    2    1    2    0    0 -0.41879837699E+02 -0.19760817716E+01 -0.11215950365E+02  0.47787271349E+02  0.20000001387E+02 0.  0.
        -12    1    1    2    0    0  0.41879837699E+02  0.19760817716E+01  0.11215950365E+02  0.43400728651E+02  0.00000000000E+00 0.  1.
         11    1    3    3    0    0 -0.22162758435E+01  0.35093543647E+01 -0.46200448964E+01  0.62106571131E+01  0.51100000000E-03 0. -1.
        -11    1    3    3    0    0 -0.34843021003E+01 -0.17620076957E+01  0.17217975536E+01  0.42672730546E+01  0.51100000000E-03 0.  1.
         12    1    3    3    0    0 -0.36179259755E+02 -0.37234284405E+01 -0.83177030218E+01  0.37309341181E+02  0.00000000000E+00 0. -1.
</event>
<event>
 7    1  0.2834226E-010  0.4778727E+02  0.7816164E-02  0.1312668E+00
        -11   -1    0    0    0    0  0.00000000000E+00  0.00000000000E+00  0.45593999997E+02  0.45594000000E+02  0.51100000000E-03 0.  1.
         11   -1    0    0    0    0 -0.00000000000E+00 -0.00000000000E+00 -0.45593999997E+02  0.45594000000E+02  0.51100000000E-03 0. -1.
    9900012    2    1    2    0    0 -0.14495899753E+02  0.16362253915E+02 -0.37493584048E+02  0.47787270656E+02  0.19999998231E+02 0.  0.
        -12    1    1    2    0    0  0.14495899753E+02 -0.16362253915E+02  0.37493584048E+02  0.43400729344E+02  0.00000000000E+00 0.  1.
         11    1    3    3    0    0 -0.12381648378E+02  0.39231263910E+01 -0.10873339490E+02  0.16938879809E+02  0.51100000000E-03 0. -1.
        -11    1    3    3    0    0 -0.37898672063E+01  0.10121423938E+02 -0.12880231802E+02  0.16813883772E+02  0.51100000000E-03 0.  1.
         12    1    3    3    0    0  0.16756158312E+01  0.23177035851E+01 -0.13740012756E+02  0.14034507076E+02  0.00000000000E+00 0. -1.
</event>
<event>
 7    1  0.2834226E-010  0.4778727E+02  0.7816164E-02  0.1312668E+00
        -11   -1    0    0    0    0  0.00000000000E+00  0.00000000000E+00  0.45593999997E+02  0.45594000000E+02  0.51100000000E-03 0.  1.
         11   -1    0    0    0    0 -0.00000000000E+00 -0.00000000000E+00 -0.45593999997E+02  0.45594000000E+02  0.51100000000E-03 0. -1.
    9900012    2    1    2    0    0 -0.30521897857E+02  0.60847676464E+01 -0.30249180284E+02  0.47787267818E+02  0.19999985289E+02 0.  0.
        -12    1    1    2    0    0  0.30521897857E+02 -0.60847676464E+01  0.30249180284E+02  0.43400732182E+02  0.00000000000E+00 0.  1.
         11    1    3    3    0    0 -0.78247213595E+01  0.44049352937E+01 -0.31162318635E+01  0.95047683077E+01  0.51100000000E-03 0. -1.
        -11    1    3    3    0    0 -0.23777891555E+02 -0.98028288888E+00 -0.25853574739E+02  0.35139100848E+02  0.51100000000E-03 0.  1.
        -12    1    3    3    0    0  0.10807150578E+01  0.26601152416E+01 -0.12793736814E+01  0.31433986625E+01  0.00000000000E+00 0.  1.
</event>
<event>
 7    1  0.2834226E-010  0.4778727E+02  0.7816164E-02  0.1312668E+00
        -11   -1    0    0    0    0  0.00000000000E+00  0.00000000000E+00  0.45593999997E+02  0.45594000000E+02  0.51100000000E-03 0.  1.
         11   -1    0    0    0    0 -0.00000000000E+00 -0.00000000000E+00 -0.45593999997E+02  0.45594000000E+02  0.51100000000E-03 0. -1.
    9900012    2    1    2    0    0 -0.37422670580E+02  0.21794434929E+02  0.28583051050E+01  0.47787267572E+02  0.19999984167E+02 0.  0.
        -12    1    1    2    0    0  0.37422670580E+02 -0.21794434929E+02 -0.28583051050E+01  0.43400732428E+02  0.00000000000E+00 0.  1.
         11    1    3    3    0    0 -0.31139129841E+02  0.14118668670E+02 -0.32657117287E+01  0.34345990823E+02  0.51100000000E-03 0. -1.
        -11    1    3    3    0    0 -0.60719547031E+00  0.23689680434E+00  0.37247589649E+01  0.37813537316E+01  0.51100000000E-03 0.  1.
         12    1    3    3    0    0 -0.56763452689E+01  0.74388694547E+01  0.23992578687E+01  0.96599230171E+01  0.00000000000E+00 0. -1.
</event>
<event>
 7    1  0.2834226E-010  0.4778727E+02  0.7816164E-02  0.1312668E+00
        -11   -1    0    0    0    0  0.00000000000E+00  0.00000000000E+00  0.45593999997E+02  0.45594000000E+02  0.51100000000E-03 0.  1.
         11   -1    0    0    0    0 -0.00000000000E+00 -0.00000000000E+00 -0.45593999997E+02  0.45594000000E+02  0.51100000000E-03 0. -1.
    9900012    2    1    2    0    0  0.28123697306E+02  0.32608487667E+02 -0.54192136181E+01  0.47787266201E+02  0.19999977915E+02 0.  0.
        -12    1    1    2    0    0 -0.28123697306E+02 -0.32608487667E+02  0.54192136181E+01  0.43400733799E+02  0.00000000000E+00 0.  1.
         11    1    3    3    0    0  0.72318636800E+01  0.18040413827E+02  0.36264408404E+01  0.19771379739E+02  0.51100000000E-03 0. -1.
        -11    1    3    3    0    0  0.72961964651E+01  0.23893595437E+01 -0.54426237970E+01  0.94109338508E+01  0.51100000000E-03 0.  1.
         12    1    3    3    0    0  0.13595637161E+02  0.12178714296E+02 -0.36030306614E+01  0.18604952611E+02  0.00000000000E+00 0. -1.
</event>
<event>
 7    1  0.2834226E-010  0.4778725E+02  0.7816164E-02  0.1312668E+00
        -11   -1    0    0    0    0  0.00000000000E+00  0.00000000000E+00  0.45593999997E+02  0.45594000000E+02  0.51100000000E-03 0.  1.
         11   -1    0    0    0    0 -0.00000000000E+00 -0.00000000000E+00 -0.45593999997E+02  0.45594000000E+02  0.51100000000E-03 0. -1.
    9900012    2    1    2    0    0 -0.15116580042E+02 -0.40041601417E+02  0.71961056970E+01  0.47787253769E+02  0.19999921236E+02 0.  0.
        -12    1    1    2    0    0  0.15116580042E+02  0.40041601417E+02 -0.71961056970E+01  0.43400746231E+02  0.00000000000E+00 0.  1.
         11    1    3    3    0    0 -0.32718876537E+01 -0.59804884570E+01 -0.25606441599E+01  0.72820594461E+01  0.51100000000E-03 0. -1.
        -11    1    3    3    0    0 -0.32844195894E+01 -0.29308566945E+02  0.79996459190E+01  0.30557713323E+02  0.51100000000E-03 0.  1.
        -12    1    3    3    0    0 -0.85602727987E+01 -0.47525460147E+01  0.17571039379E+01  0.99474810007E+01  0.00000000000E+00 0.  1.
</event>
<event>
 7    1  0.2834226E-010  0.4778727E+02  0.7816164E-02  0.1312668E+00
        -11   -1    0    0    0    0  0.00000000000E+00  0.00000000000E+00  0.45593999997E+02  0.45594000000E+02  0.51100000000E-03 0.  1.
         11   -1    0    0    0    0 -0.00000000000E+00 -0.00000000000E+00 -0.45593999997E+02  0.45594000000E+02  0.51100000000E-03 0. -1.
    9900012    2    1    2    0    0 -0.12126868668E+02 -0.30022127845E+02 -0.28900412330E+02  0.47787274927E+02  0.20000017700E+02 0.  0.
        -12    1    1    2    0    0  0.12126868668E+02  0.30022127845E+02  0.28900412330E+02  0.43400725073E+02  0.00000000000E+00 0.  1.
         11    1    3    3    0    0  0.16361270197E+01 -0.77776788204E+01 -0.10530723547E+02  0.13193382362E+02  0.51100000000E-03 0. -1.
        -11    1    3    3    0    0 -0.94980876146E+01 -0.36158118037E+01 -0.72454236962E+01  0.12481343202E+02  0.51100000000E-03 0.  1.
        -12    1    3    3    0    0 -0.42649080731E+01 -0.18628637221E+02 -0.11124265087E+02  0.22112549363E+02  0.00000000000E+00 0.  1.
</event>
<event>
 7    1  0.2834226E-010  0.4778728E+02  0.7816164E-02  0.1312668E+00
        -11   -1    0    0    0    0  0.00000000000E+00  0.00000000000E+00  0.45593999997E+02  0.45594000000E+02  0.51100000000E-03 0. -1.
         11   -1    0    0    0    0 -0.00000000000E+00 -0.00000000000E+00 -0.45593999997E+02  0.45594000000E+02  0.51100000000E-03 0.  1.
    9900012    2    1    2    0    0 -0.26976476162E+01 -0.40349874326E+02 -0.15755410091E+02  0.47787278717E+02  0.20000034981E+02 0.  0.
        -12    1    1    2    0    0  0.26976476162E+01  0.40349874326E+02  0.15755410091E+02  0.43400721283E+02  0.00000000000E+00 0.  1.
         11    1    3    3    0    0 -0.24068292717E+01 -0.25654070091E+02  0.47753627686E-01  0.25766769686E+02  0.51100000000E-03 0. -1.
        -11    1    3    3    0    0 -0.21193806587E+01 -0.93783186082E+01 -0.11139777533E+02  0.14715273631E+02  0.51100000000E-03 0.  1.
         12    1    3    3    0    0  0.18285623142E+01 -0.53174856266E+01 -0.46633861856E+01  0.73052353995E+01  0.00000000000E+00 0. -1.
</event>
<event>
 7    1  0.2834226E-010  0.4778727E+02  0.7816164E-02  0.1312668E+00
        -11   -1    0    0    0    0  0.00000000000E+00  0.00000000000E+00  0.45593999997E+02  0.45594000000E+02  0.51100000000E-03 0. -1.
         11   -1    0    0    0    0 -0.00000000000E+00 -0.00000000000E+00 -0.45593999997E+02  0.45594000000E+02  0.51100000000E-03 0.  1.
    9900012    2    1    2    0    0 -0.38753791641E+02 -0.19257560764E+02  0.33035407596E+01  0.47787269652E+02  0.19999993652E+02 0.  0.
        -12    1    1    2    0    0  0.38753791641E+02  0.19257560764E+02 -0.33035407596E+01  0.43400730348E+02  0.00000000000E+00 0.  1.
         11    1    3    3    0    0 -0.48204258480E+01 -0.28560466323E+01  0.57452825795E+01  0.80250719561E+01  0.51100000000E-03 0.  1.
        -11    1    3    3    0    0 -0.34464215407E+02 -0.17351531745E+02 -0.22062786556E+01  0.38648744653E+02  0.51100000000E-03 0. -1.
         12    1    3    3    0    0  0.53084961376E+00  0.95001761244E+00 -0.23546316432E+00  0.11134530426E+01  0.00000000000E+00 0. -1.
</event>
<event>
 7    1  0.2834226E-010  0.4778727E+02  0.7816164E-02  0.1312668E+00
        -11   -1    0    0    0    0  0.00000000000E+00  0.00000000000E+00  0.45593999997E+02  0.45594000000E+02  0.51100000000E-03 0. -1.
         11   -1    0    0    0    0 -0.00000000000E+00 -0.00000000000E+00 -0.45593999997E+02  0.45594000000E+02  0.51100000000E-03 0.  1.
    9900012    2    1    2    0    0 -0.28688417538E+02  0.31410288742E+02 -0.86018546911E+01  0.47787269086E+02  0.19999991073E+02 0.  0.
        -12    1    1    2    0    0  0.28688417538E+02 -0.31410288742E+02  0.86018546911E+01  0.43400730914E+02  0.00000000000E+00 0.  1.
         11    1    3    3    0    0 -0.18674163715E+02  0.13156855841E+02  0.22525406526E+01  0.22954328257E+02  0.51100000000E-03 0. -1.
        -11    1    3    3    0    0 -0.76396809483E+01  0.18281708893E+02 -0.87495285451E+01  0.21659636541E+02  0.51100000000E-03 0.  1.
        -12    1    3    3    0    0 -0.23745728747E+01 -0.28275992308E-01 -0.21048667986E+01  0.31733042887E+01  0.00000000000E+00 0.  1.
</event>
<event>
 7    1  0.2834226E-010  0.4778729E+02  0.7816164E-02  0.1312668E+00
        -11   -1    0    0    0    0  0.00000000000E+00  0.00000000000E+00  0.45593999997E+02  0.45594000000E+02  0.51100000000E-03 0.  1.
         11   -1    0    0    0    0 -0.00000000000E+00 -0.00000000000E+00 -0.45593999997E+02  0.45594000000E+02  0.51100000000E-03 0. -1.
    9900012    2    1    2    0    0  0.21463059013E+02  0.91343003726E+01 -0.36599497870E+02  0.47787290445E+02  0.20000088457E+02 0.  0.
        -12    1    1    2    0    0 -0.21463059013E+02 -0.91343003726E+01  0.36599497870E+02  0.43400709555E+02  0.00000000000E+00 0.  1.
         11    1    3    3    0    0  0.11725036391E+02  0.90802210009E+01 -0.22192540116E+02  0.26691491694E+02  0.51100000000E-03 0. -1.
        -11    1    3    3    0    0  0.11383619041E+02 -0.31095650492E+01 -0.11710673363E+02  0.16625163102E+02  0.51100000000E-03 0.  1.
        -12    1    3    3    0    0 -0.16455964190E+01  0.31636444209E+01 -0.26962843904E+01  0.44706356494E+01  0.00000000000E+00 0.  1.
</event>
<event>
 7    1  0.2834226E-010  0.4778727E+02  0.7816164E-02  0.1312668E+00
        -11   -1    0    0    0    0  0.00000000000E+00  0.00000000000E+00  0.45593999997E+02  0.45594000000E+02  0.51100000000E-03 0.  1.
         11   -1    0    0    0    0 -0.00000000000E+00 -0.00000000000E+00 -0.45593999997E+02  0.45594000000E+02  0.51100000000E-03 0. -1.
    9900012    2    1    2    0    0 -0.36960561994E+01 -0.68225944989E+01 -0.42701458544E+02  0.47787272024E+02  0.20000004464E+02 0.  0.
        -12    1    1    2    0    0  0.36960561994E+01  0.68225944989E+01  0.42701458544E+02  0.43400727976E+02  0.00000000000E+00 0.  1.
         11    1    3    3    0    0  0.18740228002E+01 -0.76594617328E+00 -0.14939094778E+02  0.15075648843E+02  0.51100000000E-03 0. -1.
        -11    1    3    3    0    0  0.46979650851E+01 -0.46480359382E+01 -0.14016324849E+02  0.15496208458E+02  0.51100000000E-03 0.  1.
        -12    1    3    3    0    0 -0.10268044085E+02 -0.14086123874E+01 -0.13746038916E+02  0.17215414722E+02  0.00000000000E+00 0.  1.
</event>
<event>
 7    1  0.2834226E-010  0.4778729E+02  0.7816164E-02  0.1312668E+00
        -11   -1    0    0    0    0  0.00000000000E+00  0.00000000000E+00  0.45593999997E+02  0.45594000000E+02  0.51100000000E-03 0.  1.
         11   -1    0    0    0    0 -0.00000000000E+00 -0.00000000000E+00 -0.45593999997E+02  0.45594000000E+02  0.51100000000E-03 0. -1.
    9900012    2    1    2    0    0 -0.26540037427E+02 -0.13796269414E+00 -0.34339905948E+02  0.47787288475E+02  0.20000079474E+02 0.  0.
        -12    1    1    2    0    0  0.26540037427E+02  0.13796269414E+00  0.34339905948E+02  0.43400711525E+02  0.00000000000E+00 0.  1.
         11    1    3    3    0    0 -0.38031714097E+01  0.11581201391E+01 -0.89593715387E+01  0.98018209358E+01  0.51100000000E-03 0. -1.
        -11    1    3    3    0    0 -0.24762759653E+02 -0.23967950950E+01 -0.25565331038E+02  0.35672468988E+02  0.51100000000E-03 0.  1.
        -12    1    3    3    0    0  0.20258936360E+01  0.11007122617E+01  0.18479662794E+00  0.23129985519E+01  0.00000000000E+00 0.  1.
</event>
<event>
 7    1  0.2834226E-010  0.4778727E+02  0.7816164E-02  0.1312668E+00
        -11   -1    0    0    0    0  0.00000000000E+00  0.00000000000E+00  0.45593999997E+02  0.45594000000E+02  0.51100000000E-03 0.  1.
         11   -1    0    0    0    0 -0.00000000000E+00 -0.00000000000E+00 -0.45593999997E+02  0.45594000000E+02  0.51100000000E-03 0. -1.
    9900012    2    1    2    0    0 -0.13477704122E+02 -0.16635712666E+02 -0.37752187105E+02  0.47787273329E+02  0.20000010418E+02 0.  0.
        -12    1    1    2    0    0  0.13477704122E+02  0.16635712666E+02  0.37752187105E+02  0.43400726671E+02  0.00000000000E+00 0.  1.
         11    1    3    3    0    0 -0.94032864274E+01 -0.33522762099E-01 -0.83328629699E+01  0.12564216050E+02  0.51100000000E-03 0. -1.
        -11    1    3    3    0    0  0.50878770237E+00  0.79532691641E+00 -0.38138267888E+01  0.39289546785E+01  0.51100000000E-03 0.  1.
         12    1    3    3    0    0 -0.45832053973E+01 -0.17397516821E+02 -0.25605497346E+02  0.31294102601E+02  0.00000000000E+00 0. -1.
</event>
<event>
 7    1  0.2834226E-010  0.4778727E+02  0.7816164E-02  0.1312668E+00
        -11   -1    0    0    0    0  0.00000000000E+00  0.00000000000E+00  0.45593999997E+02  0.45594000000E+02  0.51100000000E-03 0.  1.
         11   -1    0    0    0    0 -0.00000000000E+00 -0.00000000000E+00 -0.45593999997E+02  0.45594000000E+02  0.51100000000E-03 0. -1.
    9900012    2    1    2    0    0  0.24020192144E+02 -0.13873696795E+02 -0.33379248327E+02  0.47787270602E+02  0.19999997981E+02 0.  0.
        -12    1    1    2    0    0 -0.24020192144E+02  0.13873696795E+02  0.33379248327E+02  0.43400729398E+02  0.00000000000E+00 0.  1.
         11    1    3    3    0    0  0.11181254254E+02 -0.78277977555E+01 -0.25509533566E+02  0.28931490930E+02  0.51100000000E-03 0. -1.
        -11    1    3    3    0    0  0.20779503581E+01 -0.55406728988E+01 -0.80245872593E+00  0.59716726409E+01  0.51100000000E-03 0.  1.
         12    1    3    3    0    0  0.10760987532E+02 -0.50522614085E+00 -0.70672560353E+01  0.12884107031E+02  0.00000000000E+00 0. -1.
</event>
<event>
 7    1  0.2834226E-010  0.4778728E+02  0.7816164E-02  0.1312668E+00
        -11   -1    0    0    0    0  0.00000000000E+00  0.00000000000E+00  0.45593999997E+02  0.45594000000E+02  0.51100000000E-03 0.  1.
         11   -1    0    0    0    0 -0.00000000000E+00 -0.00000000000E+00 -0.45593999997E+02  0.45594000000E+02  0.51100000000E-03 0. -1.
    9900012    2    1    2    0    0 -0.59558495721E+01 -0.30337515970E+02 -0.30459569986E+02  0.47787280846E+02  0.20000044690E+02 0.  0.
        -12    1    1    2    0    0  0.59558495721E+01  0.30337515970E+02  0.30459569986E+02  0.43400719154E+02  0.00000000000E+00 0.  1.
         11    1    3    3    0    0 -0.11529060324E+02 -0.22695988362E+02 -0.27950837458E+02  0.37805772503E+02  0.51100000000E-03 0. -1.
        -11    1    3    3    0    0  0.32470274176E+01 -0.31381006035E+01 -0.55634110704E+00  0.45497668223E+01  0.51100000000E-03 0.  1.
         12    1    3    3    0    0  0.23261833344E+01 -0.45034270043E+01 -0.19523914207E+01  0.54317415207E+01  0.00000000000E+00 0. -1.
</event>
<event>
 7    1  0.2834226E-010  0.4778727E+02  0.7816164E-02  0.1312668E+00
        -11   -1    0    0    0    0  0.00000000000E+00  0.00000000000E+00  0.45593999997E+02  0.45594000000E+02  0.51100000000E-03 0.  1.
         11   -1    0    0    0    0 -0.00000000000E+00 -0.00000000000E+00 -0.45593999997E+02  0.45594000000E+02  0.51100000000E-03 0. -1.
    9900012    2    1    2    0    0 -0.20986194840E+02  0.37945119148E+02  0.18359417432E+01  0.47787272782E+02  0.20000007922E+02 0.  0.
        -12    1    1    2    0    0  0.20986194840E+02 -0.37945119148E+02 -0.18359417432E+01  0.43400727218E+02  0.00000000000E+00 0.  1.
         11    1    3    3    0    0 -0.55737988750E+01  0.52058838026E+01  0.34761101599E+00  0.76347425461E+01  0.51100000000E-03 0. -1.
        -11    1    3    3    0    0 -0.11541721745E+02  0.58621849839E+01 -0.18799193607E+00  0.12946501259E+02  0.51100000000E-03 0.  1.
        -12    1    3    3    0    0 -0.38706742199E+01  0.26877050361E+02  0.16763226633E+01  0.27206028977E+02  0.00000000000E+00 0.  1.
</event>
<event>
 7    1  0.2834226E-010  0.4778727E+02  0.7816164E-02  0.1312668E+00
        -11   -1    0    0    0    0  0.00000000000E+00  0.00000000000E+00  0.45593999997E+02  0.45594000000E+02  0.51100000000E-03 0. -1.
         11   -1    0    0    0    0 -0.00000000000E+00 -0.00000000000E+00 -0.45593999997E+02  0.45594000000E+02  0.51100000000E-03 0.  1.
    9900012    2    1    2    0    0 -0.28496785797E+02 -0.31538518331E+02 -0.87680305723E+01  0.47787270750E+02  0.19999998660E+02 0.  0.
        -12    1    1    2    0    0  0.28496785797E+02  0.31538518331E+02  0.87680305723E+01  0.43400729250E+02  0.00000000000E+00 0.  1.
         11    1    3    3    0    0 -0.21776836377E+02 -0.32103101212E+02 -0.87500932122E+01  0.39766868641E+02  0.51100000000E-03 0. -1.
        -11    1    3    3    0    0 -0.51369174253E+01 -0.26831212201E+00 -0.18437518819E+01  0.54643694322E+01  0.51100000000E-03 0.  1.
         12    1    3    3    0    0 -0.15830319945E+01  0.83289500242E+00  0.18258145218E+01  0.25560326776E+01  0.00000000000E+00 0. -1.
</event>
<event>
 7    1  0.2834226E-010  0.4778727E+02  0.7816164E-02  0.1312668E+00
        -11   -1    0    0    0    0  0.00000000000E+00  0.00000000000E+00  0.45593999997E+02  0.45594000000E+02  0.51100000000E-03 0. -1.
         11   -1    0    0    0    0 -0.00000000000E+00 -0.00000000000E+00 -0.45593999997E+02  0.45594000000E+02  0.51100000000E-03 0.  1.
    9900012    2    1    2    0    0  0.42222949554E+01  0.36285483172E+02  0.23434145301E+02  0.47787271554E+02  0.20000002323E+02 0.  0.
        -12    1    1    2    0    0 -0.42222949554E+01 -0.36285483172E+02 -0.23434145301E+02  0.43400728446E+02  0.00000000000E+00 0.  1.
         11    1    3    3    0    0 -0.70933316653E+00  0.29563545380E+02  0.24533253857E+02  0.38423780580E+02  0.51100000000E-03 0. -1.
        -11    1    3    3    0    0  0.32259064127E+01  0.64103719210E+01 -0.19435812000E+01  0.74348401793E+01  0.51100000000E-03 0.  1.
         12    1    3    3    0    0  0.17057217092E+01  0.31156587012E+00  0.84447264335E+00  0.19286507942E+01  0.00000000000E+00 0. -1.
</event>
<event>
 7    1  0.2834226E-010  0.4778727E+02  0.7816164E-02  0.1312668E+00
        -11   -1    0    0    0    0  0.00000000000E+00  0.00000000000E+00  0.45593999997E+02  0.45594000000E+02  0.51100000000E-03 0.  1.
         11   -1    0    0    0    0 -0.00000000000E+00 -0.00000000000E+00 -0.45593999997E+02  0.45594000000E+02  0.51100000000E-03 0. -1.
    9900012    2    1    2    0    0 -0.12995720460E+01  0.15137367451E+02 -0.40654575917E+02  0.47787270469E+02  0.19999997376E+02 0.  0.
        -12    1    1    2    0    0  0.12995720460E+01 -0.15137367451E+02  0.40654575917E+02  0.43400729531E+02  0.00000000000E+00 0.  1.
         11    1    3    3    0    0 -0.72787822759E+01  0.22637611810E+01 -0.18035624071E+02  0.19580322316E+02  0.51100000000E-03 0. -1.
        -11    1    3    3    0    0  0.25115697667E+01  0.72394327202E+01 -0.44275426931E+01  0.88498871950E+01  0.51100000000E-03 0.  1.
        -12    1    3    3    0    0  0.34676404632E+01  0.56341735497E+01 -0.18191409152E+02  0.19357060958E+02  0.00000000000E+00 0.  1.
</event>
<event>
 7    1  0.2834226E-010  0.4778727E+02  0.7816164E-02  0.1312668E+00
        -11   -1    0    0    0    0  0.00000000000E+00  0.00000000000E+00  0.45593999997E+02  0.45594000000E+02  0.51100000000E-03 0. -1.
         11   -1    0    0    0    0 -0.00000000000E+00 -0.00000000000E+00 -0.45593999997E+02  0.45594000000E+02  0.51100000000E-03 0.  1.
    9900012    2    1    2    0    0  0.47793628933E+00  0.21516582115E+01  0.43344724380E+02  0.47787272037E+02  0.20000004526E+02 0.  0.
        -12    1    1    2    0    0 -0.47793628933E+00 -0.21516582115E+01 -0.43344724380E+02  0.43400727963E+02  0.00000000000E+00 0.  1.
         11    1    3    3    0    0 -0.45958635627E+01 -0.39366819325E+01  0.22425330084E+02  0.23227459098E+02  0.51100000000E-03 0. -1.
        -11    1    3    3    0    0  0.77237611384E+01  0.22389672295E+01  0.11348701353E+02  0.13909079159E+02  0.51100000000E-03 0.  1.
         12    1    3    3    0    0 -0.26499612863E+01  0.38493729145E+01  0.95706929430E+01  0.10650733780E+02  0.00000000000E+00 0. -1.
</event>
<event>
 7    1  0.2834226E-010  0.4778728E+02  0.7816164E-02  0.1312668E+00
        -11   -1    0    0    0    0  0.00000000000E+00  0.00000000000E+00  0.45593999997E+02  0.45594000000E+02  0.51100000000E-03 0. -1.
         11   -1    0    0    0    0 -0.00000000000E+00 -0.00000000000E+00 -0.45593999997E+02  0.45594000000E+02  0.51100000000E-03 0.  1.
    9900012    2    1    2    0    0  0.36282776084E+02  0.23565902422E+02 -0.34396194574E+01  0.47787279046E+02  0.20000036481E+02 0.  0.
        -12    1    1    2    0    0 -0.36282776084E+02 -0.23565902422E+02  0.34396194574E+01  0.43400720954E+02  0.00000000000E+00 0.  1.
         11    1    3    3    0    0  0.35891777467E+02  0.23589654141E+02 -0.63747626370E+00  0.42954602180E+02  0.51100000000E-03 0. -1.
        -11    1    3    3    0    0 -0.19596557070E+00 -0.10996645647E+01  0.56331701792E+00  0.12509959966E+01  0.51100000000E-03 0.  1.
         12    1    3    3    0    0  0.58696418819E+00  0.10759128452E+01 -0.33654602116E+01  0.35816808686E+01  0.00000000000E+00 0. -1.
</event>
<event>
 7    1  0.2834226E-010  0.4778727E+02  0.7816164E-02  0.1312668E+00
        -11   -1    0    0    0    0  0.00000000000E+00  0.00000000000E+00  0.45593999997E+02  0.45594000000E+02  0.51100000000E-03 0.  1.
         11   -1    0    0    0    0 -0.00000000000E+00 -0.00000000000E+00 -0.45593999997E+02  0.45594000000E+02  0.51100000000E-03 0. -1.
    9900012    2    1    2    0    0 -0.32940136720E+02  0.36343840213E+01 -0.28024311790E+02  0.47787269526E+02  0.19999993078E+02 0.  0.
        -12    1    1    2    0    0  0.32940136720E+02 -0.36343840213E+01  0.28024311790E+02  0.43400730474E+02  0.00000000000E+00 0.  1.
         11    1    3    3    0    0  0.96342835589E+00  0.35727952971E+01 -0.40394962572E+01  0.54781922844E+01  0.51100000000E-03 0. -1.
        -11    1    3    3    0    0 -0.24353424827E+02 -0.35588107017E+01 -0.17719698026E+02  0.30327250664E+02  0.51100000000E-03 0.  1.
         12    1    3    3    0    0 -0.95501402485E+01  0.36203994259E+01 -0.62651175066E+01  0.11981826578E+02  0.00000000000E+00 0. -1.
</event>
<event>
 7    1  0.2834226E-010  0.4778728E+02  0.7816164E-02  0.1312668E+00
        -11   -1    0    0    0    0  0.00000000000E+00  0.00000000000E+00  0.45593999997E+02  0.45594000000E+02  0.51100000000E-03 0. -1.
         11   -1    0    0    0    0 -0.00000000000E+00 -0.00000000000E+00 -0.45593999997E+02  0.45594000000E+02  0.51100000000E-03 0.  1.
    9900012    2    1    2    0    0 -0.18071528533E+01 -0.64621097194E+01  0.42878870632E+02  0.47787283300E+02  0.20000055876E+02 0.  0.
        -12    1    1    2    0    0  0.18071528533E+01  0.64621097194E+01 -0.42878870632E+02  0.43400716700E+02  0.00000000000E+00 0.  1.
         11    1    3    3    0    0 -0.96602371139E+01 -0.59547666228E+01  0.26507455968E+02  0.28834435122E+02  0.51100000000E-03 0. -1.
        -11    1    3    3    0    0  0.56422976848E+01 -0.11000324907E+01  0.15451249844E+02  0.16485955133E+02  0.51100000000E-03 0.  1.
         12    1    3    3    0    0  0.22107865757E+01  0.59268939405E+00  0.92016481998E+00  0.24668930453E+01  0.00000000000E+00 0. -1.
</event>
<event>
 7    1  0.2834226E-010  0.4778723E+02  0.7816164E-02  0.1312668E+00
        -11   -1    0    0    0    0  0.00000000000E+00  0.00000000000E+00  0.45593999997E+02  0.45594000000E+02  0.51100000000E-03 0.  1.
         11   -1    0    0    0    0 -0.00000000000E+00 -0.00000000000E+00 -0.45593999997E+02  0.45594000000E+02  0.51100000000E-03 0. -1.
    9900012    2    1    2    0    0 -0.58878979166E+01 -0.63207659390E+01 -0.42532429010E+02  0.47787228792E+02  0.19999807354E+02 0.  0.
        -12    1    1    2    0    0  0.58878979166E+01  0.63207659390E+01  0.42532429010E+02  0.43400771208E+02  0.00000000000E+00 0.  1.
         11    1    3    3    0    0 -0.43790406293E+01  0.33227871675E+01 -0.18021542749E+02  0.18841255657E+02  0.51100000000E-03 0. -1.
        -11    1    3    3    0    0 -0.56523952417E+01 -0.94807489533E+01 -0.15519080996E+02  0.19044055448E+02  0.51100000000E-03 0.  1.
        -12    1    3    3    0    0  0.41435379544E+01 -0.16280415320E+00 -0.89918052647E+01  0.99019176876E+01  0.00000000000E+00 0.  1.
</event>
<event>
 7    1  0.2834226E-010  0.4778727E+02  0.7816164E-02  0.1312668E+00
        -11   -1    0    0    0    0  0.00000000000E+00  0.00000000000E+00  0.45593999997E+02  0.45594000000E+02  0.51100000000E-03 0.  1.
         11   -1    0    0    0    0 -0.00000000000E+00 -0.00000000000E+00 -0.45593999997E+02  0.45594000000E+02  0.51100000000E-03 0. -1.
    9900012    2    1    2    0    0 -0.27282382936E+02  0.22734911535E+01 -0.33676787842E+02  0.47787271665E+02  0.20000002828E+02 0.  0.
        -12    1    1    2    0    0  0.27282382936E+02 -0.22734911535E+01  0.33676787842E+02  0.43400728335E+02  0.00000000000E+00 0.  1.
         11    1    3    3    0    0 -0.21592667721E+01 -0.21848288817E+01 -0.52892876083E+01  0.61165737059E+01  0.51100000000E-03 0.  1.
        -11    1    3    3    0    0 -0.15303978398E+02 -0.35977776642E+01 -0.79723085461E+01  0.17627066198E+02  0.51100000000E-03 0. -1.
        -12    1    3    3    0    0 -0.98191377656E+01  0.80560976994E+01 -0.20415191688E+02  0.24043631761E+02  0.00000000000E+00 0.  1.
</event>
<event>
 7    1  0.2834226E-010  0.4778728E+02  0.7816164E-02  0.1312668E+00
        -11   -1    0    0    0    0  0.00000000000E+00  0.00000000000E+00  0.45593999997E+02  0.45594000000E+02  0.51100000000E-03 0.  1.
         11   -1    0    0    0    0 -0.00000000000E+00 -0.00000000000E+00 -0.45593999997E+02  0.45594000000E+02  0.51100000000E-03 0. -1.
    9900012    2    1    2    0    0  0.12910877493E+01 -0.22163036874E+01 -0.43324859129E+02  0.47787281939E+02  0.20000049673E+02 0.  0.
        -12    1    1    2    0    0 -0.12910877493E+01  0.22163036874E+01  0.43324859129E+02  0.43400718061E+02  0.00000000000E+00 0.  1.
         11    1    3    3    0    0 -0.46421942501E+01 -0.45254689484E+01 -0.10630243537E+02  0.12451181252E+02  0.51100000000E-03 0. -1.
        -11    1    3    3    0    0  0.29364621348E+01  0.70586795996E+01 -0.21350304078E+02  0.22677814093E+02  0.51100000000E-03 0.  1.
        -12    1    3    3    0    0  0.29968198645E+01 -0.47495143386E+01 -0.11344311515E+02  0.12658286594E+02  0.00000000000E+00 0.  1.
</event>
<event>
 7    1  0.2834226E-010  0.4778727E+02  0.7816164E-02  0.1312668E+00
        -11   -1    0    0    0    0  0.00000000000E+00  0.00000000000E+00  0.45593999997E+02  0.45594000000E+02  0.51100000000E-03 0.  1.
         11   -1    0    0    0    0 -0.00000000000E+00 -0.00000000000E+00 -0.45593999997E+02  0.45594000000E+02  0.51100000000E-03 0. -1.
    9900012    2    1    2    0    0 -0.17146949007E+02 -0.12154111572E+02 -0.37972133709E+02  0.47787271587E+02  0.20000002472E+02 0.  0.
        -12    1    1    2    0    0  0.17146949007E+02  0.12154111572E+02  0.37972133709E+02  0.43400728413E+02  0.00000000000E+00 0.  1.
         11    1    3    3    0    0  0.10695674155E+01  0.34729445151E+01 -0.10747358400E+02  0.11345088405E+02  0.51100000000E-03 0. -1.
        -11    1    3    3    0    0 -0.88556706309E+01 -0.87349963474E+01 -0.16167748282E+02  0.20398998708E+02  0.51100000000E-03 0.  1.
         12    1    3    3    0    0 -0.93608457918E+01 -0.68920597400E+01 -0.11057027027E+02  0.16043184474E+02  0.00000000000E+00 0. -1.
</event>
<event>
 7    1  0.2834226E-010  0.4778727E+02  0.7816164E-02  0.1312668E+00
        -11   -1    0    0    0    0  0.00000000000E+00  0.00000000000E+00  0.45593999997E+02  0.45594000000E+02  0.51100000000E-03 0.  1.
         11   -1    0    0    0    0 -0.00000000000E+00 -0.00000000000E+00 -0.45593999997E+02  0.45594000000E+02  0.51100000000E-03 0. -1.
    9900012    2    1    2    0    0  0.17646549471E+01  0.33845575591E+02 -0.27110634762E+02  0.47787268308E+02  0.19999987525E+02 0.  0.
        -12    1    1    2    0    0 -0.17646549471E+01 -0.33845575591E+02  0.27110634762E+02  0.43400731692E+02  0.00000000000E+00 0.  1.
         11    1    3    3    0    0  0.11434292367E+01  0.14381986626E+02 -0.12245365699E+02  0.18923476190E+02  0.51100000000E-03 0. -1.
        -11    1    3    3    0    0  0.68367223173E+01  0.52594551860E+01 -0.84797783362E+01  0.12095837374E+02  0.51100000000E-03 0.  1.
        -12    1    3    3    0    0 -0.62154966069E+01  0.14204133779E+02 -0.63854907268E+01  0.16767954744E+02  0.00000000000E+00 0.  1.
</event>
<event>
 7    1  0.3191560E-010  0.4778727E+02  0.7816164E-02  0.1312668E+00
        -11   -1    0    0    0    0  0.00000000000E+00  0.00000000000E+00  0.45593999997E+02  0.45594000000E+02  0.51100000000E-03 0.  1.
         11   -1    0    0    0    0 -0.00000000000E+00 -0.00000000000E+00 -0.45593999997E+02  0.45594000000E+02  0.51100000000E-03 0. -1.
    9900012    2    1    2    0    0  0.39733422874E+02 -0.11685963239E+02 -0.12973694923E+02  0.47787269705E+02  0.19999993895E+02 0.  0.
        -12    1    1    2    0    0 -0.39733422874E+02  0.11685963239E+02  0.12973694923E+02  0.43400730295E+02  0.00000000000E+00 0.  1.
         11    1    3    3    0    0  0.14573399761E+02  0.32764885607E+01 -0.63688701315E+01  0.16238283927E+02  0.51100000000E-03 0. -1.
        -11    1    3    3    0    0  0.16788095788E+00  0.50605363503E+00  0.10491658529E+01  0.11768702331E+01  0.51100000000E-03 0.  1.
         12    1    3    3    0    0  0.24992142155E+02 -0.15468505435E+02 -0.76539906441E+01  0.30372115545E+02  0.00000000000E+00 0. -1.
</event>
<event>
 7    1  0.2834226E-010  0.4778728E+02  0.7816164E-02  0.1312668E+00
        -11   -1    0    0    0    0  0.00000000000E+00  0.00000000000E+00  0.45593999997E+02  0.45594000000E+02  0.51100000000E-03 0.  1.
         11   -1    0    0    0    0 -0.00000000000E+00 -0.00000000000E+00 -0.45593999997E+02  0.45594000000E+02  0.51100000000E-03 0. -1.
    9900012    2    1    2    0    0 -0.11913495469E+01 -0.41635915173E+02 -0.12192381443E+02  0.47787275221E+02  0.20000019044E+02 0.  0.
        -12    1    1    2    0    0  0.11913495469E+01  0.41635915173E+02  0.12192381443E+02  0.43400724779E+02  0.00000000000E+00 0.  1.
         11    1    3    3    0    0  0.36897948393E+01 -0.29049147313E+02 -0.10186021898E+02  0.31003589920E+02  0.51100000000E-03 0. -1.
        -11    1    3    3    0    0  0.29758269793E+01 -0.36170993435E+01  0.46026728494E-01  0.46841298650E+01  0.51100000000E-03 0.  1.
         12    1    3    3    0    0 -0.78569713654E+01 -0.89696685170E+01 -0.20523862729E+01  0.12099555436E+02  0.00000000000E+00 0. -1.
</event>
<event>
 7    1  0.2834226E-010  0.4778727E+02  0.7816164E-02  0.1312668E+00
        -11   -1    0    0    0    0  0.00000000000E+00  0.00000000000E+00  0.45593999997E+02  0.45594000000E+02  0.51100000000E-03 0.  1.
         11   -1    0    0    0    0 -0.00000000000E+00 -0.00000000000E+00 -0.45593999997E+02  0.45594000000E+02  0.51100000000E-03 0. -1.
    9900012    2    1    2    0    0 -0.40307488227E+02 -0.96421791875E+01 -0.12882482082E+02  0.47787267619E+02  0.19999984381E+02 0.  0.
        -12    1    1    2    0    0  0.40307488227E+02  0.96421791875E+01  0.12882482082E+02  0.43400732381E+02  0.00000000000E+00 0.  1.
         11    1    3    3    0    0 -0.20084936354E+02 -0.19398390767E+00 -0.76145823239E+01  0.21480785887E+02  0.51100000000E-03 0. -1.
        -11    1    3    3    0    0 -0.74845243957E+01 -0.85311594430E+01 -0.71264850570E+01  0.13400954309E+02  0.51100000000E-03 0.  1.
        -12    1    3    3    0    0 -0.12738027478E+02 -0.91703583678E+00  0.18585852989E+01  0.12905527423E+02  0.00000000000E+00 0.  1.
</event>
<event>
 7    1  0.2834226E-010  0.4778727E+02  0.7816164E-02  0.1312668E+00
        -11   -1    0    0    0    0  0.00000000000E+00  0.00000000000E+00  0.45593999997E+02  0.45594000000E+02  0.51100000000E-03 0.  1.
         11   -1    0    0    0    0 -0.00000000000E+00 -0.00000000000E+00 -0.45593999997E+02  0.45594000000E+02  0.51100000000E-03 0. -1.
    9900012    2    1    2    0    0 -0.19694249783E+01  0.43347565484E+02 -0.85621018519E+00  0.47787272310E+02  0.20000005772E+02 0.  0.
        -12    1    1    2    0    0  0.19694249783E+01 -0.43347565484E+02  0.85621018519E+00  0.43400727690E+02  0.00000000000E+00 0.  1.
         11    1    3    3    0    0  0.84852886658E+00  0.29916381266E+02 -0.45455430736E+01  0.30271634105E+02  0.51100000000E-03 0. -1.
        -11    1    3    3    0    0 -0.66308014746E+01  0.69688179685E+01  0.20770979943E+01  0.98410511844E+01  0.51100000000E-03 0.  1.
         12    1    3    3    0    0  0.38128476298E+01  0.64623662489E+01  0.16122348941E+01  0.76745870206E+01  0.00000000000E+00 0. -1.
</event>
<event>
 7    1  0.2834226E-010  0.4778727E+02  0.7816164E-02  0.1312668E+00
        -11   -1    0    0    0    0  0.00000000000E+00  0.00000000000E+00  0.45593999997E+02  0.45594000000E+02  0.51100000000E-03 0.  1.
         11   -1    0    0    0    0 -0.00000000000E+00 -0.00000000000E+00 -0.45593999997E+02  0.45594000000E+02  0.51100000000E-03 0. -1.
    9900012    2    1    2    0    0 -0.76785243607E+01 -0.32626683578E+02  0.27571055492E+02  0.47787270529E+02  0.19999997651E+02 0.  0.
        -12    1    1    2    0    0  0.76785243607E+01  0.32626683578E+02 -0.27571055492E+02  0.43400729471E+02  0.00000000000E+00 0.  1.
         11    1    3    3    0    0 -0.68004645566E+01 -0.13336599365E+02  0.29712761686E+01  0.15262361650E+02  0.51100000000E-03 0. -1.
        -11    1    3    3    0    0  0.21936939854E+01 -0.17667313610E+02  0.20532035383E+02  0.27175554101E+02  0.51100000000E-03 0.  1.
        -12    1    3    3    0    0 -0.30717537895E+01 -0.16227706033E+01  0.40677439403E+01  0.53493547778E+01  0.00000000000E+00 0.  1.
</event>
<event>
 7    1  0.2834226E-010  0.4778727E+02  0.7816164E-02  0.1312668E+00
        -11   -1    0    0    0    0  0.00000000000E+00  0.00000000000E+00  0.45593999997E+02  0.45594000000E+02  0.51100000000E-03 0.  1.
         11   -1    0    0    0    0 -0.00000000000E+00 -0.00000000000E+00 -0.45593999997E+02  0.45594000000E+02  0.51100000000E-03 0. -1.
    9900012    2    1    2    0    0  0.13941397415E+01  0.18533761695E+01 -0.43338720526E+02  0.47787270448E+02  0.19999997279E+02 0.  0.
        -12    1    1    2    0    0 -0.13941397415E+01 -0.18533761695E+01  0.43338720526E+02  0.43400729552E+02  0.00000000000E+00 0.  1.
         11    1    3    3    0    0 -0.72223940505E+00 -0.16749446938E+01 -0.38580149535E+02  0.38623244399E+02  0.51100000000E-03 0. -1.
        -11    1    3    3    0    0  0.10606583023E-01  0.51634752446E+01 -0.30367667123E+01  0.59902872575E+01  0.51100000000E-03 0.  1.
         12    1    3    3    0    0  0.21057725635E+01 -0.16351543814E+01 -0.17218042785E+01  0.31737387910E+01  0.00000000000E+00 0. -1.
</event>
<event>
 7    1  0.2834226E-010  0.4778727E+02  0.7816164E-02  0.1312668E+00
        -11   -1    0    0    0    0  0.00000000000E+00  0.00000000000E+00  0.45593999997E+02  0.45594000000E+02  0.51100000000E-03 0.  1.
         11   -1    0    0    0    0 -0.00000000000E+00 -0.00000000000E+00 -0.45593999997E+02  0.45594000000E+02  0.51100000000E-03 0. -1.
    9900012    2    1    2    0    0  0.15904801802E+02  0.49482675517E+01 -0.40077121175E+02  0.47787265976E+02  0.19999976891E+02 0.  0.
        -12    1    1    2    0    0 -0.15904801802E+02 -0.49482675517E+01  0.40077121175E+02  0.43400734024E+02  0.00000000000E+00 0.  1.
         11    1    3    3    0    0 -0.13279558878E+01 -0.47459432956E+01 -0.89064637878E+01  0.10179024613E+02  0.51100000000E-03 0. -1.
        -11    1    3    3    0    0  0.92132787594E+01  0.72135326574E+01 -0.23431302423E+02  0.26190561132E+02  0.51100000000E-03 0.  1.
         12    1    3    3    0    0  0.80194789306E+01  0.24806781900E+01 -0.77393549644E+01  0.11417680231E+02  0.00000000000E+00 0. -1.
</event>
<event>
 7    1  0.2834226E-010  0.4778727E+02  0.7816164E-02  0.1312668E+00
        -11   -1    0    0    0    0  0.00000000000E+00  0.00000000000E+00  0.45593999997E+02  0.45594000000E+02  0.51100000000E-03 0. -1.
         11   -1    0    0    0    0 -0.00000000000E+00 -0.00000000000E+00 -0.45593999997E+02  0.45594000000E+02  0.51100000000E-03 0.  1.
    9900012    2    1    2    0    0  0.31203713665E+02  0.27056030432E+02 -0.13338773444E+02  0.47787269520E+02  0.19999993050E+02 0.  0.
        -12    1    1    2    0    0 -0.31203713665E+02 -0.27056030432E+02  0.13338773444E+02  0.43400730480E+02  0.00000000000E+00 0.  1.
         11    1    3    3    0    0  0.28352606762E+02  0.24635996694E+02 -0.11812338127E+02  0.39374280636E+02  0.51100000000E-03 0. -1.
        -11    1    3    3    0    0  0.25003298775E+01  0.17581057315E+01  0.27257011147E+01  0.40953671493E+01  0.51100000000E-03 0.  1.
         12    1    3    3    0    0  0.35077702489E+00  0.66192800561E+00 -0.42521364320E+01  0.43176217345E+01  0.00000000000E+00 0. -1.
</event>
<event>
 7    1  0.2834226E-010  0.4778727E+02  0.7816164E-02  0.1312668E+00
        -11   -1    0    0    0    0  0.00000000000E+00  0.00000000000E+00  0.45593999997E+02  0.45594000000E+02  0.51100000000E-03 0.  1.
         11   -1    0    0    0    0 -0.00000000000E+00 -0.00000000000E+00 -0.45593999997E+02  0.45594000000E+02  0.51100000000E-03 0. -1.
    9900012    2    1    2    0    0  0.22349388726E+02  0.26063522852E+02 -0.26548464598E+02  0.47787269909E+02  0.19999994825E+02 0.  0.
        -12    1    1    2    0    0 -0.22349388726E+02 -0.26063522852E+02  0.26548464598E+02  0.43400730091E+02  0.00000000000E+00 0.  1.
         11    1    3    3    0    0  0.68065499180E+01  0.71083343619E+01 -0.72581638791E+01  0.12228592819E+02  0.51100000000E-03 0. -1.
        -11    1    3    3    0    0  0.13943145743E+02  0.15089698511E+02 -0.56742990848E+01  0.21314501747E+02  0.51100000000E-03 0.  1.
        -12    1    3    3    0    0  0.15996930645E+01  0.38654899790E+01 -0.13616001634E+02  0.14244175342E+02  0.00000000000E+00 0.  1.
</event>
<event>
 7    1  0.2834226E-010  0.4778727E+02  0.7816164E-02  0.1312668E+00
        -11   -1    0    0    0    0  0.00000000000E+00  0.00000000000E+00  0.45593999997E+02  0.45594000000E+02  0.51100000000E-03 0.  1.
         11   -1    0    0    0    0 -0.00000000000E+00 -0.00000000000E+00 -0.45593999997E+02  0.45594000000E+02  0.51100000000E-03 0. -1.
    9900012    2    1    2    0    0  0.55783229285E+01  0.35338511172E+02 -0.24570209747E+02  0.47787271140E+02  0.20000000436E+02 0.  0.
        -12    1    1    2    0    0 -0.55783229285E+01 -0.35338511172E+02  0.24570209747E+02  0.43400728860E+02  0.00000000000E+00 0.  1.
         11    1    3    3    0    0  0.69706314784E+01  0.10559013876E+02 -0.86439980841E+01  0.15323223564E+02  0.51100000000E-03 0. -1.
        -11    1    3    3    0    0 -0.43873330676E+01  0.12273413570E+02 -0.14713111445E+01  0.13116788054E+02  0.51100000000E-03 0.  1.
        -12    1    3    3    0    0  0.29950245177E+01  0.12506083726E+02 -0.14454900519E+02  0.19347259522E+02  0.00000000000E+00 0.  1.
</event>
<event>
 7    1  0.2834226E-010  0.4778726E+02  0.7816164E-02  0.1312668E+00
        -11   -1    0    0    0    0  0.00000000000E+00  0.00000000000E+00  0.45593999997E+02  0.45594000000E+02  0.51100000000E-03 0.  1.
         11   -1    0    0    0    0 -0.00000000000E+00 -0.00000000000E+00 -0.45593999997E+02  0.45594000000E+02  0.51100000000E-03 0. -1.
    9900012    2    1    2    0    0  0.13710795943E+02  0.30470204844E+02 -0.27698457084E+02  0.47787264598E+02  0.19999970607E+02 0.  0.
        -12    1    1    2    0    0 -0.13710795943E+02 -0.30470204844E+02  0.27698457084E+02  0.43400735402E+02  0.00000000000E+00 0.  1.
         11    1    3    3    0    0  0.20124081272E+01 -0.42753800555E+00 -0.11680838987E+01  0.23657970057E+01  0.51100000000E-03 0.  1.
        -11    1    3    3    0    0 -0.29888595163E+01  0.73689444944E+01 -0.11182660496E+02  0.13721753539E+02  0.51100000000E-03 0. -1.
        -12    1    3    3    0    0  0.14687247332E+02  0.23528798355E+02 -0.15347712689E+02  0.31699714053E+02  0.00000000000E+00 0.  1.
</event>
<event>
 7    1  0.2834226E-010  0.4778727E+02  0.7816164E-02  0.1312668E+00
        -11   -1    0    0    0    0  0.00000000000E+00  0.00000000000E+00  0.45593999997E+02  0.45594000000E+02  0.51100000000E-03 0. -1.
         11   -1    0    0    0    0 -0.00000000000E+00 -0.00000000000E+00 -0.45593999997E+02  0.45594000000E+02  0.51100000000E-03 0.  1.
    9900012    2    1    2    0    0 -0.12829020285E+02 -0.35078310311E+02  0.22103205590E+02  0.47787270592E+02  0.19999997938E+02 0.  0.
        -12    1    1    2    0    0  0.12829020285E+02  0.35078310311E+02 -0.22103205590E+02  0.43400729408E+02  0.00000000000E+00 0.  1.
         11    1    3    3    0    0 -0.96995408386E+01 -0.22460982295E+02  0.17078285416E+02  0.29836967861E+02  0.51100000000E-03 0. -1.
        -11    1    3    3    0    0  0.91656535040E+00  0.18790843865E+01  0.24332720974E-01  0.20908473200E+01  0.51100000000E-03 0.  1.
        -12    1    3    3    0    0 -0.40460447969E+01 -0.14496412403E+02  0.50005874528E+01  0.15859455411E+02  0.00000000000E+00 0.  1.
</event>
<event>
 7    1  0.2834226E-010  0.4778729E+02  0.7816164E-02  0.1312668E+00
        -11   -1    0    0    0    0  0.00000000000E+00  0.00000000000E+00  0.45593999997E+02  0.45594000000E+02  0.51100000000E-03 0.  1.
         11   -1    0    0    0    0 -0.00000000000E+00 -0.00000000000E+00 -0.45593999997E+02  0.45594000000E+02  0.51100000000E-03 0. -1.
    9900012    2    1    2    0    0 -0.43373673968E+02 -0.55149532815E-01  0.15306917521E+01  0.47787289727E+02  0.20000085183E+02 0.  0.
        -12    1    1    2    0    0  0.43373673968E+02  0.55149532815E-01 -0.15306917521E+01  0.43400710273E+02  0.00000000000E+00 0.  1.
         11    1    3    3    0    0 -0.22608320264E+02 -0.32521686847E+01 -0.71110247659E+01  0.23922362337E+02  0.51100000000E-03 0. -1.
        -11    1    3    3    0    0 -0.83274748682E+01  0.17969033710E+01  0.74049111182E+01  0.11287533315E+02  0.51100000000E-03 0.  1.
         12    1    3    3    0    0 -0.12437878836E+02  0.14001157810E+01  0.12368053999E+01  0.12577394075E+02  0.00000000000E+00 0. -1.
</event>
<event>
 7    1  0.2834226E-010  0.4778724E+02  0.7816164E-02  0.1312668E+00
        -11   -1    0    0    0    0  0.00000000000E+00  0.00000000000E+00  0.45593999997E+02  0.45594000000E+02  0.51100000000E-03 0.  1.
         11   -1    0    0    0    0 -0.00000000000E+00 -0.00000000000E+00 -0.45593999997E+02  0.45594000000E+02  0.51100000000E-03 0. -1.
    9900012    2    1    2    0    0  0.20144450764E+02  0.53135004605E+01 -0.38073529347E+02  0.47787241704E+02  0.19999866224E+02 0.  0.
        -12    1    1    2    0    0 -0.20144450764E+02 -0.53135004605E+01  0.38073529347E+02  0.43400758296E+02  0.00000000000E+00 0.  1.
         11    1    3    3    0    0  0.12997645463E+02  0.38528478326E+00 -0.20391175042E+02  0.24184442350E+02  0.51100000000E-03 0. -1.
        -11    1    3    3    0    0  0.65660764229E+00  0.68043398263E+01 -0.14712223378E+02  0.16222813907E+02  0.51100000000E-03 0.  1.
        -12    1    3    3    0    0  0.64901976588E+01 -0.18761241491E+01 -0.29701309275E+01  0.73799854471E+01  0.00000000000E+00 0.  1.
</event>
<event>
 7    1  0.2834226E-010  0.4778727E+02  0.7816164E-02  0.1312668E+00
        -11   -1    0    0    0    0  0.00000000000E+00  0.00000000000E+00  0.45593999997E+02  0.45594000000E+02  0.51100000000E-03 0. -1.
         11   -1    0    0    0    0 -0.00000000000E+00 -0.00000000000E+00 -0.45593999997E+02  0.45594000000E+02  0.51100000000E-03 0.  1.
    9900012    2    1    2    0    0  0.65893144944E+01 -0.30496360664E+02  0.30169126001E+02  0.47787271401E+02  0.20000001625E+02 0.  0.
        -12    1    1    2    0    0 -0.65893144944E+01  0.30496360664E+02 -0.30169126001E+02  0.43400728599E+02  0.00000000000E+00 0.  1.
         11    1    3    3    0    0 -0.66708327134E+00 -0.23752368995E+02  0.12555830057E+02  0.26875060961E+02  0.51100000000E-03 0. -1.
        -11    1    3    3    0    0  0.70578609171E+01 -0.69819008739E+01  0.13345504296E+02  0.16633184473E+02  0.51100000000E-03 0.  1.
        -12    1    3    3    0    0  0.19853684864E+00  0.23790920495E+00  0.42677916482E+01  0.42790259666E+01  0.00000000000E+00 0.  1.
</event>
<event>
 7    1  0.2834226E-010  0.4778727E+02  0.7816164E-02  0.1312668E+00
        -11   -1    0    0    0    0  0.00000000000E+00  0.00000000000E+00  0.45593999997E+02  0.45594000000E+02  0.51100000000E-03 0. -1.
         11   -1    0    0    0    0 -0.00000000000E+00 -0.00000000000E+00 -0.45593999997E+02  0.45594000000E+02  0.51100000000E-03 0.  1.
    9900012    2    1    2    0    0 -0.12268445885E+02  0.41587931876E+02  0.18848454864E+01  0.47787268616E+02  0.19999988927E+02 0.  0.
        -12    1    1    2    0    0  0.12268445885E+02 -0.41587931876E+02 -0.18848454864E+01  0.43400731384E+02  0.00000000000E+00 0.  1.
         11    1    3    3    0    0 -0.34827845698E+01  0.32917213055E+02  0.47294410962E+01  0.33437109879E+02  0.51100000000E-03 0. -1.
        -11    1    3    3    0    0 -0.49698426409E+01  0.17750368739E+01  0.13150942279E+01  0.54387098534E+01  0.51100000000E-03 0.  1.
         12    1    3    3    0    0 -0.38158186738E+01  0.68956819471E+01 -0.41596898377E+01  0.89114488840E+01  0.00000000000E+00 0. -1.
</event>
<event>
 7    1  0.2834226E-010  0.4778727E+02  0.7816164E-02  0.1312668E+00
        -11   -1    0    0    0    0  0.00000000000E+00  0.00000000000E+00  0.45593999997E+02  0.45594000000E+02  0.51100000000E-03 0.  1.
         11   -1    0    0    0    0 -0.00000000000E+00 -0.00000000000E+00 -0.45593999997E+02  0.45594000000E+02  0.51100000000E-03 0. -1.
    9900012    2    1    2    0    0 -0.24269513030E+02  0.26042768190E+02 -0.24827165475E+02  0.47787272089E+02  0.20000004763E+02 0.  0.
        -12    1    1    2    0    0  0.24269513030E+02 -0.26042768190E+02  0.24827165475E+02  0.43400727911E+02  0.00000000000E+00 0.  1.
         11    1    3    3    0    0 -0.16738368750E+02  0.11163878906E+02 -0.22545011774E+02  0.30217258923E+02  0.51100000000E-03 0. -1.
        -11    1    3    3    0    0 -0.69268535116E+01  0.14271726834E+02 -0.33370711891E+01  0.16211092831E+02  0.51100000000E-03 0.  1.
         12    1    3    3    0    0 -0.60429076752E+00  0.60716244947E+00  0.10549174877E+01  0.13589203353E+01  0.00000000000E+00 0. -1.
</event>
<event>
 7    1  0.2834226E-010  0.4778727E+02  0.7816164E-02  0.1312668E+00
        -11   -1    0    0    0    0  0.00000000000E+00  0.00000000000E+00  0.45593999997E+02  0.45594000000E+02  0.51100000000E-03 0.  1.
         11   -1    0    0    0    0 -0.00000000000E+00 -0.00000000000E+00 -0.45593999997E+02  0.45594000000E+02  0.51100000000E-03 0. -1.
    9900012    2    1    2    0    0  0.32258535497E+02 -0.26188618540E+02 -0.12536595320E+02  0.47787273328E+02  0.20000010409E+02 0.  0.
        -12    1    1    2    0    0 -0.32258535497E+02  0.26188618540E+02  0.12536595320E+02  0.43400726672E+02  0.00000000000E+00 0.  1.
         11    1    3    3    0    0  0.18980052509E+02 -0.21150554525E+02 -0.40063266720E+01  0.28699111547E+02  0.51100000000E-03 0. -1.
        -11    1    3    3    0    0  0.23101458700E+01  0.25794079065E+00  0.19390398826E+01  0.30270750436E+01  0.51100000000E-03 0.  1.
         12    1    3    3    0    0  0.10968337118E+02 -0.52960048065E+01 -0.10469308531E+02  0.16061086737E+02  0.00000000000E+00 0. -1.
</event>
<event>
 7    1  0.2834226E-010  0.4778728E+02  0.7816164E-02  0.1312668E+00
        -11   -1    0    0    0    0  0.00000000000E+00  0.00000000000E+00  0.45593999997E+02  0.45594000000E+02  0.51100000000E-03 0.  1.
         11   -1    0    0    0    0 -0.00000000000E+00 -0.00000000000E+00 -0.45593999997E+02  0.45594000000E+02  0.51100000000E-03 0. -1.
    9900012    2    1    2    0    0  0.17258344161E+01  0.43125419059E+01 -0.43151434088E+02  0.47787276665E+02  0.20000025628E+02 0.  0.
        -12    1    1    2    0    0 -0.17258344161E+01 -0.43125419059E+01  0.43151434088E+02  0.43400723335E+02  0.00000000000E+00 0.  1.
         11    1    3    3    0    0 -0.64527560841E+01 -0.28275490580E+01 -0.17556531858E+02  0.18917317619E+02  0.51100000000E-03 0. -1.
        -11    1    3    3    0    0 -0.93904011324E+00  0.32174794913E+01 -0.78947043631E+01  0.85767317699E+01  0.51100000000E-03 0.  1.
         12    1    3    3    0    0  0.91176306135E+01  0.39226114725E+01 -0.17700197867E+02  0.20293227276E+02  0.00000000000E+00 0. -1.
</event>
<event>
 7    1  0.2834226E-010  0.4778727E+02  0.7816164E-02  0.1312668E+00
        -11   -1    0    0    0    0  0.00000000000E+00  0.00000000000E+00  0.45593999997E+02  0.45594000000E+02  0.51100000000E-03 0.  1.
         11   -1    0    0    0    0 -0.00000000000E+00 -0.00000000000E+00 -0.45593999997E+02  0.45594000000E+02  0.51100000000E-03 0. -1.
    9900012    2    1    2    0    0  0.13903281496E+01 -0.36852293340E+02 -0.22882279746E+02  0.47787271168E+02  0.20000000561E+02 0.  0.
        -12    1    1    2    0    0 -0.13903281496E+01  0.36852293340E+02  0.22882279746E+02  0.43400728832E+02  0.00000000000E+00 0.  1.
         11    1    3    3    0    0 -0.23220569070E+01 -0.87887403901E+01 -0.49706887528E+01  0.10360581685E+02  0.51100000000E-03 0. -1.
        -11    1    3    3    0    0  0.64629963059E+00 -0.12724004371E+02  0.11220040104E+01  0.12789717890E+02  0.51100000000E-03 0.  1.
        -12    1    3    3    0    0  0.30660854259E+01 -0.15339548579E+02 -0.19033595004E+02  0.24636971592E+02  0.00000000000E+00 0.  1.
</event>
<event>
 7    1  0.2834226E-010  0.4778728E+02  0.7816164E-02  0.1312668E+00
        -11   -1    0    0    0    0  0.00000000000E+00  0.00000000000E+00  0.45593999997E+02  0.45594000000E+02  0.51100000000E-03 0.  1.
         11   -1    0    0    0    0 -0.00000000000E+00 -0.00000000000E+00 -0.45593999997E+02  0.45594000000E+02  0.51100000000E-03 0. -1.
    9900012    2    1    2    0    0  0.28402388768E+02 -0.32815840423E+02  0.21779581117E+00  0.47787279897E+02  0.20000040365E+02 0.  0.
        -12    1    1    2    0    0 -0.28402388768E+02  0.32815840423E+02 -0.21779581117E+00  0.43400720103E+02  0.00000000000E+00 0.  1.
         11    1    3    3    0    0  0.28586072148E+02 -0.29253259978E+02 -0.31927059698E+01  0.41025725001E+02  0.51100000000E-03 0. -1.
        -11    1    3    3    0    0 -0.10219454470E+01 -0.39907603581E+01  0.39239977720E+01  0.56893145025E+01  0.51100000000E-03 0.  1.
         12    1    3    3    0    0  0.83826206662E+00  0.42817991251E+00 -0.51349599100E+00  0.10722403940E+01  0.00000000000E+00 0. -1.
</event>
<event>
 7    1  0.2834226E-010  0.4778727E+02  0.7816164E-02  0.1312668E+00
        -11   -1    0    0    0    0  0.00000000000E+00  0.00000000000E+00  0.45593999997E+02  0.45594000000E+02  0.51100000000E-03 0.  1.
         11   -1    0    0    0    0 -0.00000000000E+00 -0.00000000000E+00 -0.45593999997E+02  0.45594000000E+02  0.51100000000E-03 0. -1.
    9900012    2    1    2    0    0 -0.22587753698E+02  0.12351527155E+02 -0.34940755346E+02  0.47787271615E+02  0.20000002603E+02 0.  0.
        -12    1    1    2    0    0  0.22587753698E+02 -0.12351527155E+02  0.34940755346E+02  0.43400728385E+02  0.00000000000E+00 0.  1.
         11    1    3    3    0    0 -0.17104327421E+02  0.10059055985E+02 -0.34454460078E+02  0.39759935153E+02  0.51100000000E-03 0. -1.
        -11    1    3    3    0    0 -0.65443076513E+01  0.17859634655E+01 -0.74251687968E+00  0.68241453467E+01  0.51100000000E-03 0.  1.
         12    1    3    3    0    0  0.10608813744E+01  0.50650770420E+00  0.25622161232E+00  0.12031911151E+01  0.00000000000E+00 0. -1.
</event>
<event>
 7    1  0.2834226E-010  0.4778727E+02  0.7816164E-02  0.1312668E+00
        -11   -1    0    0    0    0  0.00000000000E+00  0.00000000000E+00  0.45593999997E+02  0.45594000000E+02  0.51100000000E-03 0.  1.
         11   -1    0    0    0    0 -0.00000000000E+00 -0.00000000000E+00 -0.45593999997E+02  0.45594000000E+02  0.51100000000E-03 0. -1.
    9900012    2    1    2    0    0  0.94648188648E+00  0.16491653288E+02 -0.40134186461E+02  0.47787269833E+02  0.19999994475E+02 0.  0.
        -12    1    1    2    0    0 -0.94648188648E+00 -0.16491653288E+02  0.40134186461E+02  0.43400730167E+02  0.00000000000E+00 0.  1.
         11    1    3    3    0    0 -0.59030352017E+01  0.94529898208E+01 -0.14982540342E+02  0.18673011447E+02  0.51100000000E-03 0.  1.
        -11    1    3    3    0    0  0.58731973032E+01  0.98289850452E+01 -0.21947446973E+02  0.24754672740E+02  0.51100000000E-03 0. -1.
        -12    1    3    3    0    0  0.97631978501E+00 -0.27903215776E+01 -0.32041991458E+01  0.43595856449E+01  0.00000000000E+00 0.  1.
</event>
<event>
 7    1  0.2834226E-010  0.4778733E+02  0.7816164E-02  0.1312668E+00
        -11   -1    0    0    0    0  0.00000000000E+00  0.00000000000E+00  0.45593999997E+02  0.45594000000E+02  0.51100000000E-03 0.  1.
         11   -1    0    0    0    0 -0.00000000000E+00 -0.00000000000E+00 -0.45593999997E+02  0.45594000000E+02  0.51100000000E-03 0. -1.
    9900012    2    1    2    0    0  0.23419409416E+02 -0.59507622637E+01 -0.36051881697E+02  0.47787326240E+02  0.20000251657E+02 0.  0.
        -12    1    1    2    0    0 -0.23419409416E+02  0.59507622637E+01  0.36051881697E+02  0.43400673760E+02  0.00000000000E+00 0.  1.
         11    1    3    3    0    0  0.16380891209E+02 -0.63676749178E+01 -0.23332336110E+02  0.29210936125E+02  0.51100000000E-03 0. -1.
        -11    1    3    3    0    0  0.22300089451E+01  0.58046965096E+01 -0.70092678519E+01  0.93700201465E+01  0.51100000000E-03 0.  1.
         12    1    3    3    0    0  0.48085092615E+01 -0.53877838554E+01 -0.57102777355E+01  0.92063699691E+01  0.00000000000E+00 0. -1.
</event>
<event>
 7    1  0.2834226E-010  0.4778727E+02  0.7816164E-02  0.1312668E+00
        -11   -1    0    0    0    0  0.00000000000E+00  0.00000000000E+00  0.45593999997E+02  0.45594000000E+02  0.51100000000E-03 0.  1.
         11   -1    0    0    0    0 -0.00000000000E+00 -0.00000000000E+00 -0.45593999997E+02  0.45594000000E+02  0.51100000000E-03 0. -1.
    9900012    2    1    2    0    0  0.21037370901E+02 -0.33402460447E+02 -0.18036849082E+02  0.47787271168E+02  0.20000000564E+02 0.  0.
        -12    1    1    2    0    0 -0.21037370901E+02  0.33402460447E+02  0.18036849082E+02  0.43400728832E+02  0.00000000000E+00 0.  1.
         11    1    3    3    0    0  0.43213588973E+01 -0.18196091444E+02 -0.80740462194E+01  0.20370618773E+02  0.51100000000E-03 0. -1.
        -11    1    3    3    0    0  0.33653909064E+01  0.18715736634E+01 -0.11753865569E+01  0.40261865021E+01  0.51100000000E-03 0.  1.
        -12    1    3    3    0    0  0.13350621097E+02 -0.17077942666E+02 -0.87874163053E+01  0.23390465893E+02  0.00000000000E+00 0.  1.
</event>
<event>
 7    1  0.2834226E-010  0.4778727E+02  0.7816164E-02  0.1312668E+00
        -11   -1    0    0    0    0  0.00000000000E+00  0.00000000000E+00  0.45593999997E+02  0.45594000000E+02  0.51100000000E-03 0.  1.
         11   -1    0    0    0    0 -0.00000000000E+00 -0.00000000000E+00 -0.45593999997E+02  0.45594000000E+02  0.51100000000E-03 0. -1.
    9900012    2    1    2    0    0 -0.10365461643E+01 -0.41490347546E+02  0.12692506348E+02  0.47787273223E+02  0.20000009931E+02 0.  0.
        -12    1    1    2    0    0  0.10365461643E+01  0.41490347546E+02 -0.12692506348E+02  0.43400726777E+02  0.00000000000E+00 0.  1.
         11    1    3    3    0    0 -0.61164577765E+01 -0.27750470981E+02  0.13561616085E+02  0.31486777010E+02  0.51100000000E-03 0. -1.
        -11    1    3    3    0    0  0.52528877688E+01 -0.47825388770E+01  0.92418635215E+00  0.71637719601E+01  0.51100000000E-03 0.  1.
         12    1    3    3    0    0 -0.17297615660E+00 -0.89573376877E+01 -0.17932960891E+01  0.91367242525E+01  0.00000000000E+00 0. -1.
</event>
<event>
 7    1  0.2834226E-010  0.4778727E+02  0.7816164E-02  0.1312668E+00
        -11   -1    0    0    0    0  0.00000000000E+00  0.00000000000E+00  0.45593999997E+02  0.45594000000E+02  0.51100000000E-03 0.  1.
         11   -1    0    0    0    0 -0.00000000000E+00 -0.00000000000E+00 -0.45593999997E+02  0.45594000000E+02  0.51100000000E-03 0. -1.
    9900012    2    1    2    0    0  0.15739014002E+02  0.22285886450E+02 -0.33752714798E+02  0.47787273591E+02  0.20000011610E+02 0.  0.
        -12    1    1    2    0    0 -0.15739014002E+02 -0.22285886450E+02  0.33752714798E+02  0.43400726409E+02  0.00000000000E+00 0.  1.
         11    1    3    3    0    0 -0.13445178334E+01  0.10722313756E+01 -0.12307341887E+02  0.12426909226E+02  0.51100000000E-03 0. -1.
        -11    1    3    3    0    0  0.14381459056E+02  0.20022167597E+02 -0.16716506500E+02  0.29785149818E+02  0.51100000000E-03 0.  1.
         12    1    3    3    0    0  0.27020727791E+01  0.11914874778E+01 -0.47288664108E+01  0.55752145469E+01  0.00000000000E+00 0. -1.
</event>
<event>
 7    1  0.2834226E-010  0.4778727E+02  0.7816164E-02  0.1312668E+00
        -11   -1    0    0    0    0  0.00000000000E+00  0.00000000000E+00  0.45593999997E+02  0.45594000000E+02  0.51100000000E-03 0.  1.
         11   -1    0    0    0    0 -0.00000000000E+00 -0.00000000000E+00 -0.45593999997E+02  0.45594000000E+02  0.51100000000E-03 0. -1.
    9900012    2    1    2    0    0 -0.82949483354E+01  0.27056565564E+02 -0.32905310386E+02  0.47787270056E+02  0.19999995495E+02 0.  0.
        -12    1    1    2    0    0  0.82949483354E+01 -0.27056565564E+02  0.32905310386E+02  0.43400729944E+02  0.00000000000E+00 0.  1.
         11    1    3    3    0    0 -0.72595690847E+01  0.14138460056E+01 -0.62166477063E+01  0.96616257840E+01  0.51100000000E-03 0. -1.
        -11    1    3    3    0    0  0.30180555861E+01  0.50299077555E+01 -0.34763722190E+01  0.68186359058E+01  0.51100000000E-03 0.  1.
         12    1    3    3    0    0 -0.40534348367E+01  0.20612811803E+02 -0.23212290461E+02  0.31307008367E+02  0.00000000000E+00 0. -1.
</event>
<event>
 7    1  0.2834226E-010  0.4778728E+02  0.7816164E-02  0.1312668E+00
        -11   -1    0    0    0    0  0.00000000000E+00  0.00000000000E+00  0.45593999997E+02  0.45594000000E+02  0.51100000000E-03 0.  1.
         11   -1    0    0    0    0 -0.00000000000E+00 -0.00000000000E+00 -0.45593999997E+02  0.45594000000E+02  0.51100000000E-03 0. -1.
    9900012    2    1    2    0    0  0.22052845648E+02  0.18071972597E+02 -0.32721525226E+02  0.47787281022E+02  0.20000045491E+02 0.  0.
        -12    1    1    2    0    0 -0.22052845648E+02 -0.18071972597E+02  0.32721525226E+02  0.43400718978E+02  0.00000000000E+00 0.  1.
         11    1    3    3    0    0  0.15428511182E+02  0.93776180941E+01 -0.65629712324E+01  0.19210707173E+02  0.51100000000E-03 0. -1.
        -11    1    3    3    0    0  0.20162070931E+01  0.13550158164E+01 -0.94140116623E+01  0.97223852394E+01  0.51100000000E-03 0.  1.
         12    1    3    3    0    0  0.46081273720E+01  0.73393386865E+01 -0.16744542331E+02  0.18854188609E+02  0.00000000000E+00 0. -1.
</event>
<event>
 7    1  0.2834226E-010  0.4778727E+02  0.7816164E-02  0.1312668E+00
        -11   -1    0    0    0    0  0.00000000000E+00  0.00000000000E+00  0.45593999997E+02  0.45594000000E+02  0.51100000000E-03 0.  1.
         11   -1    0    0    0    0 -0.00000000000E+00 -0.00000000000E+00 -0.45593999997E+02  0.45594000000E+02  0.51100000000E-03 0. -1.
    9900012    2    1    2    0    0  0.15151425473E+02  0.30706896961E+02 -0.26667288245E+02  0.47787268702E+02  0.19999989321E+02 0.  0.
        -12    1    1    2    0    0 -0.15151425473E+02 -0.30706896961E+02  0.26667288245E+02  0.43400731298E+02  0.00000000000E+00 0.  1.
         11    1    3    3    0    0  0.25155703870E+01  0.16208614374E+02 -0.16986681262E+02  0.23613441402E+02  0.51100000000E-03 0. -1.
        -11    1    3    3    0    0  0.70693189463E+01  0.52613975818E+00 -0.36047657475E+01  0.79527623983E+01  0.51100000000E-03 0.  1.
        -12    1    3    3    0    0  0.55665361395E+01  0.13972142829E+02 -0.60758412356E+01  0.16221064902E+02  0.00000000000E+00 0.  1.
</event>
<event>
 7    1  0.2834226E-010  0.4778727E+02  0.7816164E-02  0.1312668E+00
        -11   -1    0    0    0    0  0.00000000000E+00  0.00000000000E+00  0.45593999997E+02  0.45594000000E+02  0.51100000000E-03 0.  1.
         11   -1    0    0    0    0 -0.00000000000E+00 -0.00000000000E+00 -0.45593999997E+02  0.45594000000E+02  0.51100000000E-03 0. -1.
    9900012    2    1    2    0    0  0.21531532683E+02  0.17788773243E+02 -0.33220112849E+02  0.47787271310E+02  0.20000001210E+02 0.  0.
        -12    1    1    2    0    0 -0.21531532683E+02 -0.17788773243E+02  0.33220112849E+02  0.43400728690E+02  0.00000000000E+00 0.  1.
         11    1    3    3    0    0  0.87483689756E+01  0.72786708199E+01 -0.18507961416E+02  0.21726887597E+02  0.51100000000E-03 0. -1.
        -11    1    3    3    0    0 -0.88834523892E+00  0.65985473604E+01 -0.19103084897E+01  0.69267065275E+01  0.51100000000E-03 0.  1.
        -12    1    3    3    0    0  0.13671508946E+02  0.39115550622E+01 -0.12801842943E+02  0.19133677185E+02  0.00000000000E+00 0.  1.
</event>
<event>
 7    1  0.2834226E-010  0.4778727E+02  0.7816164E-02  0.1312668E+00
        -11   -1    0    0    0    0  0.00000000000E+00  0.00000000000E+00  0.45593999997E+02  0.45594000000E+02  0.51100000000E-03 0. -1.
         11   -1    0    0    0    0 -0.00000000000E+00 -0.00000000000E+00 -0.45593999997E+02  0.45594000000E+02  0.51100000000E-03 0.  1.
    9900012    2    1    2    0    0  0.71331674872E-01 -0.20653029908E+02  0.38171590024E+02  0.47787273998E+02  0.20000013465E+02 0.  0.
        -12    1    1    2    0    0 -0.71331674872E-01  0.20653029908E+02 -0.38171590024E+02  0.43400726002E+02  0.00000000000E+00 0.  1.
         11    1    3    3    0    0  0.23877929763E+01 -0.17175875233E+02  0.14122704960E+02  0.22364325185E+02  0.51100000000E-03 0. -1.
        -11    1    3    3    0    0  0.17281298507E+01 -0.21230290547E+01  0.16725379308E+02  0.16947920179E+02  0.51100000000E-03 0.  1.
        -12    1    3    3    0    0 -0.40445911522E+01 -0.13541256200E+01  0.73235057560E+01  0.84750286337E+01  0.00000000000E+00 0.  1.
</event>
<event>
 7    1  0.2834226E-010  0.4778727E+02  0.7816164E-02  0.1312668E+00
        -11   -1    0    0    0    0  0.00000000000E+00  0.00000000000E+00  0.45593999997E+02  0.45594000000E+02  0.51100000000E-03 0.  1.
         11   -1    0    0    0    0 -0.00000000000E+00 -0.00000000000E+00 -0.45593999997E+02  0.45594000000E+02  0.51100000000E-03 0. -1.
    9900012    2    1    2    0    0 -0.36953152003E+02  0.10637262959E+02 -0.20123029951E+02  0.47787272579E+02  0.20000006998E+02 0.  0.
        -12    1    1    2    0    0  0.36953152003E+02 -0.10637262959E+02  0.20123029951E+02  0.43400727421E+02  0.00000000000E+00 0.  1.
         11    1    3    3    0    0 -0.69621507722E+01  0.15584294280E+01 -0.16245075670E+01  0.73170534202E+01  0.51100000000E-03 0. -1.
        -11    1    3    3    0    0 -0.22893794477E+02  0.83901497720E+01 -0.45484519301E+01  0.24803404081E+02  0.51100000000E-03 0.  1.
        -12    1    3    3    0    0 -0.70972067537E+01  0.68868375895E+00 -0.13950070454E+02  0.15666815078E+02  0.00000000000E+00 0.  1.
</event>
<event>
 7    1  0.2834226E-010  0.4778728E+02  0.7816164E-02  0.1312668E+00
        -11   -1    0    0    0    0  0.00000000000E+00  0.00000000000E+00  0.45593999997E+02  0.45594000000E+02  0.51100000000E-03 0. -1.
         11   -1    0    0    0    0 -0.00000000000E+00 -0.00000000000E+00 -0.45593999997E+02  0.45594000000E+02  0.51100000000E-03 0.  1.
    9900012    2    1    2    0    0 -0.11444566967E+02  0.37626291887E+02 -0.18355014420E+02  0.47787279861E+02  0.20000040197E+02 0.  0.
        -12    1    1    2    0    0  0.11444566967E+02 -0.37626291887E+02  0.18355014420E+02  0.43400720139E+02  0.00000000000E+00 0.  1.
         11    1    3    3    0    0 -0.13477813802E+02  0.25713558974E+02 -0.75497302042E+01  0.29997283317E+02  0.51100000000E-03 0. -1.
        -11    1    3    3    0    0 -0.49440113983E+00  0.95576663221E+01 -0.10669054150E+02  0.14332555066E+02  0.51100000000E-03 0.  1.
         12    1    3    3    0    0  0.25276479755E+01  0.23550665912E+01 -0.13623006608E+00  0.34574414771E+01  0.00000000000E+00 0. -1.
</event>
<event>
 7    1  0.2834226E-010  0.4778727E+02  0.7816164E-02  0.1312668E+00
        -11   -1    0    0    0    0  0.00000000000E+00  0.00000000000E+00  0.45593999997E+02  0.45594000000E+02  0.51100000000E-03 0.  1.
         11   -1    0    0    0    0 -0.00000000000E+00 -0.00000000000E+00 -0.45593999997E+02  0.45594000000E+02  0.51100000000E-03 0. -1.
    9900012    2    1    2    0    0  0.10670843453E+02  0.41546163191E+02 -0.66085502662E+01  0.47787268295E+02  0.19999987466E+02 0.  0.
        -12    1    1    2    0    0 -0.10670843453E+02 -0.41546163191E+02  0.66085502662E+01  0.43400731705E+02  0.00000000000E+00 0.  1.
         11    1    3    3    0    0  0.11188024795E+01  0.30950994775E+02 -0.50001401799E+01  0.31372236111E+02  0.51100000000E-03 0. -1.
        -11    1    3    3    0    0  0.11937923528E+01 -0.12191189802E+01  0.52827230241E+00  0.17861867641E+01  0.51100000000E-03 0.  1.
         12    1    3    3    0    0  0.83582486210E+01  0.11814287396E+02 -0.21366823887E+01  0.14628845420E+02  0.00000000000E+00 0. -1.
</event>
<event>
 7    1  0.2834226E-010  0.4778727E+02  0.7816164E-02  0.1312668E+00
        -11   -1    0    0    0    0  0.00000000000E+00  0.00000000000E+00  0.45593999997E+02  0.45594000000E+02  0.51100000000E-03 0.  1.
         11   -1    0    0    0    0 -0.00000000000E+00 -0.00000000000E+00 -0.45593999997E+02  0.45594000000E+02  0.51100000000E-03 0. -1.
    9900012    2    1    2    0    0  0.19719838681E+02 -0.10183358376E+01 -0.38648601683E+02  0.47787268929E+02  0.19999990354E+02 0.  0.
        -12    1    1    2    0    0 -0.19719838681E+02  0.10183358376E+01  0.38648601683E+02  0.43400731071E+02  0.00000000000E+00 0.  1.
         11    1    3    3    0    0  0.76585410538E+01 -0.56092965233E+01 -0.22177162536E+02  0.24123515435E+02  0.51100000000E-03 0. -1.
        -11    1    3    3    0    0  0.14171470119E+02  0.34995275492E+01 -0.14524193777E+02  0.20591975707E+02  0.51100000000E-03 0.  1.
        -12    1    3    3    0    0 -0.21101724917E+01  0.10914331365E+01 -0.19472453701E+01  0.30717777862E+01  0.00000000000E+00 0.  1.
</event>
<event>
 7    1  0.2834226E-010  0.4778727E+02  0.7816164E-02  0.1312668E+00
        -11   -1    0    0    0    0  0.00000000000E+00  0.00000000000E+00  0.45593999997E+02  0.45594000000E+02  0.51100000000E-03 0. -1.
         11   -1    0    0    0    0 -0.00000000000E+00 -0.00000000000E+00 -0.45593999997E+02  0.45594000000E+02  0.51100000000E-03 0.  1.
    9900012    2    1    2    0    0 -0.43007583035E+02 -0.31915748179E+01  0.48769486745E+01  0.47787274468E+02  0.20000015610E+02 0.  0.
        -12    1    1    2    0    0  0.43007583035E+02  0.31915748179E+01 -0.48769486745E+01  0.43400725532E+02  0.00000000000E+00 0.  1.
         11    1    3    3    0    0 -0.11231614832E+02 -0.72437842322E+01  0.74652226305E+01  0.15308531312E+02  0.51100000000E-03 0. -1.
        -11    1    3    3    0    0 -0.13752914953E+02  0.39140284428E+01 -0.22428557700E+00  0.14300789931E+02  0.51100000000E-03 0.  1.
         12    1    3    3    0    0 -0.18023053249E+02  0.13818097150E+00 -0.23639883789E+01  0.18177953225E+02  0.00000000000E+00 0. -1.
</event>
<event>
 7    1  0.2834226E-010  0.4778727E+02  0.7816164E-02  0.1312668E+00
        -11   -1    0    0    0    0  0.00000000000E+00  0.00000000000E+00  0.45593999997E+02  0.45594000000E+02  0.51100000000E-03 0. -1.
         11   -1    0    0    0    0 -0.00000000000E+00 -0.00000000000E+00 -0.45593999997E+02  0.45594000000E+02  0.51100000000E-03 0.  1.
    9900012    2    1    2    0    0  0.39447257820E+02 -0.16257009889E+02  0.79527881882E+01  0.47787270053E+02  0.19999995478E+02 0.  0.
        -12    1    1    2    0    0 -0.39447257820E+02  0.16257009889E+02 -0.79527881882E+01  0.43400729947E+02  0.00000000000E+00 0.  1.
         11    1    3    3    0    0  0.11566747430E+02 -0.43131950839E+01  0.10671339077E+02  0.16317805486E+02  0.51100000000E-03 0. -1.
        -11    1    3    3    0    0  0.19279722451E+02 -0.10720308597E+02  0.85378680994E+00  0.22076269304E+02  0.51100000000E-03 0.  1.
         12    1    3    3    0    0  0.86007879384E+01 -0.12235062082E+01 -0.35723376984E+01  0.93931952622E+01  0.00000000000E+00 0. -1.
</event>
<event>
 7    1  0.2834226E-010  0.4778727E+02  0.7816164E-02  0.1312668E+00
        -11   -1    0    0    0    0  0.00000000000E+00  0.00000000000E+00  0.45593999997E+02  0.45594000000E+02  0.51100000000E-03 0.  1.
         11   -1    0    0    0    0 -0.00000000000E+00 -0.00000000000E+00 -0.45593999997E+02  0.45594000000E+02  0.51100000000E-03 0. -1.
    9900012    2    1    2    0    0  0.27719692713E+01  0.86203055204E+01 -0.42445610275E+02  0.47787270599E+02  0.19999997969E+02 0.  0.
        -12    1    1    2    0    0 -0.27719692713E+01 -0.86203055204E+01  0.42445610275E+02  0.43400729401E+02  0.00000000000E+00 0.  1.
         11    1    3    3    0    0  0.79818163951E+01  0.23703979027E+01 -0.68172762526E+01  0.10761200442E+02  0.51100000000E-03 0. -1.
        -11    1    3    3    0    0 -0.40069325382E+01  0.36016045945E+01 -0.11236073290E+02  0.12460995436E+02  0.51100000000E-03 0.  1.
         12    1    3    3    0    0 -0.12029145856E+01  0.26483030232E+01 -0.24392260733E+02  0.24565074721E+02  0.00000000000E+00 0. -1.
</event>
<event>
 7    1  0.2834226E-010  0.4778727E+02  0.7816164E-02  0.1312668E+00
        -11   -1    0    0    0    0  0.00000000000E+00  0.00000000000E+00  0.45593999997E+02  0.45594000000E+02  0.51100000000E-03 0.  1.
         11   -1    0    0    0    0 -0.00000000000E+00 -0.00000000000E+00 -0.45593999997E+02  0.45594000000E+02  0.51100000000E-03 0. -1.
    9900012    2    1    2    0    0  0.23081112982E+02 -0.34135966777E+02 -0.13624292841E+02  0.47787270056E+02  0.19999995491E+02 0.  0.
        -12    1    1    2    0    0 -0.23081112982E+02  0.34135966777E+02  0.13624292841E+02  0.43400729944E+02  0.00000000000E+00 0.  1.
         11    1    3    3    0    0  0.10792033421E+02 -0.20928153286E+02 -0.99081083655E+01  0.25546549610E+02  0.51100000000E-03 0. -1.
        -11    1    3    3    0    0 -0.20502070803E+01  0.19785081844E+00  0.59332577658E+00  0.21434854226E+01  0.51100000000E-03 0.  1.
        -12    1    3    3    0    0  0.14339286642E+02 -0.13405664309E+02 -0.43095102516E+01  0.20097235023E+02  0.00000000000E+00 0.  1.
</event>
<event>
 7    1  0.2834226E-010  0.4778727E+02  0.7816164E-02  0.1312668E+00
        -11   -1    0    0    0    0  0.00000000000E+00  0.00000000000E+00  0.45593999997E+02  0.45594000000E+02  0.51100000000E-03 0.  1.
         11   -1    0    0    0    0 -0.00000000000E+00 -0.00000000000E+00 -0.45593999997E+02  0.45594000000E+02  0.51100000000E-03 0. -1.
    9900012    2    1    2    0    0 -0.12709673707E+02  0.18953649528E+02 -0.36916750402E+02  0.47787273089E+02  0.20000009321E+02 0.  0.
        -12    1    1    2    0    0  0.12709673707E+02 -0.18953649528E+02  0.36916750402E+02  0.43400726911E+02  0.00000000000E+00 0.  1.
         11    1    3    3    0    0 -0.27326169280E+00  0.27209762351E+01 -0.13692445478E+02  0.13962859558E+02  0.51100000000E-03 0. -1.
        -11    1    3    3    0    0 -0.11276634428E+02  0.35537972828E+01 -0.10270486572E+02  0.15661253265E+02  0.51100000000E-03 0.  1.
        -12    1    3    3    0    0 -0.11597775862E+01  0.12678876010E+02 -0.12953818353E+02  0.18163160266E+02  0.00000000000E+00 0.  1.
</event>
<event>
 7    1  0.2834226E-010  0.4778727E+02  0.7816164E-02  0.1312668E+00
        -11   -1    0    0    0    0  0.00000000000E+00  0.00000000000E+00  0.45593999997E+02  0.45594000000E+02  0.51100000000E-03 0.  1.
         11   -1    0    0    0    0 -0.00000000000E+00 -0.00000000000E+00 -0.45593999997E+02  0.45594000000E+02  0.51100000000E-03 0. -1.
    9900012    2    1    2    0    0 -0.21509427254E+02 -0.33799282303E+02  0.16690607657E+02  0.47787270410E+02  0.19999997108E+02 0.  0.
        -12    1    1    2    0    0  0.21509427254E+02  0.33799282303E+02 -0.16690607657E+02  0.43400729590E+02  0.00000000000E+00 0.  1.
         11    1    3    3    0    0 -0.70703119711E+01 -0.21596108827E+02  0.75230918253E+01  0.23936961768E+02  0.51100000000E-03 0. -1.
        -11    1    3    3    0    0 -0.86582769983E+01 -0.44104748402E+00  0.19412180163E+01  0.88841775709E+01  0.51100000000E-03 0.  1.
        -12    1    3    3    0    0 -0.57808382849E+01 -0.11762125992E+02  0.72262978151E+01  0.14966131071E+02  0.00000000000E+00 0.  1.
</event>
<event>
 7    1  0.2834226E-010  0.4778727E+02  0.7816164E-02  0.1312668E+00
        -11   -1    0    0    0    0  0.00000000000E+00  0.00000000000E+00  0.45593999997E+02  0.45594000000E+02  0.51100000000E-03 0. -1.
         11   -1    0    0    0    0 -0.00000000000E+00 -0.00000000000E+00 -0.45593999997E+02  0.45594000000E+02  0.51100000000E-03 0.  1.
    9900012    2    1    2    0    0 -0.23032299823E+02 -0.30658406388E+02  0.20327288273E+02  0.47787269984E+02  0.19999995164E+02 0.  0.
        -12    1    1    2    0    0  0.23032299823E+02  0.30658406388E+02 -0.20327288273E+02  0.43400730016E+02  0.00000000000E+00 0.  1.
         11    1    3    3    0    0 -0.12792669630E+02 -0.13026528059E+02  0.35201239358E+01  0.18593926490E+02  0.51100000000E-03 0. -1.
        -11    1    3    3    0    0 -0.33721167129E+01 -0.12003320244E+02  0.15990108168E+02  0.20276450071E+02  0.51100000000E-03 0.  1.
        -12    1    3    3    0    0 -0.68675134808E+01 -0.56285580853E+01  0.81705616880E+00  0.89168934227E+01  0.00000000000E+00 0.  1.
</event>
<event>
 7    1  0.2834226E-010  0.4778727E+02  0.7816164E-02  0.1312668E+00
        -11   -1    0    0    0    0  0.00000000000E+00  0.00000000000E+00  0.45593999997E+02  0.45594000000E+02  0.51100000000E-03 0.  1.
         11   -1    0    0    0    0 -0.00000000000E+00 -0.00000000000E+00 -0.45593999997E+02  0.45594000000E+02  0.51100000000E-03 0. -1.
    9900012    2    1    2    0    0 -0.39495097966E+02 -0.50812071155E+01  0.17260991210E+02  0.47787271358E+02  0.20000001431E+02 0.  0.
        -12    1    1    2    0    0  0.39495097966E+02  0.50812071155E+01 -0.17260991210E+02  0.43400728642E+02  0.00000000000E+00 0.  1.
         11    1    3    3    0    0 -0.32003605896E+02 -0.35981745426E+01  0.52584822957E+01  0.32631722092E+02  0.51100000000E-03 0. -1.
        -11    1    3    3    0    0 -0.29675951584E+00 -0.58898077666E+00  0.51088646282E+01  0.51512583526E+01  0.51100000000E-03 0.  1.
        -12    1    3    3    0    0 -0.71947325543E+01 -0.89405179627E+00  0.68936442861E+01  0.10004290914E+02  0.00000000000E+00 0.  1.
</event>
<event>
 7    1  0.2834226E-010  0.4778727E+02  0.7816164E-02  0.1312668E+00
        -11   -1    0    0    0    0  0.00000000000E+00  0.00000000000E+00  0.45593999997E+02  0.45594000000E+02  0.51100000000E-03 0.  1.
         11   -1    0    0    0    0 -0.00000000000E+00 -0.00000000000E+00 -0.45593999997E+02  0.45594000000E+02  0.51100000000E-03 0. -1.
    9900012    2    1    2    0    0  0.34683081021E+02  0.93908119373E+01 -0.24341729138E+02  0.47787271488E+02  0.20000002024E+02 0.  0.
        -12    1    1    2    0    0 -0.34683081021E+02 -0.93908119373E+01  0.24341729138E+02  0.43400728512E+02  0.00000000000E+00 0.  1.
         11    1    3    3    0    0  0.11257557791E+02  0.99276093571E+01 -0.13592026086E+02  0.20249276736E+02  0.51100000000E-03 0. -1.
        -11    1    3    3    0    0  0.23659212493E+02 -0.91360694920E+00 -0.83629330730E+01  0.25110389548E+02  0.51100000000E-03 0.  1.
        -12    1    3    3    0    0 -0.23368926294E+00  0.37680952939E+00 -0.23867699791E+01  0.24276052039E+01  0.00000000000E+00 0.  1.
</event>
<event>
 7    1  0.2834226E-010  0.4778727E+02  0.7816164E-02  0.1312668E+00
        -11   -1    0    0    0    0  0.00000000000E+00  0.00000000000E+00  0.45593999997E+02  0.45594000000E+02  0.51100000000E-03 0. -1.
         11   -1    0    0    0    0 -0.00000000000E+00 -0.00000000000E+00 -0.45593999997E+02  0.45594000000E+02  0.51100000000E-03 0.  1.
    9900012    2    1    2    0    0 -0.79823000404E+01  0.77671543670E+01  0.41947321648E+02  0.47787267352E+02  0.19999983166E+02 0.  0.
        -12    1    1    2    0    0  0.79823000404E+01 -0.77671543670E+01 -0.41947321648E+02  0.43400732648E+02  0.00000000000E+00 0.  1.
         11    1    3    3    0    0 -0.55321440035E+01 -0.50494977876E+00  0.25909346472E+02  0.26498185342E+02  0.51100000000E-03 0. -1.
        -11    1    3    3    0    0 -0.25989540769E+00  0.28333280222E+01 -0.11949936301E+01  0.30859849872E+01  0.51100000000E-03 0.  1.
        -12    1    3    3    0    0 -0.21902606291E+01  0.54387761235E+01  0.17232968806E+02  0.18203097023E+02  0.00000000000E+00 0.  1.
</event>
<event>
 7    1  0.2834226E-010  0.4778727E+02  0.7816164E-02  0.1312668E+00
        -11   -1    0    0    0    0  0.00000000000E+00  0.00000000000E+00  0.45593999997E+02  0.45594000000E+02  0.51100000000E-03 0.  1.
         11   -1    0    0    0    0 -0.00000000000E+00 -0.00000000000E+00 -0.45593999997E+02  0.45594000000E+02  0.51100000000E-03 0. -1.
    9900012    2    1    2    0    0  0.38056948408E+02  0.13358201692E+02 -0.16026560560E+02  0.47787268233E+02  0.19999987181E+02 0.  0.
        -12    1    1    2    0    0 -0.38056948408E+02 -0.13358201692E+02  0.16026560560E+02  0.43400731767E+02  0.00000000000E+00 0.  1.
         11    1    3    3    0    0  0.23737596506E+02  0.48538736899E+01 -0.14625829922E+02  0.28301033176E+02  0.51100000000E-03 0. -1.
        -11    1    3    3    0    0  0.57061621055E+01  0.87580312320E+01 -0.26387348599E+01  0.10780831088E+02  0.51100000000E-03 0.  1.
         12    1    3    3    0    0  0.86131897961E+01 -0.25370323006E+00  0.12380042219E+01  0.87054039680E+01  0.00000000000E+00 0. -1.
</event>
<event>
 7    1  0.2834226E-010  0.4778728E+02  0.7816164E-02  0.1312668E+00
        -11   -1    0    0    0    0  0.00000000000E+00  0.00000000000E+00  0.45593999997E+02  0.45594000000E+02  0.51100000000E-03 0. -1.
         11   -1    0    0    0    0 -0.00000000000E+00 -0.00000000000E+00 -0.45593999997E+02  0.45594000000E+02  0.51100000000E-03 0.  1.
    9900012    2    1    2    0    0  0.22047716384E+02 -0.37243067539E+02  0.32365083442E+01  0.47787275769E+02  0.20000021541E+02 0.  0.
        -12    1    1    2    0    0 -0.22047716384E+02  0.37243067539E+02 -0.32365083442E+01  0.43400724231E+02  0.00000000000E+00 0.  1.
         11    1    3    3    0    0  0.18078969574E+02 -0.24223159471E+02 -0.58295831374E+01  0.30783025118E+02  0.51100000000E-03 0. -1.
        -11    1    3    3    0    0  0.85784294436E+00 -0.16818130327E+01  0.35426323761E+01  0.40143036766E+01  0.51100000000E-03 0.  1.
         12    1    3    3    0    0  0.31109038661E+01 -0.11338095036E+02  0.55234591054E+01  0.12989946974E+02  0.00000000000E+00 0. -1.
</event>
<event>
 7    1  0.2834226E-010  0.4778727E+02  0.7816164E-02  0.1312668E+00
        -11   -1    0    0    0    0  0.00000000000E+00  0.00000000000E+00  0.45593999997E+02  0.45594000000E+02  0.51100000000E-03 0.  1.
         11   -1    0    0    0    0 -0.00000000000E+00 -0.00000000000E+00 -0.45593999997E+02  0.45594000000E+02  0.51100000000E-03 0. -1.
    9900012    2    1    2    0    0 -0.12352672455E+02 -0.40293200493E+02 -0.10367872428E+02  0.47787270727E+02  0.19999998553E+02 0.  0.
        -12    1    1    2    0    0  0.12352672455E+02  0.40293200493E+02  0.10367872428E+02  0.43400729273E+02  0.00000000000E+00 0.  1.
         11    1    3    3    0    0  0.50372606995E-01 -0.78217635734E+01 -0.30163224538E+01  0.83833599591E+01  0.51100000000E-03 0. -1.
        -11    1    3    3    0    0  0.96165585460E+00 -0.14228467549E+02  0.29348260851E+01  0.14559782800E+02  0.51100000000E-03 0.  1.
        -12    1    3    3    0    0 -0.13364700916E+02 -0.18242969370E+02 -0.10286376059E+02  0.24844127968E+02  0.00000000000E+00 0.  1.
</event>
<event>
 7    1  0.2834226E-010  0.4778727E+02  0.7816164E-02  0.1312668E+00
        -11   -1    0    0    0    0  0.00000000000E+00  0.00000000000E+00  0.45593999997E+02  0.45594000000E+02  0.51100000000E-03 0.  1.
         11   -1    0    0    0    0 -0.00000000000E+00 -0.00000000000E+00 -0.45593999997E+02  0.45594000000E+02  0.51100000000E-03 0. -1.
    9900012    2    1    2    0    0 -0.65668793141E+01  0.73125108657E+01 -0.42273237225E+02  0.47787270691E+02  0.19999998389E+02 0.  0.
        -12    1    1    2    0    0  0.65668793141E+01 -0.73125108657E+01  0.42273237225E+02  0.43400729309E+02  0.00000000000E+00 0.  1.
         11    1    3    3    0    0  0.39072450298E+01  0.22488544768E+01 -0.16794874858E+02  0.17389414364E+02  0.51100000000E-03 0. -1.
        -11    1    3    3    0    0 -0.62215105860E+01  0.58654848381E+01 -0.60026678212E+01  0.10447158829E+02  0.51100000000E-03 0.  1.
         12    1    3    3    0    0 -0.42526137579E+01 -0.80182844915E+00 -0.19475694546E+02  0.19950697499E+02  0.00000000000E+00 0. -1.
</event>
<event>
 7    1  0.2834226E-010  0.4778727E+02  0.7816164E-02  0.1312668E+00
        -11   -1    0    0    0    0  0.00000000000E+00  0.00000000000E+00  0.45593999997E+02  0.45594000000E+02  0.51100000000E-03 0. -1.
         11   -1    0    0    0    0 -0.00000000000E+00 -0.00000000000E+00 -0.45593999997E+02  0.45594000000E+02  0.51100000000E-03 0.  1.
    9900012    2    1    2    0    0 -0.31110180349E+01  0.41544983381E+02  0.12163850776E+02  0.47787270247E+02  0.19999996365E+02 0.  0.
        -12    1    1    2    0    0  0.31110180349E+01 -0.41544983381E+02 -0.12163850776E+02  0.43400729753E+02  0.00000000000E+00 0.  1.
         11    1    3    3    0    0 -0.10161451209E+01  0.39300218141E+01  0.37604247075E+01  0.55333910586E+01  0.51100000000E-03 0. -1.
        -11    1    3    3    0    0  0.33220161217E+01  0.99820997305E+01  0.93562409960E+01  0.14078968427E+02  0.51100000000E-03 0.  1.
        -12    1    3    3    0    0 -0.54168890357E+01  0.27632861837E+02 -0.95281492724E+00  0.28174910761E+02  0.00000000000E+00 0.  1.
</event>
<event>
 7    1  0.2834226E-010  0.4778727E+02  0.7816164E-02  0.1312668E+00
        -11   -1    0    0    0    0  0.00000000000E+00  0.00000000000E+00  0.45593999997E+02  0.45594000000E+02  0.51100000000E-03 0.  1.
         11   -1    0    0    0    0 -0.00000000000E+00 -0.00000000000E+00 -0.45593999997E+02  0.45594000000E+02  0.51100000000E-03 0. -1.
    9900012    2    1    2    0    0 -0.98025803744E+01 -0.39393700687E+02 -0.15351512344E+02  0.47787272275E+02  0.20000005609E+02 0.  0.
        -12    1    1    2    0    0  0.98025803744E+01  0.39393700687E+02  0.15351512344E+02  0.43400727725E+02  0.00000000000E+00 0.  1.
         11    1    3    3    0    0 -0.86574571459E+01 -0.36376952243E+02 -0.61225811282E+01  0.37890898890E+02  0.51100000000E-03 0. -1.
        -11    1    3    3    0    0 -0.58108502556E+00 -0.64649723705E+00 -0.44287751421E+01  0.45132768589E+01  0.51100000000E-03 0.  1.
         12    1    3    3    0    0 -0.56403820286E+00 -0.23702512073E+01 -0.48001560736E+01  0.53830965262E+01  0.00000000000E+00 0. -1.
</event>
<event>
 7    1  0.2834226E-010  0.4778727E+02  0.7816164E-02  0.1312668E+00
        -11   -1    0    0    0    0  0.00000000000E+00  0.00000000000E+00  0.45593999997E+02  0.45594000000E+02  0.51100000000E-03 0.  1.
         11   -1    0    0    0    0 -0.00000000000E+00 -0.00000000000E+00 -0.45593999997E+02  0.45594000000E+02  0.51100000000E-03 0. -1.
    9900012    2    1    2    0    0 -0.28398034261E+02  0.30154446304E+02 -0.12957011761E+02  0.47787272637E+02  0.20000007263E+02 0.  0.
        -12    1    1    2    0    0  0.28398034261E+02 -0.30154446304E+02  0.12957011761E+02  0.43400727363E+02  0.00000000000E+00 0.  1.
         11    1    3    3    0    0 -0.76380844712E+01  0.71751758897E+01 -0.92212115595E+01  0.13959019533E+02  0.51100000000E-03 0. -1.
        -11    1    3    3    0    0 -0.12230862097E+02  0.86197671153E+01  0.39014833851E+01  0.15463374328E+02  0.51100000000E-03 0.  1.
        -12    1    3    3    0    0 -0.85290876933E+01  0.14359503300E+02 -0.76372835866E+01  0.18364878776E+02  0.00000000000E+00 0.  1.
</event>
<event>
 7    1  0.2834226E-010  0.4778727E+02  0.7816164E-02  0.1312668E+00
        -11   -1    0    0    0    0  0.00000000000E+00  0.00000000000E+00  0.45593999997E+02  0.45594000000E+02  0.51100000000E-03 0.  1.
         11   -1    0    0    0    0 -0.00000000000E+00 -0.00000000000E+00 -0.45593999997E+02  0.45594000000E+02  0.51100000000E-03 0. -1.
    9900012    2    1    2    0    0  0.38334511065E+00 -0.39922644976E+01 -0.43215025308E+02  0.47787267960E+02  0.19999985936E+02 0.  0.
        -12    1    1    2    0    0 -0.38334511065E+00  0.39922644976E+01  0.43215025308E+02  0.43400732040E+02  0.00000000000E+00 0.  1.
         11    1    3    3    0    0 -0.19558001404E+01  0.68472658335E+01 -0.18619227325E+02  0.19934538621E+02  0.51100000000E-03 0. -1.
        -11    1    3    3    0    0  0.14943163591E+01 -0.78782489704E+01 -0.94343494140E+01  0.12381709791E+02  0.51100000000E-03 0.  1.
         12    1    3    3    0    0  0.84482889197E+00 -0.29612813608E+01 -0.15161448569E+02  0.15471019548E+02  0.00000000000E+00 0. -1.
</event>
<event>
 7    1  0.2834226E-010  0.4778727E+02  0.7816164E-02  0.1312668E+00
        -11   -1    0    0    0    0  0.00000000000E+00  0.00000000000E+00  0.45593999997E+02  0.45594000000E+02  0.51100000000E-03 0.  1.
         11   -1    0    0    0    0 -0.00000000000E+00 -0.00000000000E+00 -0.45593999997E+02  0.45594000000E+02  0.51100000000E-03 0. -1.
    9900012    2    1    2    0    0  0.31226769607E+02 -0.30031605385E+02  0.25719895453E+01  0.47787267376E+02  0.19999983273E+02 0.  0.
        -12    1    1    2    0    0 -0.31226769607E+02  0.30031605385E+02 -0.25719895453E+01  0.43400732624E+02  0.00000000000E+00 0.  1.
         11    1    3    3    0    0 -0.10746310480E+00 -0.30375692075E+01 -0.26776732383E+01  0.40507171268E+01  0.51100000000E-03 0.  1.
        -11    1    3    3    0    0  0.23167488803E+02 -0.14391661504E+02  0.81004462386E+01  0.28451180781E+02  0.51100000000E-03 0. -1.
        -12    1    3    3    0    0  0.81667439091E+01 -0.12602374673E+02 -0.28507834550E+01  0.15285369468E+02  0.00000000000E+00 0.  1.
</event>
<event>
 7    1  0.2834226E-010  0.4778727E+02  0.7816164E-02  0.1312668E+00
        -11   -1    0    0    0    0  0.00000000000E+00  0.00000000000E+00  0.45593999997E+02  0.45594000000E+02  0.51100000000E-03 0.  1.
         11   -1    0    0    0    0 -0.00000000000E+00 -0.00000000000E+00 -0.45593999997E+02  0.45594000000E+02  0.51100000000E-03 0. -1.
    9900012    2    1    2    0    0 -0.42442871415E+02 -0.66652330303E+01 -0.61482539567E+01  0.47787266227E+02  0.19999978036E+02 0.  0.
        -12    1    1    2    0    0  0.42442871415E+02  0.66652330303E+01  0.61482539567E+01  0.43400733773E+02  0.00000000000E+00 0.  1.
         11    1    3    3    0    0  0.95970094388E+00 -0.22727960054E+01 -0.10935520935E+01  0.26986077940E+01  0.51100000000E-03 0.  1.
        -11    1    3    3    0    0 -0.37409593491E+02 -0.68404545646E+01 -0.61471042516E+01  0.38523452529E+02  0.51100000000E-03 0. -1.
        -12    1    3    3    0    0 -0.59929788682E+01  0.24480175397E+01  0.10924023884E+01  0.65652059044E+01  0.00000000000E+00 0.  1.
</event>
<event>
 7    1  0.2834226E-010  0.4778727E+02  0.7816164E-02  0.1312668E+00
        -11   -1    0    0    0    0  0.00000000000E+00  0.00000000000E+00  0.45593999997E+02  0.45594000000E+02  0.51100000000E-03 0. -1.
         11   -1    0    0    0    0 -0.00000000000E+00 -0.00000000000E+00 -0.45593999997E+02  0.45594000000E+02  0.51100000000E-03 0.  1.
    9900012    2    1    2    0    0  0.39915000694E+02  0.93028203397E+01  0.14278442436E+02  0.47787266537E+02  0.19999979451E+02 0.  0.
        -12    1    1    2    0    0 -0.39915000694E+02 -0.93028203397E+01 -0.14278442436E+02  0.43400733463E+02  0.00000000000E+00 0.  1.
         11    1    3    3    0    0  0.19217593661E+02 -0.16930286488E+01  0.87786256104E+01  0.21195436301E+02  0.51100000000E-03 0. -1.
        -11    1    3    3    0    0  0.19546156807E+02  0.97015795094E+01  0.10838579143E+01  0.21848286869E+02  0.51100000000E-03 0.  1.
        -12    1    3    3    0    0  0.11512502266E+01  0.12942694790E+01  0.44159589112E+01  0.47435433669E+01  0.00000000000E+00 0.  1.
</event>
<event>
 7    1  0.2834226E-010  0.4778727E+02  0.7816164E-02  0.1312668E+00
        -11   -1    0    0    0    0  0.00000000000E+00  0.00000000000E+00  0.45593999997E+02  0.45594000000E+02  0.51100000000E-03 0. -1.
         11   -1    0    0    0    0 -0.00000000000E+00 -0.00000000000E+00 -0.45593999997E+02  0.45594000000E+02  0.51100000000E-03 0.  1.
    9900012    2    1    2    0    0  0.38237194749E+02 -0.20225888498E+02  0.35289685707E+01  0.47787271355E+02  0.20000001415E+02 0.  0.
        -12    1    1    2    0    0 -0.38237194749E+02  0.20225888498E+02 -0.35289685707E+01  0.43400728645E+02  0.00000000000E+00 0.  1.
         11    1    3    3    0    0  0.30427814883E+02 -0.10163975727E+02  0.17159464000E+01  0.32126356679E+02  0.51100000000E-03 0. -1.
        -11    1    3    3    0    0  0.19961882300E+01 -0.60803945137E+01  0.48082854322E+01  0.80047219783E+01  0.51100000000E-03 0.  1.
         12    1    3    3    0    0  0.58131916356E+01 -0.39815182570E+01 -0.29952632615E+01  0.76561926979E+01  0.00000000000E+00 0. -1.
</event>
<event>
 7    1  0.2834226E-010  0.4778728E+02  0.7816164E-02  0.1312668E+00
        -11   -1    0    0    0    0  0.00000000000E+00  0.00000000000E+00  0.45593999997E+02  0.45594000000E+02  0.51100000000E-03 0.  1.
         11   -1    0    0    0    0 -0.00000000000E+00 -0.00000000000E+00 -0.45593999997E+02  0.45594000000E+02  0.51100000000E-03 0. -1.
    9900012    2    1    2    0    0 -0.58975831011E+00 -0.34227490867E+02 -0.26678705746E+02  0.47787282423E+02  0.20000051878E+02 0.  0.
        -12    1    1    2    0    0  0.58975831011E+00  0.34227490867E+02  0.26678705746E+02  0.43400717577E+02  0.00000000000E+00 0.  1.
         11    1    3    3    0    0 -0.68745885803E+00 -0.18054521413E+02 -0.56843762033E+01  0.18940709496E+02  0.51100000000E-03 0. -1.
        -11    1    3    3    0    0  0.19913609810E+00  0.71633511238E+00 -0.66390194181E+01  0.66805217067E+01  0.51100000000E-03 0.  1.
         12    1    3    3    0    0 -0.10143555019E+00 -0.16889304567E+02 -0.14355310124E+02  0.22166051220E+02  0.00000000000E+00 0. -1.
</event>
<event>
 7    1  0.2834226E-010  0.4778727E+02  0.7816164E-02  0.1312668E+00
        -11   -1    0    0    0    0  0.00000000000E+00  0.00000000000E+00  0.45593999997E+02  0.45594000000E+02  0.51100000000E-03 0. -1.
         11   -1    0    0    0    0 -0.00000000000E+00 -0.00000000000E+00 -0.45593999997E+02  0.45594000000E+02  0.51100000000E-03 0.  1.
    9900012    2    1    2    0    0  0.33957374245E+02 -0.44187898087E+01  0.26664477658E+02  0.47787270309E+02  0.19999996646E+02 0.  0.
        -12    1    1    2    0    0 -0.33957374245E+02  0.44187898087E+01 -0.26664477658E+02  0.43400729691E+02  0.00000000000E+00 0.  1.
         11    1    3    3    0    0  0.10620812962E+02 -0.58874368626E+01  0.77974746663E+01  0.14431361412E+02  0.51100000000E-03 0. -1.
        -11    1    3    3    0    0  0.10198461740E+02  0.54210168628E+01  0.15318536582E+02  0.19184723322E+02  0.51100000000E-03 0.  1.
        -12    1    3    3    0    0  0.13138099543E+02 -0.39523698089E+01  0.35484664093E+01  0.14171185574E+02  0.00000000000E+00 0.  1.
</event>
<event>
 7    1  0.2834226E-010  0.4778727E+02  0.7816164E-02  0.1312668E+00
        -11   -1    0    0    0    0  0.00000000000E+00  0.00000000000E+00  0.45593999997E+02  0.45594000000E+02  0.51100000000E-03 0.  1.
         11   -1    0    0    0    0 -0.00000000000E+00 -0.00000000000E+00 -0.45593999997E+02  0.45594000000E+02  0.51100000000E-03 0. -1.
    9900012    2    1    2    0    0 -0.10835595436E+02  0.33677081613E+00 -0.42024989013E+02  0.47787271382E+02  0.20000001541E+02 0.  0.
        -12    1    1    2    0    0  0.10835595436E+02 -0.33677081613E+00  0.42024989013E+02  0.43400728618E+02  0.00000000000E+00 0.  1.
         11    1    3    3    0    0  0.32415292018E+01  0.28801626427E+01 -0.66669714534E+01  0.79530721759E+01  0.51100000000E-03 0. -1.
        -11    1    3    3    0    0 -0.12820874928E+02 -0.13250848040E+01 -0.16705980030E+02  0.21100247692E+02  0.51100000000E-03 0.  1.
        -12    1    3    3    0    0 -0.12562497098E+01 -0.12183070225E+01 -0.18652037530E+02  0.18733951514E+02  0.00000000000E+00 0.  1.
</event>
<event>
 7    1  0.2834226E-010  0.4778727E+02  0.7816164E-02  0.1312668E+00
        -11   -1    0    0    0    0  0.00000000000E+00  0.00000000000E+00  0.45593999997E+02  0.45594000000E+02  0.51100000000E-03 0.  1.
         11   -1    0    0    0    0 -0.00000000000E+00 -0.00000000000E+00 -0.45593999997E+02  0.45594000000E+02  0.51100000000E-03 0. -1.
    9900012    2    1    2    0    0  0.42038442767E+02  0.17696807101E+01 -0.10642416389E+02  0.47787268824E+02  0.19999989875E+02 0.  0.
        -12    1    1    2    0    0 -0.42038442767E+02 -0.17696807101E+01  0.10642416389E+02  0.43400731176E+02  0.00000000000E+00 0.  1.
         11    1    3    3    0    0  0.27580584056E+02  0.51156045574E+01 -0.16701243843E+01  0.28100664451E+02  0.51100000000E-03 0. -1.
        -11    1    3    3    0    0  0.14414441616E+02 -0.51830250409E+01 -0.91462258245E+01  0.17840776967E+02  0.51100000000E-03 0.  1.
         12    1    3    3    0    0  0.43417094355E-01  0.18371011937E+01  0.17393382001E+00  0.18458274062E+01  0.00000000000E+00 0. -1.
</event>
<event>
 7    1  0.2834226E-010  0.4778727E+02  0.7816164E-02  0.1312668E+00
        -11   -1    0    0    0    0  0.00000000000E+00  0.00000000000E+00  0.45593999997E+02  0.45594000000E+02  0.51100000000E-03 0. -1.
         11   -1    0    0    0    0 -0.00000000000E+00 -0.00000000000E+00 -0.45593999997E+02  0.45594000000E+02  0.51100000000E-03 0.  1.
    9900012    2    1    2    0    0  0.39259824130E+02  0.16033889517E+02  0.92305958424E+01  0.47787270705E+02  0.19999998453E+02 0.  0.
        -12    1    1    2    0    0 -0.39259824130E+02 -0.16033889517E+02 -0.92305958424E+01  0.43400729295E+02  0.00000000000E+00 0.  1.
         11    1    3    3    0    0  0.15174329751E+02  0.42557136573E+01  0.97678534007E+01  0.18541368408E+02  0.51100000000E-03 0. -1.
        -11    1    3    3    0    0  0.23767822947E+02  0.76307999692E+01 -0.13839568259E+01  0.25001077028E+02  0.51100000000E-03 0.  1.
        -12    1    3    3    0    0  0.31767143154E+00  0.41473758903E+01  0.84669926763E+00  0.42448252689E+01  0.00000000000E+00 0.  1.
</event>
<event>
 7    1  0.2834226E-010  0.4778727E+02  0.7816164E-02  0.1312668E+00
        -11   -1    0    0    0    0  0.00000000000E+00  0.00000000000E+00  0.45593999997E+02  0.45594000000E+02  0.51100000000E-03 0.  1.
         11   -1    0    0    0    0 -0.00000000000E+00 -0.00000000000E+00 -0.45593999997E+02  0.45594000000E+02  0.51100000000E-03 0. -1.
    9900012    2    1    2    0    0 -0.19553079551E+01  0.19287787114E+02 -0.38830159443E+02  0.47787271397E+02  0.20000001606E+02 0.  0.
        -12    1    1    2    0    0  0.19553079551E+01 -0.19287787114E+02  0.38830159443E+02  0.43400728603E+02  0.00000000000E+00 0.  1.
         11    1    3    3    0    0  0.42959557909E+01  0.18258494080E+02 -0.36378797656E+02  0.40929753986E+02  0.51100000000E-03 0. -1.
        -11    1    3    3    0    0 -0.54894678330E+01  0.61536356096E+00 -0.22681309943E+01  0.59713773846E+01  0.51100000000E-03 0.  1.
         12    1    3    3    0    0 -0.76179591305E+00  0.41392947336E+00 -0.18323079241E+00  0.88614002581E+00  0.00000000000E+00 0. -1.
</event>
<event>
 7    1  0.2834226E-010  0.4778727E+02  0.7816164E-02  0.1312668E+00
        -11   -1    0    0    0    0  0.00000000000E+00  0.00000000000E+00  0.45593999997E+02  0.45594000000E+02  0.51100000000E-03 0. -1.
         11   -1    0    0    0    0 -0.00000000000E+00 -0.00000000000E+00 -0.45593999997E+02  0.45594000000E+02  0.51100000000E-03 0.  1.
    9900012    2    1    2    0    0 -0.13572567371E+02 -0.22538008709E+02  0.34517339969E+02  0.47787272124E+02  0.20000004923E+02 0.  0.
        -12    1    1    2    0    0  0.13572567371E+02  0.22538008709E+02 -0.34517339969E+02  0.43400727876E+02  0.00000000000E+00 0.  1.
         11    1    3    3    0    0 -0.11072832919E+02 -0.34505068921E+01  0.86571192248E+01  0.14472710188E+02  0.51100000000E-03 0. -1.
        -11    1    3    3    0    0 -0.36362182216E+01 -0.14371888893E+02  0.13554155214E+02  0.20087020613E+02  0.51100000000E-03 0.  1.
        -12    1    3    3    0    0  0.11364837687E+01 -0.47156129244E+01  0.12306065530E+02  0.13227541323E+02  0.00000000000E+00 0.  1.
</event>
<event>
 7    1  0.2834226E-010  0.4778727E+02  0.7816164E-02  0.1312668E+00
        -11   -1    0    0    0    0  0.00000000000E+00  0.00000000000E+00  0.45593999997E+02  0.45594000000E+02  0.51100000000E-03 0.  1.
         11   -1    0    0    0    0 -0.00000000000E+00 -0.00000000000E+00 -0.45593999997E+02  0.45594000000E+02  0.51100000000E-03 0. -1.
    9900012    2    1    2    0    0  0.20568367060E+02 -0.38167378608E+02  0.19536008010E+01  0.47787273400E+02  0.20000010740E+02 0.  0.
        -12    1    1    2    0    0 -0.20568367060E+02  0.38167378608E+02 -0.19536008010E+01  0.43400726600E+02  0.00000000000E+00 0.  1.
         11    1    3    3    0    0 -0.42063488881E+00 -0.14311724948E+02 -0.88252739588E+00  0.14345077887E+02  0.51100000000E-03 0. -1.
        -11    1    3    3    0    0  0.15808213607E+02 -0.18986385109E+02  0.63535732313E+01  0.25509808506E+02  0.51100000000E-03 0.  1.
        -12    1    3    3    0    0  0.51807883420E+01 -0.48692685507E+01 -0.35174450345E+01  0.79323870073E+01  0.00000000000E+00 0.  1.
</event>
<event>
 7    1  0.2834226E-010  0.4778727E+02  0.7816164E-02  0.1312668E+00
        -11   -1    0    0    0    0  0.00000000000E+00  0.00000000000E+00  0.45593999997E+02  0.45594000000E+02  0.51100000000E-03 0.  1.
         11   -1    0    0    0    0 -0.00000000000E+00 -0.00000000000E+00 -0.45593999997E+02  0.45594000000E+02  0.51100000000E-03 0. -1.
    9900012    2    1    2    0    0  0.22506211354E+02 -0.36933391589E+02  0.36081287905E+01  0.47787267781E+02  0.19999985119E+02 0.  0.
        -12    1    1    2    0    0 -0.22506211354E+02  0.36933391589E+02 -0.36081287905E+01  0.43400732219E+02  0.00000000000E+00 0.  1.
         11    1    3    3    0    0  0.18537640559E+02 -0.17546235312E+02 -0.13421749537E+01  0.25560045481E+02  0.51100000000E-03 0. -1.
        -11    1    3    3    0    0 -0.22104623659E+01 -0.76246069230E+01  0.40448773328E+01  0.89096468785E+01  0.51100000000E-03 0.  1.
         12    1    3    3    0    0  0.61790331613E+01 -0.11762549354E+02  0.90542641141E+00  0.13317575422E+02  0.00000000000E+00 0. -1.
</event>
<event>
 7    1  0.2834226E-010  0.4778726E+02  0.7816164E-02  0.1312668E+00
        -11   -1    0    0    0    0  0.00000000000E+00  0.00000000000E+00  0.45593999997E+02  0.45594000000E+02  0.51100000000E-03 0.  1.
         11   -1    0    0    0    0 -0.00000000000E+00 -0.00000000000E+00 -0.45593999997E+02  0.45594000000E+02  0.51100000000E-03 0. -1.
    9900012    2    1    2    0    0  0.18384006255E+02 -0.22477589046E+01 -0.39250474425E+02  0.47787264423E+02  0.19999969808E+02 0.  0.
        -12    1    1    2    0    0 -0.18384006255E+02  0.22477589046E+01  0.39250474425E+02  0.43400735577E+02  0.00000000000E+00 0.  1.
         11    1    3    3    0    0  0.40282264393E+01  0.53658896949E+00 -0.77077100913E+01  0.87133995135E+01  0.51100000000E-03 0. -1.
        -11    1    3    3    0    0  0.26515854405E+01  0.64289321297E+01 -0.47588531686E+01  0.84266694143E+01  0.51100000000E-03 0.  1.
        -12    1    3    3    0    0  0.11704194375E+02 -0.92132800038E+01 -0.26783911165E+02  0.30647195495E+02  0.00000000000E+00 0.  1.
</event>
<event>
 7    1  0.2834226E-010  0.4778728E+02  0.7816164E-02  0.1312668E+00
        -11   -1    0    0    0    0  0.00000000000E+00  0.00000000000E+00  0.45593999997E+02  0.45594000000E+02  0.51100000000E-03 0. -1.
         11   -1    0    0    0    0 -0.00000000000E+00 -0.00000000000E+00 -0.45593999997E+02  0.45594000000E+02  0.51100000000E-03 0.  1.
    9900012    2    1    2    0    0 -0.37611426789E+02  0.10052502643E+02 -0.19182033067E+02  0.47787278496E+02  0.20000033974E+02 0.  0.
        -12    1    1    2    0    0  0.37611426789E+02 -0.10052502643E+02  0.19182033067E+02  0.43400721504E+02  0.00000000000E+00 0.  1.
         11    1    3    3    0    0 -0.31475053515E+02  0.99144468958E+01 -0.18728072074E+02  0.37943588851E+02  0.51100000000E-03 0. -1.
        -11    1    3    3    0    0 -0.62860451608E+01 -0.87180886680E+00  0.24214047232E+01  0.67924675603E+01  0.51100000000E-03 0.  1.
        -12    1    3    3    0    0  0.14967188616E+00  0.10098646138E+01 -0.28753657160E+01  0.30512220850E+01  0.00000000000E+00 0.  1.
</event>
<event>
 7    1  0.2834226E-010  0.4778727E+02  0.7816164E-02  0.1312668E+00
        -11   -1    0    0    0    0  0.00000000000E+00  0.00000000000E+00  0.45593999997E+02  0.45594000000E+02  0.51100000000E-03 0. -1.
         11   -1    0    0    0    0 -0.00000000000E+00 -0.00000000000E+00 -0.45593999997E+02  0.45594000000E+02  0.51100000000E-03 0.  1.
    9900012    2    1    2    0    0 -0.41185679367E+02 -0.12328630780E+02 -0.59470885624E+01  0.47787272077E+02  0.20000004708E+02 0.  0.
        -12    1    1    2    0    0  0.41185679367E+02  0.12328630780E+02  0.59470885624E+01  0.43400727923E+02  0.00000000000E+00 0.  1.
         11    1    3    3    0    0 -0.13063578264E+02 -0.34794319492E+01 -0.72158676566E+01  0.15324237993E+02  0.51100000000E-03 0. -1.
        -11    1    3    3    0    0 -0.12949976028E+02 -0.52902921689E+01  0.72679323948E+01  0.15764260589E+02  0.51100000000E-03 0.  1.
        -12    1    3    3    0    0 -0.15172125075E+02 -0.35589066621E+01 -0.59991533007E+01  0.16698773496E+02  0.00000000000E+00 0.  1.
</event>
<event>
 7    1  0.2834226E-010  0.4778728E+02  0.7816164E-02  0.1312668E+00
        -11   -1    0    0    0    0  0.00000000000E+00  0.00000000000E+00  0.45593999997E+02  0.45594000000E+02  0.51100000000E-03 0.  1.
         11   -1    0    0    0    0 -0.00000000000E+00 -0.00000000000E+00 -0.45593999997E+02  0.45594000000E+02  0.51100000000E-03 0. -1.
    9900012    2    1    2    0    0 -0.33659290099E+02 -0.47785758929E+01 -0.26978509007E+02  0.47787279433E+02  0.20000038245E+02 0.  0.
        -12    1    1    2    0    0  0.33659290099E+02  0.47785758929E+01  0.26978509007E+02  0.43400720567E+02  0.00000000000E+00 0.  1.
         11    1    3    3    0    0 -0.25788536472E+02 -0.28176427402E+01 -0.25405866347E+02  0.36310408550E+02  0.51100000000E-03 0. -1.
        -11    1    3    3    0    0 -0.35681283355E+01  0.30889585264E+01 -0.36494255117E+00  0.47335386259E+01  0.51100000000E-03 0.  1.
         12    1    3    3    0    0 -0.43026252912E+01 -0.50498916791E+01 -0.12077001090E+01  0.67433322564E+01  0.00000000000E+00 0. -1.
</event>
<event>
 7    1  0.2834226E-010  0.4778724E+02  0.7816164E-02  0.1312668E+00
        -11   -1    0    0    0    0  0.00000000000E+00  0.00000000000E+00  0.45593999997E+02  0.45594000000E+02  0.51100000000E-03 0.  1.
         11   -1    0    0    0    0 -0.00000000000E+00 -0.00000000000E+00 -0.45593999997E+02  0.45594000000E+02  0.51100000000E-03 0. -1.
    9900012    2    1    2    0    0  0.31435706856E+01 -0.10788027675E+01 -0.43273317137E+02  0.47787241618E+02  0.19999865833E+02 0.  0.
        -12    1    1    2    0    0 -0.31435706856E+01  0.10788027675E+01  0.43273317137E+02  0.43400758382E+02  0.00000000000E+00 0.  1.
         11    1    3    3    0    0  0.71944092407E+01  0.51345889136E+01 -0.23906524545E+02  0.25488143199E+02  0.51100000000E-03 0. -1.
        -11    1    3    3    0    0 -0.25938093021E+01 -0.65049322739E+01 -0.72076090462E+01  0.10049458642E+02  0.51100000000E-03 0.  1.
         12    1    3    3    0    0 -0.14570292530E+01  0.29154059276E+00 -0.12159183546E+02  0.12249639777E+02  0.00000000000E+00 0. -1.
</event>
<event>
 7    1  0.2834226E-010  0.4778727E+02  0.7816164E-02  0.1312668E+00
        -11   -1    0    0    0    0  0.00000000000E+00  0.00000000000E+00  0.45593999997E+02  0.45594000000E+02  0.51100000000E-03 0.  1.
         11   -1    0    0    0    0 -0.00000000000E+00 -0.00000000000E+00 -0.45593999997E+02  0.45594000000E+02  0.51100000000E-03 0. -1.
    9900012    2    1    2    0    0 -0.88937109013E+01  0.15282662757E+02 -0.39635408003E+02  0.47787269106E+02  0.19999991162E+02 0.  0.
        -12    1    1    2    0    0  0.88937109013E+01 -0.15282662757E+02  0.39635408003E+02  0.43400730894E+02  0.00000000000E+00 0.  1.
         11    1    3    3    0    0  0.12372756864E+01  0.12287745372E+02 -0.17791593950E+02  0.21657801204E+02  0.51100000000E-03 0. -1.
        -11    1    3    3    0    0 -0.53517411125E+01  0.17317906317E+01 -0.24849263816E+01  0.61493976217E+01  0.51100000000E-03 0.  1.
         12    1    3    3    0    0 -0.47792454752E+01  0.12631267531E+01 -0.19358887672E+02  0.19980070280E+02  0.00000000000E+00 0. -1.
</event>
<event>
 7    1  0.2834226E-010  0.4778731E+02  0.7816164E-02  0.1312668E+00
        -11   -1    0    0    0    0  0.00000000000E+00  0.00000000000E+00  0.45593999997E+02  0.45594000000E+02  0.51100000000E-03 0.  1.
         11   -1    0    0    0    0 -0.00000000000E+00 -0.00000000000E+00 -0.45593999997E+02  0.45594000000E+02  0.51100000000E-03 0. -1.
    9900012    2    1    2    0    0  0.17017926900E+02 -0.23768248115E+02 -0.32079282366E+02  0.47787310932E+02  0.20000181864E+02 0.  0.
        -12    1    1    2    0    0 -0.17017926900E+02  0.23768248115E+02  0.32079282366E+02  0.43400689068E+02  0.00000000000E+00 0.  1.
         11    1    3    3    0    0  0.64156313280E+00 -0.88152244498E+01 -0.83706807213E+01  0.12173252702E+02  0.51100000000E-03 0. -1.
        -11    1    3    3    0    0  0.12779630086E+02 -0.11427875146E+02 -0.76300040018E+01  0.18765186831E+02  0.51100000000E-03 0.  1.
        -12    1    3    3    0    0  0.35967336812E+01 -0.35251485194E+01 -0.16078597643E+02  0.16848871399E+02  0.00000000000E+00 0.  1.
</event>
<event>
 7    1  0.2834226E-010  0.4778727E+02  0.7816164E-02  0.1312668E+00
        -11   -1    0    0    0    0  0.00000000000E+00  0.00000000000E+00  0.45593999997E+02  0.45594000000E+02  0.51100000000E-03 0.  1.
         11   -1    0    0    0    0 -0.00000000000E+00 -0.00000000000E+00 -0.45593999997E+02  0.45594000000E+02  0.51100000000E-03 0. -1.
    9900012    2    1    2    0    0 -0.15730253530E+02 -0.69209686566E+01 -0.39853265199E+02  0.47787269242E+02  0.19999991783E+02 0.  0.
        -12    1    1    2    0    0  0.15730253530E+02  0.69209686566E+01  0.39853265199E+02  0.43400730758E+02  0.00000000000E+00 0.  1.
         11    1    3    3    0    0 -0.13191032642E+01  0.29164106222E+00 -0.65622982815E+01  0.66999139492E+01  0.51100000000E-03 0. -1.
        -11    1    3    3    0    0 -0.19655312668E+01 -0.40437412204E+01 -0.25863727096E+02  0.26251619679E+02  0.51100000000E-03 0.  1.
        -12    1    3    3    0    0 -0.12445618999E+02 -0.31688684985E+01 -0.74272398214E+01  0.14835735614E+02  0.00000000000E+00 0.  1.
</event>
<event>
 7    1  0.2834226E-010  0.4778726E+02  0.7816164E-02  0.1312668E+00
        -11   -1    0    0    0    0  0.00000000000E+00  0.00000000000E+00  0.45593999997E+02  0.45594000000E+02  0.51100000000E-03 0.  1.
         11   -1    0    0    0    0 -0.00000000000E+00 -0.00000000000E+00 -0.45593999997E+02  0.45594000000E+02  0.51100000000E-03 0. -1.
    9900012    2    1    2    0    0 -0.26212288147E+02 -0.31131891819E+02 -0.15077972685E+02  0.47787262697E+02  0.19999961940E+02 0.  0.
        -12    1    1    2    0    0  0.26212288147E+02  0.31131891819E+02  0.15077972685E+02  0.43400737303E+02  0.00000000000E+00 0.  1.
         11    1    3    3    0    0 -0.86849851686E+01 -0.16896118962E+02 -0.26797502505E+01  0.19185642158E+02  0.51100000000E-03 0. -1.
        -11    1    3    3    0    0 -0.26143570267E+01  0.99883324932E+00 -0.55401691190E+01  0.62069319838E+01  0.51100000000E-03 0.  1.
        -12    1    3    3    0    0 -0.14912945952E+02 -0.15234606107E+02 -0.68580533156E+01  0.22394688555E+02  0.00000000000E+00 0.  1.
</event>
<event>
 7    1  0.2834226E-010  0.4778727E+02  0.7816164E-02  0.1312668E+00
        -11   -1    0    0    0    0  0.00000000000E+00  0.00000000000E+00  0.45593999997E+02  0.45594000000E+02  0.51100000000E-03 0. -1.
         11   -1    0    0    0    0 -0.00000000000E+00 -0.00000000000E+00 -0.45593999997E+02  0.45594000000E+02  0.51100000000E-03 0.  1.
    9900012    2    1    2    0    0  0.11721650175E+02  0.41761586139E+02  0.14820114419E+01  0.47787268237E+02  0.19999987200E+02 0.  0.
        -12    1    1    2    0    0 -0.11721650175E+02 -0.41761586139E+02 -0.14820114419E+01  0.43400731763E+02  0.00000000000E+00 0.  1.
         11    1    3    3    0    0 -0.43588135948E+00  0.28285338606E+02 -0.19896157051E+01  0.28358577953E+02  0.51100000000E-03 0. -1.
        -11    1    3    3    0    0  0.33906592547E+01  0.46092168500E+00  0.71788778825E+00  0.34963383873E+01  0.51100000000E-03 0.  1.
         12    1    3    3    0    0  0.87668722800E+01  0.13015325848E+02  0.27537393588E+01  0.15932351897E+02  0.00000000000E+00 0. -1.
</event>
<event>
 7    1  0.2834226E-010  0.4778728E+02  0.7816164E-02  0.1312668E+00
        -11   -1    0    0    0    0  0.00000000000E+00  0.00000000000E+00  0.45593999997E+02  0.45594000000E+02  0.51100000000E-03 0.  1.
         11   -1    0    0    0    0 -0.00000000000E+00 -0.00000000000E+00 -0.45593999997E+02  0.45594000000E+02  0.51100000000E-03 0. -1.
    9900012    2    1    2    0    0  0.93785143497E+01  0.23966849435E+02 -0.34946480603E+02  0.47787275239E+02  0.20000019124E+02 0.  0.
        -12    1    1    2    0    0 -0.93785143497E+01 -0.23966849435E+02  0.34946480603E+02  0.43400724761E+02  0.00000000000E+00 0.  1.
         11    1    3    3    0    0  0.60429709211E+01  0.13211955478E+02 -0.28816817056E+02  0.32272003511E+02  0.51100000000E-03 0. -1.
        -11    1    3    3    0    0 -0.25574572835E+01  0.64851532817E+01 -0.28008682834E+01  0.75128333035E+01  0.51100000000E-03 0.  1.
         12    1    3    3    0    0  0.58930007121E+01  0.42697406759E+01 -0.33287952631E+01  0.80024384244E+01  0.00000000000E+00 0. -1.
</event>
<event>
 7    1  0.2834226E-010  0.4778727E+02  0.7816164E-02  0.1312668E+00
        -11   -1    0    0    0    0  0.00000000000E+00  0.00000000000E+00  0.45593999997E+02  0.45594000000E+02  0.51100000000E-03 0. -1.
         11   -1    0    0    0    0 -0.00000000000E+00 -0.00000000000E+00 -0.45593999997E+02  0.45594000000E+02  0.51100000000E-03 0.  1.
    9900012    2    1    2    0    0  0.15590370326E+02  0.39363214288E+02  0.95446813059E+01  0.47787271582E+02  0.20000002452E+02 0.  0.
        -12    1    1    2    0    0 -0.15590370326E+02 -0.39363214288E+02 -0.95446813059E+01  0.43400728418E+02  0.00000000000E+00 0.  1.
         11    1    3    3    0    0  0.88723234286E+01  0.78101400216E+01  0.13407137356E+01  0.11895962498E+02  0.51100000000E-03 0. -1.
        -11    1    3    3    0    0 -0.29835858074E+01  0.82844642474E+01 -0.13958070991E+01  0.89152907892E+01  0.51100000000E-03 0.  1.
        -12    1    3    3    0    0  0.97016327044E+01  0.23268610019E+02  0.95997746694E+01  0.26976018295E+02  0.00000000000E+00 0.  1.
</event>
<event>
 7    1  0.2834226E-010  0.4778727E+02  0.7816164E-02  0.1312668E+00
        -11   -1    0    0    0    0  0.00000000000E+00  0.00000000000E+00  0.45593999997E+02  0.45594000000E+02  0.51100000000E-03 0.  1.
         11   -1    0    0    0    0 -0.00000000000E+00 -0.00000000000E+00 -0.45593999997E+02  0.45594000000E+02  0.51100000000E-03 0. -1.
    9900012    2    1    2    0    0  0.28799844826E+02 -0.41661741517E-01 -0.32468302037E+02  0.47787269190E+02  0.19999991544E+02 0.  0.
        -12    1    1    2    0    0 -0.28799844826E+02  0.41661741517E-01  0.32468302037E+02  0.43400730810E+02  0.00000000000E+00 0.  1.
         11    1    3    3    0    0  0.27665959558E+02  0.22009822913E+01 -0.29281534433E+02  0.40344242468E+02  0.51100000000E-03 0. -1.
        -11    1    3    3    0    0 -0.22571433171E+01 -0.24146566940E+01 -0.18963338465E+01  0.38106882873E+01  0.51100000000E-03 0.  1.
        -12    1    3    3    0    0  0.33910285852E+01  0.17201266116E+00 -0.12904337572E+01  0.36323384345E+01  0.00000000000E+00 0.  1.
</event>
<event>
 7    1  0.2834226E-010  0.4778727E+02  0.7816164E-02  0.1312668E+00
        -11   -1    0    0    0    0  0.00000000000E+00  0.00000000000E+00  0.45593999997E+02  0.45594000000E+02  0.51100000000E-03 0. -1.
         11   -1    0    0    0    0 -0.00000000000E+00 -0.00000000000E+00 -0.45593999997E+02  0.45594000000E+02  0.51100000000E-03 0.  1.
    9900012    2    1    2    0    0  0.55577581763E+01  0.51992342490E+01  0.42728244506E+02  0.47787267388E+02  0.19999983329E+02 0.  0.
        -12    1    1    2    0    0 -0.55577581763E+01 -0.51992342490E+01 -0.42728244506E+02  0.43400732612E+02  0.00000000000E+00 0.  1.
         11    1    3    3    0    0  0.39098184785E+01  0.11896133288E+02  0.29959187401E+02  0.32470872759E+02  0.51100000000E-03 0. -1.
        -11    1    3    3    0    0  0.23473186891E+00 -0.26309515747E+01  0.10688197709E+01  0.28494527900E+01  0.51100000000E-03 0.  1.
         12    1    3    3    0    0  0.14132078289E+01 -0.40659474647E+01  0.11700237334E+02  0.12466941839E+02  0.00000000000E+00 0. -1.
</event>
<event>
 7    1  0.2834226E-010  0.4778727E+02  0.7816164E-02  0.1312668E+00
        -11   -1    0    0    0    0  0.00000000000E+00  0.00000000000E+00  0.45593999997E+02  0.45594000000E+02  0.51100000000E-03 0.  1.
         11   -1    0    0    0    0 -0.00000000000E+00 -0.00000000000E+00 -0.45593999997E+02  0.45594000000E+02  0.51100000000E-03 0. -1.
    9900012    2    1    2    0    0 -0.18166824764E+02  0.33921590254E+02 -0.20072755339E+02  0.47787270579E+02  0.19999997876E+02 0.  0.
        -12    1    1    2    0    0  0.18166824764E+02 -0.33921590254E+02  0.20072755339E+02  0.43400729421E+02  0.00000000000E+00 0.  1.
         11    1    3    3    0    0 -0.68900204897E+01  0.58113512336E+01 -0.70969410906E+01  0.11472173230E+02  0.51100000000E-03 0. -1.
        -11    1    3    3    0    0  0.24150527086E+01  0.13314575728E+02 -0.31715185990E+01  0.13898522832E+02  0.51100000000E-03 0.  1.
        -12    1    3    3    0    0 -0.13691856983E+02  0.14795663292E+02 -0.98042956494E+01  0.22416574517E+02  0.00000000000E+00 0.  1.
</event>
<event>
 7    1  0.2834226E-010  0.4778727E+02  0.7816164E-02  0.1312668E+00
        -11   -1    0    0    0    0  0.00000000000E+00  0.00000000000E+00  0.45593999997E+02  0.45594000000E+02  0.51100000000E-03 0.  1.
         11   -1    0    0    0    0 -0.00000000000E+00 -0.00000000000E+00 -0.45593999997E+02  0.45594000000E+02  0.51100000000E-03 0. -1.
    9900012    2    1    2    0    0  0.18978084301E+02  0.16530568605E+01 -0.38996446580E+02  0.47787272741E+02  0.20000007737E+02 0.  0.
        -12    1    1    2    0    0 -0.18978084301E+02 -0.16530568605E+01  0.38996446580E+02  0.43400727259E+02  0.00000000000E+00 0.  1.
         11    1    3    3    0    0  0.94364336165E+01 -0.70279093917E+01 -0.19752910065E+02  0.22991634264E+02  0.51100000000E-03 0. -1.
        -11    1    3    3    0    0 -0.15842838468E+01  0.17379931411E+01 -0.17466253411E+01  0.29293814721E+01  0.51100000000E-03 0.  1.
         12    1    3    3    0    0  0.11125934531E+02  0.69429731112E+01 -0.17496911173E+02  0.21866257006E+02  0.00000000000E+00 0. -1.
</event>
<event>
 7    1  0.2834226E-010  0.4778727E+02  0.7816164E-02  0.1312668E+00
        -11   -1    0    0    0    0  0.00000000000E+00  0.00000000000E+00  0.45593999997E+02  0.45594000000E+02  0.51100000000E-03 0.  1.
         11   -1    0    0    0    0 -0.00000000000E+00 -0.00000000000E+00 -0.45593999997E+02  0.45594000000E+02  0.51100000000E-03 0. -1.
    9900012    2    1    2    0    0  0.87798334829E+01  0.10586304699E+02 -0.41163918170E+02  0.47787268644E+02  0.19999989056E+02 0.  0.
        -12    1    1    2    0    0 -0.87798334829E+01 -0.10586304699E+02  0.41163918170E+02  0.43400731356E+02  0.00000000000E+00 0.  1.
         11    1    3    3    0    0  0.23536522883E+01 -0.10268710066E+01 -0.15979777380E+02  0.16184790037E+02  0.51100000000E-03 0. -1.
        -11    1    3    3    0    0  0.99039734466E+01  0.11288328174E+02 -0.16877116966E+02  0.22590974312E+02  0.51100000000E-03 0.  1.
        -12    1    3    3    0    0 -0.34777922520E+01  0.32484753108E+00 -0.83070238237E+01  0.90115042959E+01  0.00000000000E+00 0.  1.
</event>
<event>
 7    1  0.2834226E-010  0.4778727E+02  0.7816164E-02  0.1312668E+00
        -11   -1    0    0    0    0  0.00000000000E+00  0.00000000000E+00  0.45593999997E+02  0.45594000000E+02  0.51100000000E-03 0.  1.
         11   -1    0    0    0    0 -0.00000000000E+00 -0.00000000000E+00 -0.45593999997E+02  0.45594000000E+02  0.51100000000E-03 0. -1.
    9900012    2    1    2    0    0  0.16698240995E+02 -0.22249814952E+02 -0.33312721959E+02  0.47787274637E+02  0.20000016379E+02 0.  0.
        -12    1    1    2    0    0 -0.16698240995E+02  0.22249814952E+02  0.33312721959E+02  0.43400725363E+02  0.00000000000E+00 0.  1.
         11    1    3    3    0    0  0.96489219974E+01 -0.10467195696E+02 -0.26610333032E+02  0.30179027582E+02  0.51100000000E-03 0. -1.
        -11    1    3    3    0    0  0.42076334421E+01 -0.70255824808E+01 -0.84802247083E+01  0.11788859137E+02  0.51100000000E-03 0.  1.
        -12    1    3    3    0    0  0.28416855555E+01 -0.47570367756E+01  0.17778357815E+01  0.58193879185E+01  0.00000000000E+00 0.  1.
</event>
<event>
 7    1  0.2834226E-010  0.4778727E+02  0.7816164E-02  0.1312668E+00
        -11   -1    0    0    0    0  0.00000000000E+00  0.00000000000E+00  0.45593999997E+02  0.45594000000E+02  0.51100000000E-03 0.  1.
         11   -1    0    0    0    0 -0.00000000000E+00 -0.00000000000E+00 -0.45593999997E+02  0.45594000000E+02  0.51100000000E-03 0. -1.
    9900012    2    1    2    0    0 -0.16709045177E+02  0.27844486081E+02 -0.28794368894E+02  0.47787271021E+02  0.19999999894E+02 0.  0.
        -12    1    1    2    0    0  0.16709045177E+02 -0.27844486081E+02  0.28794368894E+02  0.43400728979E+02  0.00000000000E+00 0.  1.
         11    1    3    3    0    0 -0.27645149257E+01  0.13164705207E+02 -0.60331011215E+01  0.14742805546E+02  0.51100000000E-03 0. -1.
        -11    1    3    3    0    0 -0.86977715949E+01  0.37874090723E+00 -0.88675107250E+01  0.12426883041E+02  0.51100000000E-03 0.  1.
        -12    1    3    3    0    0 -0.52467586564E+01  0.14301039968E+02 -0.13893757048E+02  0.20617582435E+02  0.00000000000E+00 0.  1.
</event>
<event>
 7    1  0.2834226E-010  0.4778730E+02  0.7816164E-02  0.1312668E+00
        -11   -1    0    0    0    0  0.00000000000E+00  0.00000000000E+00  0.45593999997E+02  0.45594000000E+02  0.51100000000E-03 0. -1.
         11   -1    0    0    0    0 -0.00000000000E+00 -0.00000000000E+00 -0.45593999997E+02  0.45594000000E+02  0.51100000000E-03 0.  1.
    9900012    2    1    2    0    0  0.16857712888E+01  0.12727809424E+01  0.43349266446E+02  0.47787300725E+02  0.20000135325E+02 0.  0.
        -12    1    1    2    0    0 -0.16857712888E+01 -0.12727809424E+01 -0.43349266446E+02  0.43400699275E+02  0.00000000000E+00 0.  1.
         11    1    3    3    0    0 -0.15544542614E+01 -0.23161936601E+00  0.10117698730E+02  0.10239033325E+02  0.51100000000E-03 0.  1.
        -11    1    3    3    0    0  0.61687100531E+00 -0.54944427154E+01  0.27708438532E+02  0.28254680971E+02  0.51100000000E-03 0. -1.
        -12    1    3    3    0    0  0.26233545449E+01  0.69988430239E+01  0.55231291836E+01  0.92935864294E+01  0.00000000000E+00 0.  1.
</event>
<event>
 7    1  0.2834226E-010  0.4778729E+02  0.7816164E-02  0.1312668E+00
        -11   -1    0    0    0    0  0.00000000000E+00  0.00000000000E+00  0.45593999997E+02  0.45594000000E+02  0.51100000000E-03 0. -1.
         11   -1    0    0    0    0 -0.00000000000E+00 -0.00000000000E+00 -0.45593999997E+02  0.45594000000E+02  0.51100000000E-03 0.  1.
    9900012    2    1    2    0    0 -0.36218801059E+02 -0.41985026818E+01  0.23541302557E+02  0.47787286861E+02  0.20000072114E+02 0.  0.
        -12    1    1    2    0    0  0.36218801059E+02  0.41985026818E+01 -0.23541302557E+02  0.43400713139E+02  0.00000000000E+00 0.  1.
         11    1    3    3    0    0 -0.14248838053E+02 -0.34401246449E+01  0.14539817062E+02  0.20646310176E+02  0.51100000000E-03 0. -1.
        -11    1    3    3    0    0 -0.35401727979E+01  0.45194802816E+01 -0.46631468007E+00  0.57598589476E+01  0.51100000000E-03 0.  1.
        -12    1    3    3    0    0 -0.18429790208E+02 -0.52778583185E+01  0.94678001746E+01  0.21381117737E+02  0.00000000000E+00 0.  1.
</event>
<event>
 7    1  0.2834226E-010  0.4778727E+02  0.7816164E-02  0.1312668E+00
        -11   -1    0    0    0    0  0.00000000000E+00  0.00000000000E+00  0.45593999997E+02  0.45594000000E+02  0.51100000000E-03 0.  1.
         11   -1    0    0    0    0 -0.00000000000E+00 -0.00000000000E+00 -0.45593999997E+02  0.45594000000E+02  0.51100000000E-03 0. -1.
    9900012    2    1    2    0    0 -0.21685484512E+02  0.22683944559E+02 -0.29980019520E+02  0.47787272475E+02  0.20000006523E+02 0.  0.
        -12    1    1    2    0    0  0.21685484512E+02 -0.22683944559E+02  0.29980019520E+02  0.43400727525E+02  0.00000000000E+00 0.  1.
         11    1    3    3    0    0  0.11917044276E+01  0.33461198844E+01 -0.78694645151E+01  0.86339533089E+01  0.51100000000E-03 0. -1.
        -11    1    3    3    0    0 -0.22634939828E+02  0.20469025753E+02 -0.19285513649E+02  0.36100589376E+02  0.51100000000E-03 0.  1.
        -12    1    3    3    0    0 -0.24224911127E+00 -0.11312010789E+01 -0.28250413553E+01  0.30527297901E+01  0.00000000000E+00 0.  1.
</event>
<event>
 7    1  0.2834226E-010  0.4778726E+02  0.7816164E-02  0.1312668E+00
        -11   -1    0    0    0    0  0.00000000000E+00  0.00000000000E+00  0.45593999997E+02  0.45594000000E+02  0.51100000000E-03 0.  1.
         11   -1    0    0    0    0 -0.00000000000E+00 -0.00000000000E+00 -0.45593999997E+02  0.45594000000E+02  0.51100000000E-03 0. -1.
    9900012    2    1    2    0    0 -0.30939060438E+02 -0.89391344185E+01 -0.29094518582E+02  0.47787255808E+02  0.19999930531E+02 0.  0.
        -12    1    1    2    0    0  0.30939060438E+02  0.89391344185E+01  0.29094518582E+02  0.43400744192E+02  0.00000000000E+00 0.  1.
         11    1    3    3    0    0 -0.74237439862E+01 -0.39265699627E+01 -0.63073026596E+01  0.10502951659E+02  0.51100000000E-03 0. -1.
        -11    1    3    3    0    0 -0.21429173694E+02 -0.29704480390E+00 -0.23802431047E+02  0.32028946983E+02  0.51100000000E-03 0.  1.
        -12    1    3    3    0    0 -0.20861427573E+01 -0.47155196518E+01  0.10152151252E+01  0.52553571659E+01  0.00000000000E+00 0.  1.
</event>
<event>
 7    1  0.2834226E-010  0.4778725E+02  0.7816164E-02  0.1312668E+00
        -11   -1    0    0    0    0  0.00000000000E+00  0.00000000000E+00  0.45593999997E+02  0.45594000000E+02  0.51100000000E-03 0. -1.
         11   -1    0    0    0    0 -0.00000000000E+00 -0.00000000000E+00 -0.45593999997E+02  0.45594000000E+02  0.51100000000E-03 0.  1.
    9900012    2    1    2    0    0 -0.40099248028E+02 -0.12002934153E+02  0.11471905938E+02  0.47787254079E+02  0.19999922646E+02 0.  0.
        -12    1    1    2    0    0  0.40099248028E+02  0.12002934153E+02 -0.11471905938E+02  0.43400745921E+02  0.00000000000E+00 0.  1.
         11    1    3    3    0    0 -0.25055069749E+01 -0.70786104868E+01  0.50361755908E+01  0.90414244711E+01  0.51100000000E-03 0. -1.
        -11    1    3    3    0    0 -0.29333910604E+02 -0.54994216468E+01  0.60824702237E+01  0.30458469989E+02  0.51100000000E-03 0.  1.
        -12    1    3    3    0    0 -0.82598304492E+01  0.57509798059E+00  0.35326012366E+00  0.82873596188E+01  0.00000000000E+00 0.  1.
</event>
<event>
 7    1  0.2834226E-010  0.4778727E+02  0.7816164E-02  0.1312668E+00
        -11   -1    0    0    0    0  0.00000000000E+00  0.00000000000E+00  0.45593999997E+02  0.45594000000E+02  0.51100000000E-03 0. -1.
         11   -1    0    0    0    0 -0.00000000000E+00 -0.00000000000E+00 -0.45593999997E+02  0.45594000000E+02  0.51100000000E-03 0.  1.
    9900012    2    1    2    0    0 -0.17512707421E+02 -0.38695686913E+02  0.89203259068E+01  0.47787270500E+02  0.19999997517E+02 0.  0.
        -12    1    1    2    0    0  0.17512707421E+02  0.38695686913E+02 -0.89203259068E+01  0.43400729500E+02  0.00000000000E+00 0.  1.
         11    1    3    3    0    0 -0.11001997120E+02 -0.60606675445E+01  0.53168660170E+01  0.13639820241E+02  0.51100000000E-03 0. -1.
        -11    1    3    3    0    0  0.67880382969E+00 -0.10898950551E+02 -0.29305562794E+00  0.10924000165E+02  0.51100000000E-03 0.  1.
         12    1    3    3    0    0 -0.71895141312E+01 -0.21736068818E+02  0.38965155177E+01  0.23223450094E+02  0.00000000000E+00 0. -1.
</event>
<event>
 7    1  0.2834226E-010  0.4778727E+02  0.7816164E-02  0.1312668E+00
        -11   -1    0    0    0    0  0.00000000000E+00  0.00000000000E+00  0.45593999997E+02  0.45594000000E+02  0.51100000000E-03 0.  1.
         11   -1    0    0    0    0 -0.00000000000E+00 -0.00000000000E+00 -0.45593999997E+02  0.45594000000E+02  0.51100000000E-03 0. -1.
    9900012    2    1    2    0    0  0.61082201119E+01  0.14175700536E+02 -0.40563071078E+02  0.47787267588E+02  0.19999984241E+02 0.  0.
        -12    1    1    2    0    0 -0.61082201119E+01 -0.14175700536E+02  0.40563071078E+02  0.43400732412E+02  0.00000000000E+00 0.  1.
         11    1    3    3    0    0 -0.50828393467E+01  0.96626846990E+01 -0.21307069711E+02  0.23941469282E+02  0.51100000000E-03 0. -1.
        -11    1    3    3    0    0  0.46128413732E+01 -0.96207871377E+00 -0.10943460583E+02  0.11914832386E+02  0.51100000000E-03 0.  1.
         12    1    3    3    0    0  0.65782180854E+01  0.54750945509E+01 -0.83125407833E+01  0.11930965920E+02  0.00000000000E+00 0. -1.
</event>
<event>
 7    1  0.2834226E-010  0.4778727E+02  0.7816164E-02  0.1312668E+00
        -11   -1    0    0    0    0  0.00000000000E+00  0.00000000000E+00  0.45593999997E+02  0.45594000000E+02  0.51100000000E-03 0. -1.
         11   -1    0    0    0    0 -0.00000000000E+00 -0.00000000000E+00 -0.45593999997E+02  0.45594000000E+02  0.51100000000E-03 0.  1.
    9900012    2    1    2    0    0  0.47017338941E+01  0.22945383063E+02  0.36538013112E+02  0.47787270655E+02  0.19999998223E+02 0.  0.
        -12    1    1    2    0    0 -0.47017338941E+01 -0.22945383063E+02 -0.36538013112E+02  0.43400729345E+02  0.00000000000E+00 0.  1.
         11    1    3    3    0    0 -0.33283763431E+01  0.20382314890E+02  0.25693853446E+02  0.32964995898E+02  0.51100000000E-03 0. -1.
        -11    1    3    3    0    0  0.67421563059E+01  0.95157694401E-01  0.51517828497E+01  0.84856698870E+01  0.51100000000E-03 0.  1.
         12    1    3    3    0    0  0.12879539313E+01  0.24679104786E+01  0.56923768163E+01  0.63366048700E+01  0.00000000000E+00 0. -1.
</event>
<event>
 7    1  0.2834226E-010  0.4778727E+02  0.7816164E-02  0.1312668E+00
        -11   -1    0    0    0    0  0.00000000000E+00  0.00000000000E+00  0.45593999997E+02  0.45594000000E+02  0.51100000000E-03 0.  1.
         11   -1    0    0    0    0 -0.00000000000E+00 -0.00000000000E+00 -0.45593999997E+02  0.45594000000E+02  0.51100000000E-03 0. -1.
    9900012    2    1    2    0    0 -0.38183213693E+02 -0.20363194036E+02 -0.33174946390E+01  0.47787271320E+02  0.20000001259E+02 0.  0.
        -12    1    1    2    0    0  0.38183213693E+02  0.20363194036E+02  0.33174946390E+01  0.43400728680E+02  0.00000000000E+00 0.  1.
         11    1    3    3    0    0 -0.30669205903E+02 -0.15652402271E+02  0.38864626052E+01  0.34651154085E+02  0.51100000000E-03 0. -1.
        -11    1    3    3    0    0  0.30388695664E-01 -0.26121807362E+01 -0.37671223716E+01  0.45842799757E+01  0.51100000000E-03 0.  1.
         12    1    3    3    0    0 -0.75443964849E+01 -0.20986110280E+01 -0.34368348726E+01  0.85518372593E+01  0.00000000000E+00 0. -1.
</event>
<event>
 7    1  0.2834226E-010  0.4778727E+02  0.7816164E-02  0.1312668E+00
        -11   -1    0    0    0    0  0.00000000000E+00  0.00000000000E+00  0.45593999997E+02  0.45594000000E+02  0.51100000000E-03 0.  1.
         11   -1    0    0    0    0 -0.00000000000E+00 -0.00000000000E+00 -0.45593999997E+02  0.45594000000E+02  0.51100000000E-03 0. -1.
    9900012    2    1    2    0    0 -0.31527533227E+02 -0.29826235309E+02  0.18333395096E+00  0.47787271027E+02  0.19999999919E+02 0.  0.
        -12    1    1    2    0    0  0.31527533227E+02  0.29826235309E+02 -0.18333395096E+00  0.43400728973E+02  0.00000000000E+00 0.  1.
         11    1    3    3    0    0 -0.18648840154E+02 -0.26359575931E+02 -0.18750159367E+01  0.32343811887E+02  0.51100000000E-03 0. -1.
        -11    1    3    3    0    0 -0.60906838973E+01 -0.19201397698E+01  0.47711376282E+01  0.79716448492E+01  0.51100000000E-03 0.  1.
         12    1    3    3    0    0 -0.67880091757E+01 -0.15465196078E+01 -0.27127877405E+01  0.74718142905E+01  0.00000000000E+00 0. -1.
</event>
<event>
 7    1  0.2834226E-010  0.4778727E+02  0.7816164E-02  0.1312668E+00
        -11   -1    0    0    0    0  0.00000000000E+00  0.00000000000E+00  0.45593999997E+02  0.45594000000E+02  0.51100000000E-03 0.  1.
         11   -1    0    0    0    0 -0.00000000000E+00 -0.00000000000E+00 -0.45593999997E+02  0.45594000000E+02  0.51100000000E-03 0. -1.
    9900012    2    1    2    0    0  0.25498016726E+02  0.33413196815E+02 -0.10818167356E+02  0.47787270475E+02  0.19999997404E+02 0.  0.
        -12    1    1    2    0    0 -0.25498016726E+02 -0.33413196815E+02  0.10818167356E+02  0.43400729525E+02  0.00000000000E+00 0.  1.
         11    1    3    3    0    0  0.18432190234E+02  0.12130923015E+02 -0.32539030723E+01  0.22304546968E+02  0.51100000000E-03 0.  1.
        -11    1    3    3    0    0  0.14225925004E+01  0.56560882963E+01 -0.66477342703E+01  0.88434990489E+01  0.51100000000E-03 0. -1.
         12    1    3    3    0    0  0.56432339919E+01  0.15626185504E+02 -0.91653001375E+00  0.16639224458E+02  0.00000000000E+00 0. -1.
</event>
<event>
 7    1  0.2834226E-010  0.4778725E+02  0.7816164E-02  0.1312668E+00
        -11   -1    0    0    0    0  0.00000000000E+00  0.00000000000E+00  0.45593999997E+02  0.45594000000E+02  0.51100000000E-03 0.  1.
         11   -1    0    0    0    0 -0.00000000000E+00 -0.00000000000E+00 -0.45593999997E+02  0.45594000000E+02  0.51100000000E-03 0. -1.
    9900012    2    1    2    0    0 -0.23314950458E+02  0.26747930924E+02  0.24991719829E+02  0.47787253652E+02  0.19999920699E+02 0.  0.
        -12    1    1    2    0    0  0.23314950458E+02 -0.26747930924E+02 -0.24991719829E+02  0.43400746348E+02  0.00000000000E+00 0.  1.
         11    1    3    3    0    0 -0.15061633880E+02  0.11725829914E+02  0.76199435116E+01  0.20552650478E+02  0.51100000000E-03 0. -1.
        -11    1    3    3    0    0  0.11940555751E+01  0.14310677762E+00  0.63152539817E+01  0.64287387084E+01  0.51100000000E-03 0.  1.
        -12    1    3    3    0    0 -0.94473721538E+01  0.14878994233E+02  0.11056522336E+02  0.20805864465E+02  0.00000000000E+00 0.  1.
</event>
<event>
 7    1  0.2834226E-010  0.4778726E+02  0.7816164E-02  0.1312668E+00
        -11   -1    0    0    0    0  0.00000000000E+00  0.00000000000E+00  0.45593999997E+02  0.45594000000E+02  0.51100000000E-03 0.  1.
         11   -1    0    0    0    0 -0.00000000000E+00 -0.00000000000E+00 -0.45593999997E+02  0.45594000000E+02  0.51100000000E-03 0. -1.
    9900012    2    1    2    0    0 -0.49742971978E+01  0.30509161456E+02 -0.30464265565E+02  0.47787262197E+02  0.19999959663E+02 0.  0.
        -12    1    1    2    0    0  0.49742971978E+01 -0.30509161456E+02  0.30464265565E+02  0.43400737803E+02  0.00000000000E+00 0.  1.
         11    1    3    3    0    0 -0.29681450682E+01  0.75992819527E+01 -0.44362339340E+01  0.92865032774E+01  0.51100000000E-03 0. -1.
        -11    1    3    3    0    0 -0.87690296493E+01  0.12527151606E+02 -0.18502417483E+02  0.24003434365E+02  0.51100000000E-03 0.  1.
        -12    1    3    3    0    0  0.67628775197E+01  0.10382727898E+02 -0.75256141481E+01  0.14497324555E+02  0.00000000000E+00 0.  1.
</event>
<event>
 7    1  0.2834226E-010  0.4778728E+02  0.7816164E-02  0.1312668E+00
        -11   -1    0    0    0    0  0.00000000000E+00  0.00000000000E+00  0.45593999997E+02  0.45594000000E+02  0.51100000000E-03 0.  1.
         11   -1    0    0    0    0 -0.00000000000E+00 -0.00000000000E+00 -0.45593999997E+02  0.45594000000E+02  0.51100000000E-03 0. -1.
    9900012    2    1    2    0    0  0.34880969246E+02 -0.17456685766E+02 -0.19031679975E+02  0.47787277239E+02  0.20000028245E+02 0.  0.
        -12    1    1    2    0    0 -0.34880969246E+02  0.17456685766E+02  0.19031679975E+02  0.43400722761E+02  0.00000000000E+00 0.  1.
         11    1    3    3    0    0  0.10375349316E+02 -0.34712105202E+01 -0.34041511212E+01  0.11457985033E+02  0.51100000000E-03 0. -1.
        -11    1    3    3    0    0  0.21963006053E+02 -0.15979587334E+02 -0.84291339048E+01  0.28438901963E+02  0.51100000000E-03 0.  1.
        -12    1    3    3    0    0  0.25426138777E+01  0.19941120877E+01 -0.71983949486E+01  0.78903902430E+01  0.00000000000E+00 0.  1.
</event>
<event>
 7    1  0.2834226E-010  0.4778727E+02  0.7816164E-02  0.1312668E+00
        -11   -1    0    0    0    0  0.00000000000E+00  0.00000000000E+00  0.45593999997E+02  0.45594000000E+02  0.51100000000E-03 0. -1.
         11   -1    0    0    0    0 -0.00000000000E+00 -0.00000000000E+00 -0.45593999997E+02  0.45594000000E+02  0.51100000000E-03 0.  1.
    9900012    2    1    2    0    0  0.42873556824E+02  0.63556238490E+01  0.22556425835E+01  0.47787265528E+02  0.19999974846E+02 0.  0.
        -12    1    1    2    0    0 -0.42873556824E+02 -0.63556238490E+01 -0.22556425835E+01  0.43400734472E+02  0.00000000000E+00 0.  1.
         11    1    3    3    0    0  0.24637253631E+02  0.15565620082E+01  0.72049768906E+01  0.25716314744E+02  0.51100000000E-03 0. -1.
        -11    1    3    3    0    0  0.41253267164E+01 -0.22789444973E+01  0.16036013239E+01  0.49782975008E+01  0.51100000000E-03 0.  1.
         12    1    3    3    0    0  0.14110976477E+02  0.70780063381E+01 -0.65529356310E+01  0.17092653283E+02  0.00000000000E+00 0. -1.
</event>
<event>
 7    1  0.2834226E-010  0.4778727E+02  0.7816164E-02  0.1312668E+00
        -11   -1    0    0    0    0  0.00000000000E+00  0.00000000000E+00  0.45593999997E+02  0.45594000000E+02  0.51100000000E-03 0.  1.
         11   -1    0    0    0    0 -0.00000000000E+00 -0.00000000000E+00 -0.45593999997E+02  0.45594000000E+02  0.51100000000E-03 0. -1.
    9900012    2    1    2    0    0 -0.38995905153E+02  0.15304696231E+02 -0.11345017784E+02  0.47787265283E+02  0.19999973731E+02 0.  0.
        -12    1    1    2    0    0  0.38995905153E+02 -0.15304696231E+02  0.11345017784E+02  0.43400734717E+02  0.00000000000E+00 0.  1.
         11    1    3    3    0    0 -0.28418705897E+01 -0.36715468651E+01 -0.17466786162E+01  0.49605817482E+01  0.51100000000E-03 0. -1.
        -11    1    3    3    0    0 -0.13244564563E+02  0.59617143218E+01  0.69069116216E+00  0.14540893462E+02  0.51100000000E-03 0.  1.
         12    1    3    3    0    0 -0.22909470000E+02  0.13014528774E+02 -0.10289030330E+02  0.28285790073E+02  0.00000000000E+00 0. -1.
</event>
<event>
 7    1  0.2834226E-010  0.4778727E+02  0.7816164E-02  0.1312668E+00
        -11   -1    0    0    0    0  0.00000000000E+00  0.00000000000E+00  0.45593999997E+02  0.45594000000E+02  0.51100000000E-03 0.  1.
         11   -1    0    0    0    0 -0.00000000000E+00 -0.00000000000E+00 -0.45593999997E+02  0.45594000000E+02  0.51100000000E-03 0. -1.
    9900012    2    1    2    0    0  0.27177390035E+02  0.19393315685E+02 -0.27729259540E+02  0.47787273543E+02  0.20000011391E+02 0.  0.
        -12    1    1    2    0    0 -0.27177390035E+02 -0.19393315685E+02  0.27729259540E+02  0.43400726457E+02  0.00000000000E+00 0.  1.
         11    1    3    3    0    0  0.25078388300E+02  0.11553427519E+02 -0.18366735539E+02  0.33162391678E+02  0.51100000000E-03 0. -1.
        -11    1    3    3    0    0 -0.18525783064E+01 -0.24138135613E+00 -0.36845910147E+00  0.19042252259E+01  0.51100000000E-03 0.  1.
         12    1    3    3    0    0  0.39515800409E+01  0.80812695221E+01 -0.89940648995E+01  0.12720656639E+02  0.00000000000E+00 0. -1.
</event>
<event>
 7    1  0.2834226E-010  0.4778727E+02  0.7816164E-02  0.1312668E+00
        -11   -1    0    0    0    0  0.00000000000E+00  0.00000000000E+00  0.45593999997E+02  0.45594000000E+02  0.51100000000E-03 0.  1.
         11   -1    0    0    0    0 -0.00000000000E+00 -0.00000000000E+00 -0.45593999997E+02  0.45594000000E+02  0.51100000000E-03 0. -1.
    9900012    2    1    2    0    0 -0.19716400002E+02  0.20736029091E+02 -0.32632864432E+02  0.47787272211E+02  0.20000005321E+02 0.  0.
        -12    1    1    2    0    0  0.19716400002E+02 -0.20736029091E+02  0.32632864432E+02  0.43400727789E+02  0.00000000000E+00 0.  1.
         11    1    3    3    0    0 -0.34093991663E+01  0.58329227941E+01 -0.19975586513E+02  0.21087224754E+02  0.51100000000E-03 0. -1.
        -11    1    3    3    0    0 -0.11754889261E+02  0.66423325441E+01 -0.10288923540E+02  0.16975274697E+02  0.51100000000E-03 0.  1.
         12    1    3    3    0    0 -0.45521115745E+01  0.82607737528E+01 -0.23683543792E+01  0.97247727608E+01  0.00000000000E+00 0. -1.
</event>
<event>
 7    1  0.2834226E-010  0.4778727E+02  0.7816164E-02  0.1312668E+00
        -11   -1    0    0    0    0  0.00000000000E+00  0.00000000000E+00  0.45593999997E+02  0.45594000000E+02  0.51100000000E-03 0.  1.
         11   -1    0    0    0    0 -0.00000000000E+00 -0.00000000000E+00 -0.45593999997E+02  0.45594000000E+02  0.51100000000E-03 0. -1.
    9900012    2    1    2    0    0 -0.33629363632E+02  0.25412828540E+02 -0.10338139080E+02  0.47787273367E+02  0.20000010588E+02 0.  0.
        -12    1    1    2    0    0  0.33629363632E+02 -0.25412828540E+02  0.10338139080E+02  0.43400726633E+02  0.00000000000E+00 0.  1.
         11    1    3    3    0    0 -0.14562860431E+02  0.92028040360E+01 -0.80024388263E+01  0.18994934417E+02  0.51100000000E-03 0. -1.
        -11    1    3    3    0    0 -0.46508306818E+01 -0.46699649792E+00  0.36724116009E+01  0.59443182104E+01  0.51100000000E-03 0.  1.
        -12    1    3    3    0    0 -0.14415672519E+02  0.16677021002E+02 -0.60081118545E+01  0.22848020740E+02  0.00000000000E+00 0.  1.
</event>
<event>
 7    1  0.2834226E-010  0.4778727E+02  0.7816164E-02  0.1312668E+00
        -11   -1    0    0    0    0  0.00000000000E+00  0.00000000000E+00  0.45593999997E+02  0.45594000000E+02  0.51100000000E-03 0.  1.
         11   -1    0    0    0    0 -0.00000000000E+00 -0.00000000000E+00 -0.45593999997E+02  0.45594000000E+02  0.51100000000E-03 0. -1.
    9900012    2    1    2    0    0  0.95934996940E+01 -0.25636007498E+02 -0.33680607655E+02  0.47787269029E+02  0.19999990809E+02 0.  0.
        -12    1    1    2    0    0 -0.95934996940E+01  0.25636007498E+02  0.33680607655E+02  0.43400730971E+02  0.00000000000E+00 0.  1.
         11    1    3    3    0    0 -0.13446652737E+00 -0.14652831207E+02 -0.12124965870E+02  0.19019420108E+02  0.51100000000E-03 0.  1.
        -11    1    3    3    0    0  0.37637614574E+01 -0.11324844865E+01 -0.15022452550E+02  0.15528119729E+02  0.51100000000E-03 0. -1.
        -12    1    3    3    0    0  0.59642047639E+01 -0.98506918050E+01 -0.65331892347E+01  0.13239729192E+02  0.00000000000E+00 0.  1.
</event>
<event>
 7    1  0.2834226E-010  0.4778727E+02  0.7816164E-02  0.1312668E+00
        -11   -1    0    0    0    0  0.00000000000E+00  0.00000000000E+00  0.45593999997E+02  0.45594000000E+02  0.51100000000E-03 0.  1.
         11   -1    0    0    0    0 -0.00000000000E+00 -0.00000000000E+00 -0.45593999997E+02  0.45594000000E+02  0.51100000000E-03 0. -1.
    9900012    2    1    2    0    0 -0.99989417231E-01  0.43271376460E+02  0.33468209789E+01  0.47787271558E+02  0.20000002341E+02 0.  0.
        -12    1    1    2    0    0  0.99989417231E-01 -0.43271376460E+02 -0.33468209789E+01  0.43400728442E+02  0.00000000000E+00 0.  1.
         11    1    3    3    0    0  0.48354690271E+01  0.16207889959E+02 -0.43084442830E+01  0.17453943682E+02  0.51100000000E-03 0. -1.
        -11    1    3    3    0    0 -0.32371660406E+01  0.27420249294E+02  0.70637898441E+01  0.28499937588E+02  0.51100000000E-03 0.  1.
        -12    1    3    3    0    0 -0.16982924038E+01 -0.35676279257E+00  0.59147541786E+00  0.18333902882E+01  0.00000000000E+00 0.  1.
</event>
<event>
 7    1  0.2834226E-010  0.4778727E+02  0.7816164E-02  0.1312668E+00
        -11   -1    0    0    0    0  0.00000000000E+00  0.00000000000E+00  0.45593999997E+02  0.45594000000E+02  0.51100000000E-03 0.  1.
         11   -1    0    0    0    0 -0.00000000000E+00 -0.00000000000E+00 -0.45593999997E+02  0.45594000000E+02  0.51100000000E-03 0. -1.
    9900012    2    1    2    0    0 -0.29727044037E+01 -0.37321602203E+02 -0.21951858161E+02  0.47787273748E+02  0.20000012327E+02 0.  0.
        -12    1    1    2    0    0  0.29727044037E+01  0.37321602203E+02  0.21951858161E+02  0.43400726252E+02  0.00000000000E+00 0.  1.
         11    1    3    3    0    0 -0.76786238643E+01 -0.41732689257E+01 -0.65268313047E+01  0.10907656261E+02  0.51100000000E-03 0. -1.
        -11    1    3    3    0    0  0.19149415900E+01 -0.14626145620E+02 -0.62198630337E+01  0.16008679940E+02  0.51100000000E-03 0.  1.
         12    1    3    3    0    0  0.27909778706E+01 -0.18522187657E+02 -0.92051638225E+01  0.20870937547E+02  0.00000000000E+00 0. -1.
</event>
<event>
 7    1  0.2834226E-010  0.4778727E+02  0.7816164E-02  0.1312668E+00
        -11   -1    0    0    0    0  0.00000000000E+00  0.00000000000E+00  0.45593999997E+02  0.45594000000E+02  0.51100000000E-03 0.  1.
         11   -1    0    0    0    0 -0.00000000000E+00 -0.00000000000E+00 -0.45593999997E+02  0.45594000000E+02  0.51100000000E-03 0. -1.
    9900012    2    1    2    0    0 -0.30141099157E+02  0.97717974842E+01 -0.29658890520E+02  0.47787266466E+02  0.19999979123E+02 0.  0.
        -12    1    1    2    0    0  0.30141099157E+02 -0.97717974842E+01  0.29658890520E+02  0.43400733534E+02  0.00000000000E+00 0.  1.
         11    1    3    3    0    0 -0.14228462209E+02  0.62369365606E+01 -0.11732042241E+02  0.19467648289E+02  0.51100000000E-03 0. -1.
        -11    1    3    3    0    0 -0.47369753640E+01  0.25254511613E+01 -0.16073782840E+02  0.16946484421E+02  0.51100000000E-03 0.  1.
        -12    1    3    3    0    0 -0.11175661584E+02  0.10094097623E+01 -0.18530654383E+01  0.11373133756E+02  0.00000000000E+00 0.  1.
</event>
<event>
 7    1  0.2834226E-010  0.4778727E+02  0.7816164E-02  0.1312668E+00
        -11   -1    0    0    0    0  0.00000000000E+00  0.00000000000E+00  0.45593999997E+02  0.45594000000E+02  0.51100000000E-03 0. -1.
         11   -1    0    0    0    0 -0.00000000000E+00 -0.00000000000E+00 -0.45593999997E+02  0.45594000000E+02  0.51100000000E-03 0.  1.
    9900012    2    1    2    0    0 -0.42012656997E+02 -0.26564201752E+01 -0.10559508622E+02  0.47787272605E+02  0.20000007113E+02 0.  0.
        -12    1    1    2    0    0  0.42012656997E+02  0.26564201752E+01  0.10559508622E+02  0.43400727395E+02  0.00000000000E+00 0.  1.
         11    1    3    3    0    0 -0.58389299668E+01  0.47851839620E+01 -0.65182133394E+01  0.99738755810E+01  0.51100000000E-03 0. -1.
        -11    1    3    3    0    0 -0.24891396691E+01 -0.30004840625E+00 -0.21923068555E+01  0.33304736822E+01  0.51100000000E-03 0.  1.
         12    1    3    3    0    0 -0.33684587361E+02 -0.71415557310E+01 -0.18489884272E+01  0.34482923341E+02  0.00000000000E+00 0. -1.
</event>
<event>
 7    1  0.2834226E-010  0.4778727E+02  0.7816164E-02  0.1312668E+00
        -11   -1    0    0    0    0  0.00000000000E+00  0.00000000000E+00  0.45593999997E+02  0.45594000000E+02  0.51100000000E-03 0.  1.
         11   -1    0    0    0    0 -0.00000000000E+00 -0.00000000000E+00 -0.45593999997E+02  0.45594000000E+02  0.51100000000E-03 0. -1.
    9900012    2    1    2    0    0  0.37822850223E+02  0.16643960618E+02 -0.13267773453E+02  0.47787271476E+02  0.20000001968E+02 0.  0.
        -12    1    1    2    0    0 -0.37822850223E+02 -0.16643960618E+02  0.13267773453E+02  0.43400728524E+02  0.00000000000E+00 0.  1.
         11    1    3    3    0    0  0.52640510650E+01  0.63665331741E+01  0.11119110117E+01  0.83354258818E+01  0.51100000000E-03 0. -1.
        -11    1    3    3    0    0  0.13030104618E+02 -0.22355883684E+01 -0.27403580282E+01  0.13501520066E+02  0.51100000000E-03 0.  1.
        -12    1    3    3    0    0  0.19528694540E+02  0.12513015812E+02 -0.11639326436E+02  0.25950325529E+02  0.00000000000E+00 0.  1.
</event>
<event>
 7    1  0.2834226E-010  0.4778727E+02  0.7816164E-02  0.1312668E+00
        -11   -1    0    0    0    0  0.00000000000E+00  0.00000000000E+00  0.45593999997E+02  0.45594000000E+02  0.51100000000E-03 0. -1.
         11   -1    0    0    0    0 -0.00000000000E+00 -0.00000000000E+00 -0.45593999997E+02  0.45594000000E+02  0.51100000000E-03 0.  1.
    9900012    2    1    2    0    0  0.11663071770E+02 -0.27639569230E+02  0.31363193903E+02  0.47787274636E+02  0.20000016375E+02 0.  0.
        -12    1    1    2    0    0 -0.11663071770E+02  0.27639569230E+02 -0.31363193903E+02  0.43400725364E+02  0.00000000000E+00 0.  1.
         11    1    3    3    0    0  0.72136112910E+01 -0.86930031169E+00  0.52514358722E+01  0.89649009961E+01  0.51100000000E-03 0. -1.
        -11    1    3    3    0    0  0.13271404479E+01 -0.22459790929E+02  0.24495036192E+02  0.33259740057E+02  0.51100000000E-03 0.  1.
        -12    1    3    3    0    0  0.31223200310E+01 -0.43104779893E+01  0.16167218385E+01  0.55626335827E+01  0.00000000000E+00 0.  1.
</event>
<event>
 7    1  0.2834226E-010  0.4778727E+02  0.7816164E-02  0.1312668E+00
        -11   -1    0    0    0    0  0.00000000000E+00  0.00000000000E+00  0.45593999997E+02  0.45594000000E+02  0.51100000000E-03 0. -1.
         11   -1    0    0    0    0 -0.00000000000E+00 -0.00000000000E+00 -0.45593999997E+02  0.45594000000E+02  0.51100000000E-03 0.  1.
    9900012    2    1    2    0    0  0.99048227028E+01  0.40331226687E+02 -0.12605944621E+02  0.47787271911E+02  0.20000003951E+02 0.  0.
        -12    1    1    2    0    0 -0.99048227028E+01 -0.40331226687E+02  0.12605944621E+02  0.43400728089E+02  0.00000000000E+00 0.  1.
         11    1    3    3    0    0  0.12848898885E+02  0.24920099658E+02 -0.15113504105E+02  0.31851586712E+02  0.51100000000E-03 0. -1.
        -11    1    3    3    0    0 -0.25511717977E+01  0.12213159818E+02  0.15395139897E+01  0.12571390292E+02  0.51100000000E-03 0.  1.
         12    1    3    3    0    0 -0.39290438424E+00  0.31979672118E+01  0.96804549470E+00  0.33642949072E+01  0.00000000000E+00 0. -1.
</event>
<event>
 7    1  0.2834226E-010  0.4778727E+02  0.7816164E-02  0.1312668E+00
        -11   -1    0    0    0    0  0.00000000000E+00  0.00000000000E+00  0.45593999997E+02  0.45594000000E+02  0.51100000000E-03 0.  1.
         11   -1    0    0    0    0 -0.00000000000E+00 -0.00000000000E+00 -0.45593999997E+02  0.45594000000E+02  0.51100000000E-03 0. -1.
    9900012    2    1    2    0    0  0.10527655970E+02  0.38981481096E+02 -0.15913395589E+02  0.47787267658E+02  0.19999984560E+02 0.  0.
        -12    1    1    2    0    0 -0.10527655970E+02 -0.38981481096E+02  0.15913395589E+02  0.43400732342E+02  0.00000000000E+00 0.  1.
         11    1    3    3    0    0 -0.34298376684E+01  0.79650323780E+01  0.97333543154E+00  0.87265634323E+01  0.51100000000E-03 0. -1.
        -11    1    3    3    0    0  0.11982356101E+02  0.20114459600E+02 -0.15042348895E+02  0.27828772938E+02  0.51100000000E-03 0.  1.
         12    1    3    3    0    0  0.19751375377E+01  0.10901989118E+02 -0.18443821256E+01  0.11231931288E+02  0.00000000000E+00 0. -1.
</event>
<event>
 7    1  0.2834226E-010  0.4778727E+02  0.7816164E-02  0.1312668E+00
        -11   -1    0    0    0    0  0.00000000000E+00  0.00000000000E+00  0.45593999997E+02  0.45594000000E+02  0.51100000000E-03 0.  1.
         11   -1    0    0    0    0 -0.00000000000E+00 -0.00000000000E+00 -0.45593999997E+02  0.45594000000E+02  0.51100000000E-03 0. -1.
    9900012    2    1    2    0    0 -0.42766519042E+02 -0.16430040275E+01 -0.72075366860E+01  0.47787271915E+02  0.20000003971E+02 0.  0.
        -12    1    1    2    0    0  0.42766519042E+02  0.16430040275E+01  0.72075366860E+01  0.43400728085E+02  0.00000000000E+00 0.  1.
         11    1    3    3    0    0 -0.31310534405E+02  0.92933668940E+00  0.21658257941E+01  0.31399108794E+02  0.51100000000E-03 0. -1.
        -11    1    3    3    0    0 -0.34288063792E+01 -0.12930863962E+01 -0.70314210396E+01  0.79290395201E+01  0.51100000000E-03 0.  1.
        -12    1    3    3    0    0 -0.80271782575E+01 -0.12792543207E+01 -0.23419414404E+01  0.84591236015E+01  0.00000000000E+00 0.  1.
</event>
<event>
 7    1  0.2834226E-010  0.4778727E+02  0.7816164E-02  0.1312668E+00
        -11   -1    0    0    0    0  0.00000000000E+00  0.00000000000E+00  0.45593999997E+02  0.45594000000E+02  0.51100000000E-03 0.  1.
         11   -1    0    0    0    0 -0.00000000000E+00 -0.00000000000E+00 -0.45593999997E+02  0.45594000000E+02  0.51100000000E-03 0. -1.
    9900012    2    1    2    0    0  0.26263057358E+02  0.24844838177E+02 -0.24012680494E+02  0.47787274311E+02  0.20000014894E+02 0.  0.
        -12    1    1    2    0    0 -0.26263057358E+02 -0.24844838177E+02  0.24012680494E+02  0.43400725689E+02  0.00000000000E+00 0.  1.
         11    1    3    3    0    0  0.44374151298E+01  0.55544698768E+01 -0.15983906759E+02  0.17493657828E+02  0.51100000000E-03 0. -1.
        -11    1    3    3    0    0  0.16582078656E+02  0.13681906240E+02 -0.52628361576E+01  0.22132720927E+02  0.51100000000E-03 0.  1.
         12    1    3    3    0    0  0.52435635719E+01  0.56084620598E+01 -0.27659375767E+01  0.81608955567E+01  0.00000000000E+00 0. -1.
</event>
<event>
 7    1  0.2834226E-010  0.4778727E+02  0.7816164E-02  0.1312668E+00
        -11   -1    0    0    0    0  0.00000000000E+00  0.00000000000E+00  0.45593999997E+02  0.45594000000E+02  0.51100000000E-03 0. -1.
         11   -1    0    0    0    0 -0.00000000000E+00 -0.00000000000E+00 -0.45593999997E+02  0.45594000000E+02  0.51100000000E-03 0.  1.
    9900012    2    1    2    0    0 -0.42788952767E+02  0.63286802190E+01 -0.35604339048E+01  0.47787270032E+02  0.19999995383E+02 0.  0.
        -12    1    1    2    0    0  0.42788952767E+02 -0.63286802190E+01  0.35604339048E+01  0.43400729968E+02  0.00000000000E+00 0.  1.
         11    1    3    3    0    0 -0.23887849172E+02  0.80862633769E+01  0.64793411697E+01  0.26038411160E+02  0.51100000000E-03 0. -1.
        -11    1    3    3    0    0 -0.11611662839E+02 -0.15145446595E+01 -0.43252319232E+01  0.12483276447E+02  0.51100000000E-03 0.  1.
         12    1    3    3    0    0 -0.72894407556E+01 -0.24303849830E+00 -0.57145431513E+01  0.92655824248E+01  0.00000000000E+00 0. -1.
</event>
<event>
 7    1  0.2834226E-010  0.4778727E+02  0.7816164E-02  0.1312668E+00
        -11   -1    0    0    0    0  0.00000000000E+00  0.00000000000E+00  0.45593999997E+02  0.45594000000E+02  0.51100000000E-03 0.  1.
         11   -1    0    0    0    0 -0.00000000000E+00 -0.00000000000E+00 -0.45593999997E+02  0.45594000000E+02  0.51100000000E-03 0. -1.
    9900012    2    1    2    0    0 -0.36347491948E+02 -0.18455823398E+02 -0.14895154643E+02  0.47787271664E+02  0.20000002826E+02 0.  0.
        -12    1    1    2    0    0  0.36347491948E+02  0.18455823398E+02  0.14895154643E+02  0.43400728336E+02  0.00000000000E+00 0.  1.
         11    1    3    3    0    0 -0.43227696469E+01 -0.55495886347E+01 -0.91195622573E+01  0.11517408018E+02  0.51100000000E-03 0. -1.
        -11    1    3    3    0    0 -0.19000136219E+02 -0.25648862200E+01 -0.28295850178E+01  0.19380154006E+02  0.51100000000E-03 0.  1.
         12    1    3    3    0    0 -0.13024586082E+02 -0.10341348544E+02 -0.29460073684E+01  0.16889709640E+02  0.00000000000E+00 0. -1.
</event>
<event>
 7    1  0.2834226E-010  0.4778727E+02  0.7816164E-02  0.1312668E+00
        -11   -1    0    0    0    0  0.00000000000E+00  0.00000000000E+00  0.45593999997E+02  0.45594000000E+02  0.51100000000E-03 0.  1.
         11   -1    0    0    0    0 -0.00000000000E+00 -0.00000000000E+00 -0.45593999997E+02  0.45594000000E+02  0.51100000000E-03 0. -1.
    9900012    2    1    2    0    0  0.68810220139E+01 -0.18896996744E+02 -0.38460087473E+02  0.47787270994E+02  0.19999999769E+02 0.  0.
        -12    1    1    2    0    0 -0.68810220139E+01  0.18896996744E+02  0.38460087473E+02  0.43400729006E+02  0.00000000000E+00 0.  1.
         11    1    3    3    0    0 -0.10810654344E+01 -0.19468010134E+02 -0.23385528288E+02  0.30447578797E+02  0.51100000000E-03 0. -1.
        -11    1    3    3    0    0  0.57474675911E+01  0.16621119779E+01 -0.92845440210E+01  0.11045304789E+02  0.51100000000E-03 0.  1.
         12    1    3    3    0    0  0.22146198572E+01 -0.10910985871E+01 -0.57900151638E+01  0.62943874075E+01  0.00000000000E+00 0. -1.
</event>
<event>
 7    1  0.2834226E-010  0.4778727E+02  0.7816164E-02  0.1312668E+00
        -11   -1    0    0    0    0  0.00000000000E+00  0.00000000000E+00  0.45593999997E+02  0.45594000000E+02  0.51100000000E-03 0.  1.
         11   -1    0    0    0    0 -0.00000000000E+00 -0.00000000000E+00 -0.45593999997E+02  0.45594000000E+02  0.51100000000E-03 0. -1.
    9900012    2    1    2    0    0 -0.33021282446E+02 -0.18887555448E+02 -0.20892065447E+02  0.47787271390E+02  0.20000001577E+02 0.  0.
        -12    1    1    2    0    0  0.33021282446E+02  0.18887555448E+02  0.20892065447E+02  0.43400728610E+02  0.00000000000E+00 0.  1.
         11    1    3    3    0    0 -0.16750003435E+02 -0.89426070867E+01 -0.13865620175E+02  0.23511449545E+02  0.51100000000E-03 0. -1.
        -11    1    3    3    0    0 -0.10166043309E+02 -0.33263199849E-03  0.84327513685E+00  0.10200958283E+02  0.51100000000E-03 0.  1.
        -12    1    3    3    0    0 -0.61052357014E+01 -0.99446157295E+01 -0.78697204090E+01  0.14074863562E+02  0.00000000000E+00 0.  1.
</event>
<event>
 7    1  0.2834226E-010  0.4778727E+02  0.7816164E-02  0.1312668E+00
        -11   -1    0    0    0    0  0.00000000000E+00  0.00000000000E+00  0.45593999997E+02  0.45594000000E+02  0.51100000000E-03 0. -1.
         11   -1    0    0    0    0 -0.00000000000E+00 -0.00000000000E+00 -0.45593999997E+02  0.45594000000E+02  0.51100000000E-03 0.  1.
    9900012    2    1    2    0    0  0.21679087563E+01  0.28529354249E+02  0.32634324549E+02  0.47787273957E+02  0.20000013281E+02 0.  0.
        -12    1    1    2    0    0 -0.21679087563E+01 -0.28529354249E+02 -0.32634324549E+02  0.43400726043E+02  0.00000000000E+00 0.  1.
         11    1    3    3    0    0  0.57064331937E+01  0.23195846384E+02  0.26900164205E+02  0.35975401371E+02  0.51100000000E-03 0. -1.
        -11    1    3    3    0    0 -0.35781906818E+01  0.80129175453E+00  0.62540788546E+01  0.72497599692E+01  0.51100000000E-03 0.  1.
         12    1    3    3    0    0  0.39666244384E-01  0.45322161100E+01 -0.51991850961E+00  0.45621126175E+01  0.00000000000E+00 0. -1.
</event>
<event>
 7    1  0.2834226E-010  0.4778727E+02  0.7816164E-02  0.1312668E+00
        -11   -1    0    0    0    0  0.00000000000E+00  0.00000000000E+00  0.45593999997E+02  0.45594000000E+02  0.51100000000E-03 0. -1.
         11   -1    0    0    0    0 -0.00000000000E+00 -0.00000000000E+00 -0.45593999997E+02  0.45594000000E+02  0.51100000000E-03 0.  1.
    9900012    2    1    2    0    0  0.79769521895E+01  0.38864481531E+02  0.17593852455E+02  0.47787270338E+02  0.19999996781E+02 0.  0.
        -12    1    1    2    0    0 -0.79769521895E+01 -0.38864481531E+02 -0.17593852455E+02  0.43400729662E+02  0.00000000000E+00 0.  1.
         11    1    3    3    0    0  0.14850358990E+01  0.21880748978E+02  0.12712124184E+02  0.25348976488E+02  0.51100000000E-03 0. -1.
        -11    1    3    3    0    0  0.49107037610E+01  0.31231168062E+00  0.25135368755E+01  0.55254337296E+01  0.51100000000E-03 0.  1.
        -12    1    3    3    0    0  0.15812125295E+01  0.16671420873E+02  0.23681913961E+01  0.16912860121E+02  0.00000000000E+00 0.  1.
</event>
<event>
 7    1  0.2834226E-010  0.4778728E+02  0.7816164E-02  0.1312668E+00
        -11   -1    0    0    0    0  0.00000000000E+00  0.00000000000E+00  0.45593999997E+02  0.45594000000E+02  0.51100000000E-03 0.  1.
         11   -1    0    0    0    0 -0.00000000000E+00 -0.00000000000E+00 -0.45593999997E+02  0.45594000000E+02  0.51100000000E-03 0. -1.
    9900012    2    1    2    0    0  0.26297772197E+02 -0.65796960444E+01 -0.33893323720E+02  0.47787278631E+02  0.20000034591E+02 0.  0.
        -12    1    1    2    0    0 -0.26297772197E+02  0.65796960444E+01  0.33893323720E+02  0.43400721369E+02  0.00000000000E+00 0.  1.
         11    1    3    3    0    0  0.11734478752E+02 -0.68722454923E+01 -0.15194002689E+02  0.20390769178E+02  0.51100000000E-03 0. -1.
        -11    1    3    3    0    0  0.45378015973E+00  0.47905424385E+01 -0.24102318027E+01  0.53818612852E+01  0.51100000000E-03 0.  1.
        -12    1    3    3    0    0  0.14109513286E+02 -0.44979929907E+01 -0.16289089228E+02  0.22014648168E+02  0.00000000000E+00 0.  1.
</event>
<event>
 7    1  0.2834226E-010  0.4778727E+02  0.7816164E-02  0.1312668E+00
        -11   -1    0    0    0    0  0.00000000000E+00  0.00000000000E+00  0.45593999997E+02  0.45594000000E+02  0.51100000000E-03 0.  1.
         11   -1    0    0    0    0 -0.00000000000E+00 -0.00000000000E+00 -0.45593999997E+02  0.45594000000E+02  0.51100000000E-03 0. -1.
    9900012    2    1    2    0    0  0.25677569889E+02  0.26221753060E+02 -0.23166896600E+02  0.47787273889E+02  0.20000012968E+02 0.  0.
        -12    1    1    2    0    0 -0.25677569889E+02 -0.26221753060E+02  0.23166896600E+02  0.43400726111E+02  0.00000000000E+00 0.  1.
         11    1    3    3    0    0  0.21861720019E+02  0.22189991219E+02 -0.17146700893E+02  0.35557557063E+02  0.51100000000E-03 0. -1.
        -11    1    3    3    0    0  0.42989870933E+01  0.94214195499E+00 -0.75571601018E+01  0.87452610342E+01  0.51100000000E-03 0.  1.
         12    1    3    3    0    0 -0.48313722352E+00  0.30896198853E+01  0.15369643950E+01  0.34844557917E+01  0.00000000000E+00 0. -1.
</event>
<event>
 7    1  0.2834226E-010  0.4778725E+02  0.7816164E-02  0.1312668E+00
        -11   -1    0    0    0    0  0.00000000000E+00  0.00000000000E+00  0.45593999997E+02  0.45594000000E+02  0.51100000000E-03 0. -1.
         11   -1    0    0    0    0 -0.00000000000E+00 -0.00000000000E+00 -0.45593999997E+02  0.45594000000E+02  0.51100000000E-03 0.  1.
    9900012    2    1    2    0    0 -0.18026577620E+02  0.39477443250E+02 -0.44589078291E+00  0.47787252946E+02  0.19999917483E+02 0.  0.
        -12    1    1    2    0    0  0.18026577620E+02 -0.39477443250E+02  0.44589078291E+00  0.43400747054E+02  0.00000000000E+00 0.  1.
         11    1    3    3    0    0 -0.15921402976E+02  0.19233561434E+02  0.52585117151E+00  0.24973935971E+02  0.51100000000E-03 0. -1.
        -11    1    3    3    0    0  0.68198349168E+00  0.54381773083E+01 -0.47814710852E+01  0.72733307308E+01  0.51100000000E-03 0.  1.
        -12    1    3    3    0    0 -0.27871581354E+01  0.14805704507E+02  0.38097291308E+01  0.15539986244E+02  0.00000000000E+00 0.  1.
</event>
<event>
 7    1  0.2834226E-010  0.4778727E+02  0.7816164E-02  0.1312668E+00
        -11   -1    0    0    0    0  0.00000000000E+00  0.00000000000E+00  0.45593999997E+02  0.45594000000E+02  0.51100000000E-03 0.  1.
         11   -1    0    0    0    0 -0.00000000000E+00 -0.00000000000E+00 -0.45593999997E+02  0.45594000000E+02  0.51100000000E-03 0. -1.
    9900012    2    1    2    0    0 -0.41302467984E+02  0.12069193686E+02 -0.56625201452E+01  0.47787269220E+02  0.19999991682E+02 0.  0.
        -12    1    1    2    0    0  0.41302467984E+02 -0.12069193686E+02  0.56625201452E+01  0.43400730780E+02  0.00000000000E+00 0.  1.
         11    1    3    3    0    0 -0.16021939853E+02  0.66226050570E+01 -0.37629560070E+01  0.17740385920E+02  0.51100000000E-03 0. -1.
        -11    1    3    3    0    0 -0.22545627528E+02 -0.13450971202E+01 -0.23723989699E+01  0.22709973228E+02  0.51100000000E-03 0.  1.
        -12    1    3    3    0    0 -0.27349006032E+01  0.67916857496E+01  0.47283483166E+00  0.73369100723E+01  0.00000000000E+00 0.  1.
</event>
<event>
 7    1  0.2834226E-010  0.4778729E+02  0.7816164E-02  0.1312668E+00
        -11   -1    0    0    0    0  0.00000000000E+00  0.00000000000E+00  0.45593999997E+02  0.45594000000E+02  0.51100000000E-03 0. -1.
         11   -1    0    0    0    0 -0.00000000000E+00 -0.00000000000E+00 -0.45593999997E+02  0.45594000000E+02  0.51100000000E-03 0.  1.
    9900012    2    1    2    0    0  0.33116385119E+02  0.27821460284E+02 -0.35907240058E+01  0.47787286704E+02  0.20000071397E+02 0.  0.
        -12    1    1    2    0    0 -0.33116385119E+02 -0.27821460284E+02  0.35907240058E+01  0.43400713296E+02  0.00000000000E+00 0.  1.
         11    1    3    3    0    0  0.18912317937E+02  0.25609348776E+02  0.10633463387E+01  0.31853496200E+02  0.51100000000E-03 0. -1.
        -11    1    3    3    0    0  0.37050448582E+01 -0.15956908633E+01 -0.17284122497E+01  0.43887351137E+01  0.51100000000E-03 0.  1.
         12    1    3    3    0    0  0.10499022324E+02  0.38078023719E+01 -0.29256580948E+01  0.11545055390E+02  0.00000000000E+00 0. -1.
</event>
<event>
 7    1  0.2834226E-010  0.4778727E+02  0.7816164E-02  0.1312668E+00
        -11   -1    0    0    0    0  0.00000000000E+00  0.00000000000E+00  0.45593999997E+02  0.45594000000E+02  0.51100000000E-03 0. -1.
         11   -1    0    0    0    0 -0.00000000000E+00 -0.00000000000E+00 -0.45593999997E+02  0.45594000000E+02  0.51100000000E-03 0.  1.
    9900012    2    1    2    0    0  0.41582957257E+02  0.13282109988E+01  0.12357860435E+02  0.47787271973E+02  0.20000004235E+02 0.  0.
        -12    1    1    2    0    0 -0.41582957257E+02 -0.13282109988E+01 -0.12357860435E+02  0.43400728027E+02  0.00000000000E+00 0.  1.
         11    1    3    3    0    0  0.28249454752E+02  0.60322913918E+01  0.14071152413E+02  0.32131255247E+02  0.51100000000E-03 0. -1.
        -11    1    3    3    0    0  0.45071611349E+01 -0.38625810463E+01  0.16696750151E+01  0.61661859161E+01  0.51100000000E-03 0.  1.
         12    1    3    3    0    0  0.88263413701E+01 -0.84149934660E+00 -0.33829669933E+01  0.94898308104E+01  0.00000000000E+00 0. -1.
</event>
<event>
 7    1  0.2834226E-010  0.4778728E+02  0.7816164E-02  0.1312668E+00
        -11   -1    0    0    0    0  0.00000000000E+00  0.00000000000E+00  0.45593999997E+02  0.45594000000E+02  0.51100000000E-03 0. -1.
         11   -1    0    0    0    0 -0.00000000000E+00 -0.00000000000E+00 -0.45593999997E+02  0.45594000000E+02  0.51100000000E-03 0.  1.
    9900012    2    1    2    0    0 -0.42561323548E+02 -0.76100947327E+01  0.37740064415E+01  0.47787275022E+02  0.20000018136E+02 0.  0.
        -12    1    1    2    0    0  0.42561323548E+02  0.76100947327E+01 -0.37740064415E+01  0.43400724978E+02  0.00000000000E+00 0.  1.
         11    1    3    3    0    0 -0.83947401428E+01  0.42968137551E+01  0.93259932629E+00  0.94764978909E+01  0.51100000000E-03 0. -1.
        -11    1    3    3    0    0 -0.25360837073E+02 -0.11113092905E+02  0.69703428714E+01  0.28552733161E+02  0.51100000000E-03 0.  1.
        -12    1    3    3    0    0 -0.88057463322E+01 -0.79381558250E+00 -0.41289357562E+01  0.97580439703E+01  0.00000000000E+00 0.  1.
</event>
<event>
 7    1  0.2834226E-010  0.4778728E+02  0.7816164E-02  0.1312668E+00
        -11   -1    0    0    0    0  0.00000000000E+00  0.00000000000E+00  0.45593999997E+02  0.45594000000E+02  0.51100000000E-03 0.  1.
         11   -1    0    0    0    0 -0.00000000000E+00 -0.00000000000E+00 -0.45593999997E+02  0.45594000000E+02  0.51100000000E-03 0. -1.
    9900012    2    1    2    0    0 -0.14896084788E+02  0.21254634353E+02 -0.34784624150E+02  0.47787275343E+02  0.20000019601E+02 0.  0.
        -12    1    1    2    0    0  0.14896084788E+02 -0.21254634353E+02  0.34784624150E+02  0.43400724657E+02  0.00000000000E+00 0.  1.
         11    1    3    3    0    0  0.16923824840E+01  0.48934275023E+01 -0.81180529403E+01  0.96287369366E+01  0.51100000000E-03 0. -1.
        -11    1    3    3    0    0 -0.17115106553E+02  0.11397941769E+02 -0.25960397639E+02  0.33117702135E+02  0.51100000000E-03 0.  1.
        -12    1    3    3    0    0  0.52663928107E+00  0.49632650819E+01 -0.70617357010E+00  0.50408362715E+01  0.00000000000E+00 0.  1.
</event>
<event>
 7    1  0.2834226E-010  0.4778727E+02  0.7816164E-02  0.1312668E+00
        -11   -1    0    0    0    0  0.00000000000E+00  0.00000000000E+00  0.45593999997E+02  0.45594000000E+02  0.51100000000E-03 0.  1.
         11   -1    0    0    0    0 -0.00000000000E+00 -0.00000000000E+00 -0.45593999997E+02  0.45594000000E+02  0.51100000000E-03 0. -1.
    9900012    2    1    2    0    0  0.22202695141E+02  0.19859616229E+02 -0.31563579399E+02  0.47787267601E+02  0.19999984300E+02 0.  0.
        -12    1    1    2    0    0 -0.22202695141E+02 -0.19859616229E+02  0.31563579399E+02  0.43400732399E+02  0.00000000000E+00 0.  1.
         11    1    3    3    0    0  0.17048335494E+01  0.86011530375E+01 -0.83409745197E+01  0.12101989390E+02  0.51100000000E-03 0. -1.
        -11    1    3    3    0    0  0.15382742200E+02  0.13324940656E+01 -0.10079506544E+02  0.18439109264E+02  0.51100000000E-03 0.  1.
        -12    1    3    3    0    0  0.51151193916E+01  0.99259691256E+01 -0.13143098336E+02  0.17246168947E+02  0.00000000000E+00 0.  1.
</event>
<event>
 7    1  0.2834226E-010  0.4778728E+02  0.7816164E-02  0.1312668E+00
        -11   -1    0    0    0    0  0.00000000000E+00  0.00000000000E+00  0.45593999997E+02  0.45594000000E+02  0.51100000000E-03 0.  1.
         11   -1    0    0    0    0 -0.00000000000E+00 -0.00000000000E+00 -0.45593999997E+02  0.45594000000E+02  0.51100000000E-03 0. -1.
    9900012    2    1    2    0    0 -0.62205559141E+01  0.17557589538E+01 -0.42916720166E+02  0.47787275638E+02  0.20000020943E+02 0.  0.
        -12    1    1    2    0    0  0.62205559141E+01 -0.17557589538E+01  0.42916720166E+02  0.43400724362E+02  0.00000000000E+00 0.  1.
         11    1    3    3    0    0 -0.47258327617E+01  0.18991169030E+01 -0.26276525676E+01  0.57310294520E+01  0.51100000000E-03 0.  1.
        -11    1    3    3    0    0 -0.43306355533E+01 -0.45197219743E+01 -0.28268266435E+02  0.28953016743E+02  0.51100000000E-03 0. -1.
        -12    1    3    3    0    0  0.28359124008E+01  0.43763640251E+01 -0.12020801163E+02  0.13103229443E+02  0.00000000000E+00 0.  1.
</event>
<event>
 7    1  0.2834226E-010  0.4778727E+02  0.7816164E-02  0.1312668E+00
        -11   -1    0    0    0    0  0.00000000000E+00  0.00000000000E+00  0.45593999997E+02  0.45594000000E+02  0.51100000000E-03 0. -1.
         11   -1    0    0    0    0 -0.00000000000E+00 -0.00000000000E+00 -0.45593999997E+02  0.45594000000E+02  0.51100000000E-03 0.  1.
    9900012    2    1    2    0    0  0.42178073137E+02 -0.89549720032E+00  0.10189774163E+02  0.47787271132E+02  0.20000000401E+02 0.  0.
        -12    1    1    2    0    0 -0.42178073137E+02  0.89549720032E+00 -0.10189774163E+02  0.43400728868E+02  0.00000000000E+00 0.  1.
         11    1    3    3    0    0  0.19779790981E+02 -0.29418989518E+01  0.83332017473E+01  0.21664190553E+02  0.51100000000E-03 0. -1.
        -11    1    3    3    0    0  0.12167118749E+02 -0.22866387754E+01 -0.46763640001E+01  0.13233891192E+02  0.51100000000E-03 0.  1.
        -12    1    3    3    0    0  0.10231163406E+02  0.43330405269E+01  0.65329364160E+01  0.12889189387E+02  0.00000000000E+00 0.  1.
</event>
<event>
 7    1  0.2834226E-010  0.4778727E+02  0.7816164E-02  0.1312668E+00
        -11   -1    0    0    0    0  0.00000000000E+00  0.00000000000E+00  0.45593999997E+02  0.45594000000E+02  0.51100000000E-03 0. -1.
         11   -1    0    0    0    0 -0.00000000000E+00 -0.00000000000E+00 -0.45593999997E+02  0.45594000000E+02  0.51100000000E-03 0.  1.
    9900012    2    1    2    0    0  0.17155595422E+02 -0.39510454371E+02  0.53134899712E+01  0.47787266890E+02  0.19999981057E+02 0.  0.
        -12    1    1    2    0    0 -0.17155595422E+02  0.39510454371E+02 -0.53134899712E+01  0.43400733110E+02  0.00000000000E+00 0.  1.
         11    1    3    3    0    0  0.18326550044E+01 -0.23007254803E+02  0.45005813188E+01  0.23514838515E+02  0.51100000000E-03 0. -1.
        -11    1    3    3    0    0  0.60419451380E+01 -0.90871603690E+00  0.83582554172E-01  0.61104707013E+01  0.51100000000E-03 0.  1.
         12    1    3    3    0    0  0.92809952792E+01 -0.15594483531E+02  0.72932609818E+00  0.18161957673E+02  0.00000000000E+00 0. -1.
</event>
<event>
 7    1  0.2834226E-010  0.4778727E+02  0.7816164E-02  0.1312668E+00
        -11   -1    0    0    0    0  0.00000000000E+00  0.00000000000E+00  0.45593999997E+02  0.45594000000E+02  0.51100000000E-03 0.  1.
         11   -1    0    0    0    0 -0.00000000000E+00 -0.00000000000E+00 -0.45593999997E+02  0.45594000000E+02  0.51100000000E-03 0. -1.
    9900012    2    1    2    0    0  0.83744541034E+01 -0.86527050090E+01 -0.41696791439E+02  0.47787271874E+02  0.20000003784E+02 0.  0.
        -12    1    1    2    0    0 -0.83744541034E+01  0.86527050090E+01  0.41696791439E+02  0.43400728126E+02  0.00000000000E+00 0.  1.
         11    1    3    3    0    0  0.62597097271E+01 -0.90055442448E+01 -0.17339450319E+02  0.20516830424E+02  0.51100000000E-03 0. -1.
        -11    1    3    3    0    0  0.22607180652E+01  0.60973188824E+01 -0.12270420292E+02  0.13887093221E+02  0.51100000000E-03 0.  1.
         12    1    3    3    0    0 -0.14597368891E+00 -0.57444796467E+01 -0.12086920828E+02  0.13383348230E+02  0.00000000000E+00 0. -1.
</event>
<event>
 7    1  0.2834226E-010  0.4778727E+02  0.7816164E-02  0.1312668E+00
        -11   -1    0    0    0    0  0.00000000000E+00  0.00000000000E+00  0.45593999997E+02  0.45594000000E+02  0.51100000000E-03 0.  1.
         11   -1    0    0    0    0 -0.00000000000E+00 -0.00000000000E+00 -0.45593999997E+02  0.45594000000E+02  0.51100000000E-03 0. -1.
    9900012    2    1    2    0    0 -0.33660714189E+02  0.21628215310E+02 -0.16816662042E+02  0.47787268446E+02  0.19999988152E+02 0.  0.
        -12    1    1    2    0    0  0.33660714189E+02 -0.21628215310E+02  0.16816662042E+02  0.43400731554E+02  0.00000000000E+00 0.  1.
         11    1    3    3    0    0 -0.16729309694E+02  0.15116014706E+02 -0.48130307982E+01  0.23054912040E+02  0.51100000000E-03 0. -1.
        -11    1    3    3    0    0 -0.10212467561E+02 -0.14766825667E+01 -0.25038807708E+01  0.10618121504E+02  0.51100000000E-03 0.  1.
        -12    1    3    3    0    0 -0.67189369330E+01  0.79888831708E+01 -0.94997504732E+01  0.14114234902E+02  0.00000000000E+00 0.  1.
</event>
<event>
 7    1  0.2834226E-010  0.4778727E+02  0.7816164E-02  0.1312668E+00
        -11   -1    0    0    0    0  0.00000000000E+00  0.00000000000E+00  0.45593999997E+02  0.45594000000E+02  0.51100000000E-03 0.  1.
         11   -1    0    0    0    0 -0.00000000000E+00 -0.00000000000E+00 -0.45593999997E+02  0.45594000000E+02  0.51100000000E-03 0. -1.
    9900012    2    1    2    0    0 -0.37638955970E+01 -0.33136815362E+01 -0.43110043142E+02  0.47787271721E+02  0.20000003085E+02 0.  0.
        -12    1    1    2    0    0  0.37638955970E+01  0.33136815362E+01  0.43110043142E+02  0.43400728279E+02  0.00000000000E+00 0.  1.
         11    1    3    3    0    0 -0.30155525207E+01 -0.14303306876E+01 -0.11620656143E+02  0.12090452942E+02  0.51100000000E-03 0. -1.
        -11    1    3    3    0    0  0.41402699450E+01 -0.59767364614E+00 -0.30188913841E+02  0.30477361568E+02  0.51100000000E-03 0.  1.
        -12    1    3    3    0    0 -0.48886130213E+01 -0.12856772025E+01 -0.13004731582E+01  0.52194572109E+01  0.00000000000E+00 0.  1.
</event>
<event>
 7    1  0.2834226E-010  0.4778727E+02  0.7816164E-02  0.1312668E+00
        -11   -1    0    0    0    0  0.00000000000E+00  0.00000000000E+00  0.45593999997E+02  0.45594000000E+02  0.51100000000E-03 0.  1.
         11   -1    0    0    0    0 -0.00000000000E+00 -0.00000000000E+00 -0.45593999997E+02  0.45594000000E+02  0.51100000000E-03 0. -1.
    9900012    2    1    2    0    0  0.19241417357E+02 -0.46912726265E+01 -0.38618430389E+02  0.47787270208E+02  0.19999996184E+02 0.  0.
        -12    1    1    2    0    0 -0.19241417357E+02  0.46912726265E+01  0.38618430389E+02  0.43400729792E+02  0.00000000000E+00 0.  1.
         11    1    3    3    0    0  0.19916457834E+02 -0.71143357276E+01 -0.27019050419E+02  0.34311924331E+02  0.51100000000E-03 0. -1.
        -11    1    3    3    0    0  0.10698322487E+01  0.41580332475E+01 -0.61972527077E+01  0.75392123536E+01  0.51100000000E-03 0.  1.
        -12    1    3    3    0    0 -0.17448727256E+01 -0.17349701465E+01 -0.54021272630E+01  0.59361335231E+01  0.00000000000E+00 0.  1.
</event>
<event>
 7    1  0.2834226E-010  0.4778727E+02  0.7816164E-02  0.1312668E+00
        -11   -1    0    0    0    0  0.00000000000E+00  0.00000000000E+00  0.45593999997E+02  0.45594000000E+02  0.51100000000E-03 0.  1.
         11   -1    0    0    0    0 -0.00000000000E+00 -0.00000000000E+00 -0.45593999997E+02  0.45594000000E+02  0.51100000000E-03 0. -1.
    9900012    2    1    2    0    0  0.37480456733E+02  0.36887103016E+01 -0.21569243942E+02  0.47787268384E+02  0.19999987869E+02 0.  0.
        -12    1    1    2    0    0 -0.37480456733E+02 -0.36887103016E+01  0.21569243942E+02  0.43400731616E+02  0.00000000000E+00 0.  1.
         11    1    3    3    0    0  0.86418453952E+01  0.58749640414E+01 -0.11558644910E+01  0.10513454109E+02  0.51100000000E-03 0. -1.
        -11    1    3    3    0    0  0.49268097550E+01  0.29880796235E+01 -0.60283626434E+00  0.57935728200E+01  0.51100000000E-03 0.  1.
         12    1    3    3    0    0  0.23911801583E+02 -0.51743333633E+01 -0.19810543187E+02  0.31480241455E+02  0.00000000000E+00 0. -1.
</event>
<event>
 7    1  0.2834226E-010  0.4778726E+02  0.7816164E-02  0.1312668E+00
        -11   -1    0    0    0    0  0.00000000000E+00  0.00000000000E+00  0.45593999997E+02  0.45594000000E+02  0.51100000000E-03 0. -1.
         11   -1    0    0    0    0 -0.00000000000E+00 -0.00000000000E+00 -0.45593999997E+02  0.45594000000E+02  0.51100000000E-03 0.  1.
    9900012    2    1    2    0    0  0.14324221017E+02  0.40680767719E+02 -0.48492954852E+01  0.47787264561E+02  0.19999970439E+02 0.  0.
        -12    1    1    2    0    0 -0.14324221017E+02 -0.40680767719E+02  0.48492954852E+01  0.43400735439E+02  0.00000000000E+00 0.  1.
         11    1    3    3    0    0  0.58514306818E+01  0.14522054261E+02 -0.36418017922E+01  0.16074576870E+02  0.51100000000E-03 0. -1.
        -11    1    3    3    0    0 -0.64769524865E+00  0.10990845281E+01  0.42973495907E+01  0.44827123152E+01  0.51100000000E-03 0.  1.
        -12    1    3    3    0    0  0.91204855841E+01  0.25059628930E+02 -0.55048432837E+01  0.27229975376E+02  0.00000000000E+00 0.  1.
</event>
<event>
 7    1  0.2834226E-010  0.4778727E+02  0.7816164E-02  0.1312668E+00
        -11   -1    0    0    0    0  0.00000000000E+00  0.00000000000E+00  0.45593999997E+02  0.45594000000E+02  0.51100000000E-03 0. -1.
         11   -1    0    0    0    0 -0.00000000000E+00 -0.00000000000E+00 -0.45593999997E+02  0.45594000000E+02  0.51100000000E-03 0.  1.
    9900012    2    1    2    0    0 -0.66402536562E+01 -0.38172866920E+02  0.19554105986E+02  0.47787265002E+02  0.19999972449E+02 0.  0.
        -12    1    1    2    0    0  0.66402536562E+01  0.38172866920E+02 -0.19554105986E+02  0.43400734998E+02  0.00000000000E+00 0.  1.
         11    1    3    3    0    0  0.40696297851E+01 -0.17265911367E+02  0.80581825173E+01  0.19483528624E+02  0.51100000000E-03 0. -1.
        -11    1    3    3    0    0 -0.91088627555E+01 -0.16423383996E+02  0.36580204622E+01  0.19133218144E+02  0.51100000000E-03 0.  1.
        -12    1    3    3    0    0 -0.16010206857E+01 -0.44835715575E+01  0.78379030062E+01  0.91705182341E+01  0.00000000000E+00 0.  1.
</event>
<event>
 7    1  0.2834226E-010  0.4778725E+02  0.7816164E-02  0.1312668E+00
        -11   -1    0    0    0    0  0.00000000000E+00  0.00000000000E+00  0.45593999997E+02  0.45594000000E+02  0.51100000000E-03 0.  1.
         11   -1    0    0    0    0 -0.00000000000E+00 -0.00000000000E+00 -0.45593999997E+02  0.45594000000E+02  0.51100000000E-03 0. -1.
    9900012    2    1    2    0    0 -0.29707572893E+02 -0.28158840883E+02 -0.14427908476E+02  0.47787254038E+02  0.19999922463E+02 0.  0.
        -12    1    1    2    0    0  0.29707572893E+02  0.28158840883E+02  0.14427908476E+02  0.43400745962E+02  0.00000000000E+00 0.  1.
         11    1    3    3    0    0 -0.12811061047E+01  0.27973864461E+01 -0.28481169915E+01  0.41926572050E+01  0.51100000000E-03 0.  1.
        -11    1    3    3    0    0 -0.23654406683E+02 -0.25653736868E+02 -0.96511755091E+01  0.36204838900E+02  0.51100000000E-03 0. -1.
        -12    1    3    3    0    0 -0.47720601047E+01 -0.53024904608E+01 -0.19286159754E+01  0.73897579331E+01  0.00000000000E+00 0.  1.
</event>
<event>
 7    1  0.2834226E-010  0.4778727E+02  0.7816164E-02  0.1312668E+00
        -11   -1    0    0    0    0  0.00000000000E+00  0.00000000000E+00  0.45593999997E+02  0.45594000000E+02  0.51100000000E-03 0.  1.
         11   -1    0    0    0    0 -0.00000000000E+00 -0.00000000000E+00 -0.45593999997E+02  0.45594000000E+02  0.51100000000E-03 0. -1.
    9900012    2    1    2    0    0 -0.20070942426E+02  0.61186036418E+01 -0.37991354153E+02  0.47787273845E+02  0.20000012771E+02 0.  0.
        -12    1    1    2    0    0  0.20070942426E+02 -0.61186036418E+01  0.37991354153E+02  0.43400726155E+02  0.00000000000E+00 0.  1.
         11    1    3    3    0    0 -0.20556856206E+02  0.95438779819E+01 -0.33089056995E+02  0.40106802878E+02  0.51100000000E-03 0. -1.
        -11    1    3    3    0    0  0.28402683184E+00  0.45193677103E+00 -0.35185179183E+01  0.35587760099E+01  0.51100000000E-03 0.  1.
         12    1    3    3    0    0  0.20188694812E+00 -0.38772111112E+01 -0.13837792397E+01  0.41216949577E+01  0.00000000000E+00 0. -1.
</event>
<event>
 7    1  0.2834226E-010  0.4778727E+02  0.7816164E-02  0.1312668E+00
        -11   -1    0    0    0    0  0.00000000000E+00  0.00000000000E+00  0.45593999997E+02  0.45594000000E+02  0.51100000000E-03 0. -1.
         11   -1    0    0    0    0 -0.00000000000E+00 -0.00000000000E+00 -0.45593999997E+02  0.45594000000E+02  0.51100000000E-03 0.  1.
    9900012    2    1    2    0    0 -0.31024776409E+02 -0.15108550496E+02  0.26321442950E+02  0.47787269496E+02  0.19999992941E+02 0.  0.
        -12    1    1    2    0    0  0.31024776409E+02  0.15108550496E+02 -0.26321442950E+02  0.43400730504E+02  0.00000000000E+00 0.  1.
         11    1    3    3    0    0 -0.22682307141E+02 -0.98750180811E+01  0.11495526748E+02  0.27279116093E+02  0.51100000000E-03 0. -1.
        -11    1    3    3    0    0 -0.34286405746E+01  0.28414680493E+01  0.66893808929E+01  0.80360023555E+01  0.51100000000E-03 0.  1.
        -12    1    3    3    0    0 -0.49138286931E+01 -0.80750004639E+01  0.81365353092E+01  0.12472151048E+02  0.00000000000E+00 0.  1.
</event>
<event>
 7    1  0.2834226E-010  0.4778727E+02  0.7816164E-02  0.1312668E+00
        -11   -1    0    0    0    0  0.00000000000E+00  0.00000000000E+00  0.45593999997E+02  0.45594000000E+02  0.51100000000E-03 0. -1.
         11   -1    0    0    0    0 -0.00000000000E+00 -0.00000000000E+00 -0.45593999997E+02  0.45594000000E+02  0.51100000000E-03 0.  1.
    9900012    2    1    2    0    0 -0.24727498023E+02  0.20969846899E+02  0.28852027712E+02  0.47787272580E+02  0.20000007003E+02 0.  0.
        -12    1    1    2    0    0  0.24727498023E+02 -0.20969846899E+02 -0.28852027712E+02  0.43400727420E+02  0.00000000000E+00 0.  1.
         11    1    3    3    0    0 -0.15198348093E+02  0.23266672462E+02  0.21041695166E+02  0.34858008663E+02  0.51100000000E-03 0. -1.
        -11    1    3    3    0    0 -0.74551391661E+01 -0.11804286639E+01  0.73378655856E+01  0.10526955088E+02  0.51100000000E-03 0.  1.
         12    1    3    3    0    0 -0.20740107635E+01 -0.11163968988E+01  0.47246696072E+00  0.24023088294E+01  0.00000000000E+00 0. -1.
</event>
<event>
 7    1  0.2834226E-010  0.4778727E+02  0.7816164E-02  0.1312668E+00
        -11   -1    0    0    0    0  0.00000000000E+00  0.00000000000E+00  0.45593999997E+02  0.45594000000E+02  0.51100000000E-03 0.  1.
         11   -1    0    0    0    0 -0.00000000000E+00 -0.00000000000E+00 -0.45593999997E+02  0.45594000000E+02  0.51100000000E-03 0. -1.
    9900012    2    1    2    0    0  0.40772192696E+01  0.19809689160E+02 -0.38400204270E+02  0.47787272016E+02  0.20000004430E+02 0.  0.
        -12    1    1    2    0    0 -0.40772192696E+01 -0.19809689160E+02  0.38400204270E+02  0.43400727984E+02  0.00000000000E+00 0.  1.
         11    1    3    3    0    0  0.32013590044E+01 -0.16465126144E+01 -0.10908788619E+02  0.11487444131E+02  0.51100000000E-03 0. -1.
        -11    1    3    3    0    0  0.22647107585E+00  0.22484772572E+02 -0.25971882603E+02  0.34353383720E+02  0.51100000000E-03 0.  1.
        -12    1    3    3    0    0  0.64938918935E+00 -0.10285707982E+01 -0.15195330475E+01  0.19464441653E+01  0.00000000000E+00 0.  1.
</event>
<event>
 7    1  0.2834226E-010  0.4778727E+02  0.7816164E-02  0.1312668E+00
        -11   -1    0    0    0    0  0.00000000000E+00  0.00000000000E+00  0.45593999997E+02  0.45594000000E+02  0.51100000000E-03 0. -1.
         11   -1    0    0    0    0 -0.00000000000E+00 -0.00000000000E+00 -0.45593999997E+02  0.45594000000E+02  0.51100000000E-03 0.  1.
    9900012    2    1    2    0    0 -0.18116759975E+01 -0.43050125287E+02  0.51988268309E+01  0.47787271232E+02  0.20000000856E+02 0.  0.
        -12    1    1    2    0    0  0.18116759975E+01  0.43050125287E+02 -0.51988268309E+01  0.43400728768E+02  0.00000000000E+00 0.  1.
         11    1    3    3    0    0 -0.28680074529E+01 -0.46794382314E+01 -0.51165661339E+01  0.75034564153E+01  0.51100000000E-03 0.  1.
        -11    1    3    3    0    0 -0.91740917592E+00 -0.29515672209E+02  0.10098474475E+02  0.31208904699E+02  0.51100000000E-03 0. -1.
         12    1    3    3    0    0  0.19737406313E+01 -0.88550148466E+01  0.21691849008E+00  0.90749101177E+01  0.00000000000E+00 0. -1.
</event>
<event>
 7    1  0.2834226E-010  0.4778727E+02  0.7816164E-02  0.1312668E+00
        -11   -1    0    0    0    0  0.00000000000E+00  0.00000000000E+00  0.45593999997E+02  0.45594000000E+02  0.51100000000E-03 0.  1.
         11   -1    0    0    0    0 -0.00000000000E+00 -0.00000000000E+00 -0.45593999997E+02  0.45594000000E+02  0.51100000000E-03 0. -1.
    9900012    2    1    2    0    0 -0.16365990701E+02 -0.37770588470E+02 -0.13753558476E+02  0.47787269871E+02  0.19999994648E+02 0.  0.
        -12    1    1    2    0    0  0.16365990701E+02  0.37770588470E+02  0.13753558476E+02  0.43400730129E+02  0.00000000000E+00 0.  1.
         11    1    3    3    0    0 -0.10596001485E+02 -0.24916404691E+02 -0.28506919241E+01  0.27225519552E+02  0.51100000000E-03 0. -1.
        -11    1    3    3    0    0 -0.18588830838E+01  0.15634917988E+01 -0.93470129294E+00  0.26026178537E+01  0.51100000000E-03 0.  1.
        -12    1    3    3    0    0 -0.39111061325E+01 -0.14417675579E+02 -0.99681652587E+01  0.17959132465E+02  0.00000000000E+00 0.  1.
</event>
<event>
 7    1  0.2834226E-010  0.4778727E+02  0.7816164E-02  0.1312668E+00
        -11   -1    0    0    0    0  0.00000000000E+00  0.00000000000E+00  0.45593999997E+02  0.45594000000E+02  0.51100000000E-03 0.  1.
         11   -1    0    0    0    0 -0.00000000000E+00 -0.00000000000E+00 -0.45593999997E+02  0.45594000000E+02  0.51100000000E-03 0. -1.
    9900012    2    1    2    0    0 -0.32278788019E+02 -0.81609002277E+01 -0.27840669316E+02  0.47787270554E+02  0.19999997763E+02 0.  0.
        -12    1    1    2    0    0  0.32278788019E+02  0.81609002277E+01  0.27840669316E+02  0.43400729446E+02  0.00000000000E+00 0.  1.
         11    1    3    3    0    0 -0.19242337481E+02 -0.85707069164E+01 -0.99792841032E+01  0.23309025725E+02  0.51100000000E-03 0. -1.
        -11    1    3    3    0    0  0.69302979405E+00 -0.13149256478E+01 -0.62203169140E+01  0.63954407609E+01  0.51100000000E-03 0.  1.
        -12    1    3    3    0    0 -0.13729480332E+02  0.17247323365E+01 -0.11641068298E+02  0.18082804068E+02  0.00000000000E+00 0.  1.
</event>
<event>
 7    1  0.2834226E-010  0.4778727E+02  0.7816164E-02  0.1312668E+00
        -11   -1    0    0    0    0  0.00000000000E+00  0.00000000000E+00  0.45593999997E+02  0.45594000000E+02  0.51100000000E-03 0.  1.
         11   -1    0    0    0    0 -0.00000000000E+00 -0.00000000000E+00 -0.45593999997E+02  0.45594000000E+02  0.51100000000E-03 0. -1.
    9900012    2    1    2    0    0  0.64986622960E+01 -0.33697102789E+01 -0.42778914657E+02  0.47787273068E+02  0.20000009225E+02 0.  0.
        -12    1    1    2    0    0 -0.64986622960E+01  0.33697102789E+01  0.42778914657E+02  0.43400726932E+02  0.00000000000E+00 0.  1.
         11    1    3    3    0    0 -0.42701901804E+01  0.32145032795E+01 -0.12023274810E+02  0.13157761699E+02  0.51100000000E-03 0. -1.
        -11    1    3    3    0    0  0.29380675041E+01  0.23316606796E+01 -0.48149017747E+01  0.61034548859E+01  0.51100000000E-03 0.  1.
         12    1    3    3    0    0  0.78307849723E+01 -0.89158742380E+01 -0.25940738073E+02  0.28526056483E+02  0.00000000000E+00 0. -1.
</event>
<event>
 7    1  0.2834226E-010  0.4778727E+02  0.7816164E-02  0.1312668E+00
        -11   -1    0    0    0    0  0.00000000000E+00  0.00000000000E+00  0.45593999997E+02  0.45594000000E+02  0.51100000000E-03 0.  1.
         11   -1    0    0    0    0 -0.00000000000E+00 -0.00000000000E+00 -0.45593999997E+02  0.45594000000E+02  0.51100000000E-03 0. -1.
    9900012    2    1    2    0    0 -0.35332638221E+02 -0.24721547974E+02 -0.49064277346E+01  0.47787270848E+02  0.19999999102E+02 0.  0.
        -12    1    1    2    0    0  0.35332638221E+02  0.24721547974E+02  0.49064277346E+01  0.43400729152E+02  0.00000000000E+00 0.  1.
         11    1    3    3    0    0 -0.88191244566E+01 -0.13410529403E+02  0.18280463559E+01  0.16154287629E+02  0.51100000000E-03 0.  1.
        -11    1    3    3    0    0 -0.23795473132E+02 -0.54029370689E+01 -0.51275292812E+01  0.24934069611E+02  0.51100000000E-03 0. -1.
         12    1    3    3    0    0 -0.27180406317E+01 -0.59080815020E+01 -0.16069448093E+01  0.66989136082E+01  0.00000000000E+00 0. -1.
</event>
<event>
 7    1  0.2834226E-010  0.4778727E+02  0.7816164E-02  0.1312668E+00
        -11   -1    0    0    0    0  0.00000000000E+00  0.00000000000E+00  0.45593999997E+02  0.45594000000E+02  0.51100000000E-03 0.  1.
         11   -1    0    0    0    0 -0.00000000000E+00 -0.00000000000E+00 -0.45593999997E+02  0.45594000000E+02  0.51100000000E-03 0. -1.
    9900012    2    1    2    0    0 -0.40302904150E+02  0.13771853210E+02  0.83447758061E+01  0.47787270662E+02  0.19999998258E+02 0.  0.
        -12    1    1    2    0    0  0.40302904150E+02 -0.13771853210E+02 -0.83447758061E+01  0.43400729338E+02  0.00000000000E+00 0.  1.
         11    1    3    3    0    0 -0.41366029464E+01  0.53076878188E+01  0.84155877367E+00  0.67816852883E+01  0.51100000000E-03 0. -1.
        -11    1    3    3    0    0 -0.23450287377E+02  0.61436154684E+01 -0.28981308712E+01  0.24414322679E+02  0.51100000000E-03 0.  1.
        -12    1    3    3    0    0 -0.12716013827E+02  0.23205499228E+01  0.10401347904E+02  0.16591262695E+02  0.00000000000E+00 0.  1.
</event>
<event>
 7    1  0.2834226E-010  0.4778727E+02  0.7816164E-02  0.1312668E+00
        -11   -1    0    0    0    0  0.00000000000E+00  0.00000000000E+00  0.45593999997E+02  0.45594000000E+02  0.51100000000E-03 0. -1.
         11   -1    0    0    0    0 -0.00000000000E+00 -0.00000000000E+00 -0.45593999997E+02  0.45594000000E+02  0.51100000000E-03 0.  1.
    9900012    2    1    2    0    0 -0.79211237544E+01  0.39067052723E+02  0.17165206625E+02  0.47787272720E+02  0.20000007639E+02 0.  0.
        -12    1    1    2    0    0  0.79211237544E+01 -0.39067052723E+02 -0.17165206625E+02  0.43400727280E+02  0.00000000000E+00 0.  1.
         11    1    3    3    0    0  0.33583675845E+01  0.44094260117E+01  0.56289896049E+01  0.78998224549E+01  0.51100000000E-03 0. -1.
        -11    1    3    3    0    0 -0.12832428856E+02  0.22522822339E+02  0.71339950709E+01  0.26885733064E+02  0.51100000000E-03 0.  1.
        -12    1    3    3    0    0  0.15529375175E+01  0.12134804372E+02  0.44022219489E+01  0.13001717200E+02  0.00000000000E+00 0.  1.
</event>
<event>
 7    1  0.2834226E-010  0.4778729E+02  0.7816164E-02  0.1312668E+00
        -11   -1    0    0    0    0  0.00000000000E+00  0.00000000000E+00  0.45593999997E+02  0.45594000000E+02  0.51100000000E-03 0. -1.
         11   -1    0    0    0    0 -0.00000000000E+00 -0.00000000000E+00 -0.45593999997E+02  0.45594000000E+02  0.51100000000E-03 0.  1.
    9900012    2    1    2    0    0 -0.85902800682E+01 -0.39591738046E+02  0.15566736346E+02  0.47787286716E+02  0.20000071451E+02 0.  0.
        -12    1    1    2    0    0  0.85902800682E+01  0.39591738046E+02 -0.15566736346E+02  0.43400713284E+02  0.00000000000E+00 0.  1.
         11    1    3    3    0    0 -0.22932385559E-01 -0.64509694277E+01  0.46628968885E+01  0.79597826670E+01  0.51100000000E-03 0. -1.
        -11    1    3    3    0    0 -0.56347714503E+01 -0.34420615523E+02  0.87159688642E+01  0.35951321753E+02  0.51100000000E-03 0.  1.
        -12    1    3    3    0    0 -0.29325762324E+01  0.12798469049E+01  0.21878705928E+01  0.38761822957E+01  0.00000000000E+00 0.  1.
</event>
<event>
 7    1  0.2834226E-010  0.4778727E+02  0.7816164E-02  0.1312668E+00
        -11   -1    0    0    0    0  0.00000000000E+00  0.00000000000E+00  0.45593999997E+02  0.45594000000E+02  0.51100000000E-03 0.  1.
         11   -1    0    0    0    0 -0.00000000000E+00 -0.00000000000E+00 -0.45593999997E+02  0.45594000000E+02  0.51100000000E-03 0. -1.
    9900012    2    1    2    0    0  0.33697593200E+02 -0.90110741402E+01 -0.25824335418E+02  0.47787267927E+02  0.19999985788E+02 0.  0.
        -12    1    1    2    0    0 -0.33697593200E+02  0.90110741402E+01  0.25824335418E+02  0.43400732073E+02  0.00000000000E+00 0.  1.
         11    1    3    3    0    0  0.88565263175E+01  0.20914989180E+01 -0.31572416424E+01  0.96322687456E+01  0.51100000000E-03 0. -1.
        -11    1    3    3    0    0  0.23689114189E+02 -0.72736356085E+01 -0.23408153378E+02  0.34088437202E+02  0.51100000000E-03 0.  1.
        -12    1    3    3    0    0  0.11519526936E+01 -0.38289374497E+01  0.74105960247E+00  0.40665619799E+01  0.00000000000E+00 0.  1.
</event>
<event>
 7    1  0.2834226E-010  0.4778727E+02  0.7816164E-02  0.1312668E+00
        -11   -1    0    0    0    0  0.00000000000E+00  0.00000000000E+00  0.45593999997E+02  0.45594000000E+02  0.51100000000E-03 0.  1.
         11   -1    0    0    0    0 -0.00000000000E+00 -0.00000000000E+00 -0.45593999997E+02  0.45594000000E+02  0.51100000000E-03 0. -1.
    9900012    2    1    2    0    0 -0.13423815029E+02 -0.38776914009E+02 -0.14134192250E+02  0.47787271198E+02  0.20000000702E+02 0.  0.
        -12    1    1    2    0    0  0.13423815029E+02  0.38776914009E+02  0.14134192250E+02  0.43400728802E+02  0.00000000000E+00 0.  1.
         11    1    3    3    0    0 -0.18158960157E+00 -0.12423548904E+02 -0.42680577158E+01  0.13137498204E+02  0.51100000000E-03 0. -1.
        -11    1    3    3    0    0  0.26118386786E+01 -0.69833992820E+01 -0.54425602600E+01  0.92309820311E+01  0.51100000000E-03 0.  1.
         12    1    3    3    0    0 -0.15854064106E+02 -0.19369965823E+02 -0.44235742738E+01  0.25418790963E+02  0.00000000000E+00 0. -1.
</event>
<event>
 7    1  0.2834226E-010  0.4778728E+02  0.7816164E-02  0.1312668E+00
        -11   -1    0    0    0    0  0.00000000000E+00  0.00000000000E+00  0.45593999997E+02  0.45594000000E+02  0.51100000000E-03 0.  1.
         11   -1    0    0    0    0 -0.00000000000E+00 -0.00000000000E+00 -0.45593999997E+02  0.45594000000E+02  0.51100000000E-03 0. -1.
    9900012    2    1    2    0    0  0.30560895619E+01  0.40395461383E+02  0.15572079762E+02  0.47787278211E+02  0.20000032673E+02 0.  0.
        -12    1    1    2    0    0 -0.30560895619E+01 -0.40395461383E+02 -0.15572079762E+02  0.43400721789E+02  0.00000000000E+00 0.  1.
         11    1    3    3    0    0 -0.12176120006E+01  0.23107282911E+02 -0.12133419471E+01  0.23171130776E+02  0.51100000000E-03 0. -1.
        -11    1    3    3    0    0  0.16795187148E+01  0.96869825831E+01  0.76873715908E+01  0.12480148113E+02  0.51100000000E-03 0.  1.
         12    1    3    3    0    0  0.25941828477E+01  0.76011958889E+01  0.90980501180E+01  0.12135999322E+02  0.00000000000E+00 0. -1.
</event>
<event>
 7    1  0.2834226E-010  0.4778727E+02  0.7816164E-02  0.1312668E+00
        -11   -1    0    0    0    0  0.00000000000E+00  0.00000000000E+00  0.45593999997E+02  0.45594000000E+02  0.51100000000E-03 0.  1.
         11   -1    0    0    0    0 -0.00000000000E+00 -0.00000000000E+00 -0.45593999997E+02  0.45594000000E+02  0.51100000000E-03 0. -1.
    9900012    2    1    2    0    0 -0.36082798422E+02 -0.34289434910E+01 -0.23872520167E+02  0.47787271728E+02  0.20000003117E+02 0.  0.
        -12    1    1    2    0    0  0.36082798422E+02  0.34289434910E+01  0.23872520167E+02  0.43400728272E+02  0.00000000000E+00 0.  1.
         11    1    3    3    0    0 -0.28850681919E+01 -0.54018789949E+01 -0.75520108766E+01  0.97230028123E+01  0.51100000000E-03 0. -1.
        -11    1    3    3    0    0 -0.32768308673E+02  0.16058798848E+01 -0.13989475126E+02  0.35665758341E+02  0.51100000000E-03 0.  1.
         12    1    3    3    0    0 -0.42942155724E+00  0.36705561915E+00 -0.23310341647E+01  0.23985105750E+01  0.00000000000E+00 0. -1.
</event>
<event>
 7    1  0.2834226E-010  0.4778730E+02  0.7816164E-02  0.1312668E+00
        -11   -1    0    0    0    0  0.00000000000E+00  0.00000000000E+00  0.45593999997E+02  0.45594000000E+02  0.51100000000E-03 0. -1.
         11   -1    0    0    0    0 -0.00000000000E+00 -0.00000000000E+00 -0.45593999997E+02  0.45594000000E+02  0.51100000000E-03 0.  1.
    9900012    2    1    2    0    0  0.98445432585E+01  0.36150456366E+02 -0.21905490802E+02  0.47787296610E+02  0.20000116564E+02 0.  0.
        -12    1    1    2    0    0 -0.98445432585E+01 -0.36150456366E+02  0.21905490802E+02  0.43400703390E+02  0.00000000000E+00 0.  1.
         11    1    3    3    0    0 -0.25721101290E+01  0.28968269496E+01 -0.57778143360E+01  0.69563277420E+01  0.51100000000E-03 0. -1.
        -11    1    3    3    0    0 -0.97106219964E+00  0.33157500460E+00 -0.26144589995E+01  0.28086117390E+01  0.51100000000E-03 0.  1.
         12    1    3    3    0    0  0.13387715587E+02  0.32922054412E+02 -0.13513217466E+02  0.38022357129E+02  0.00000000000E+00 0. -1.
</event>
<event>
 7    1  0.2834226E-010  0.4778727E+02  0.7816164E-02  0.1312668E+00
        -11   -1    0    0    0    0  0.00000000000E+00  0.00000000000E+00  0.45593999997E+02  0.45594000000E+02  0.51100000000E-03 0. -1.
         11   -1    0    0    0    0 -0.00000000000E+00 -0.00000000000E+00 -0.45593999997E+02  0.45594000000E+02  0.51100000000E-03 0.  1.
    9900012    2    1    2    0    0 -0.54619877167E+01  0.39223875879E+02  0.17756056688E+02  0.47787270767E+02  0.19999998736E+02 0.  0.
        -12    1    1    2    0    0  0.54619877167E+01 -0.39223875879E+02 -0.17756056688E+02  0.43400729233E+02  0.00000000000E+00 0.  1.
         11    1    3    3    0    0 -0.36353523525E+01  0.60426952552E+01  0.10572153925E+02  0.12708280432E+02  0.51100000000E-03 0. -1.
        -11    1    3    3    0    0  0.26951448399E+01  0.23457529864E+02  0.49661346065E+01  0.24128448069E+02  0.51100000000E-03 0.  1.
         12    1    3    3    0    0 -0.45217802041E+01  0.97236507601E+01  0.22177681570E+01  0.10950542266E+02  0.00000000000E+00 0. -1.
</event>
<event>
 7    1  0.2834226E-010  0.4778727E+02  0.7816164E-02  0.1312668E+00
        -11   -1    0    0    0    0  0.00000000000E+00  0.00000000000E+00  0.45593999997E+02  0.45594000000E+02  0.51100000000E-03 0.  1.
         11   -1    0    0    0    0 -0.00000000000E+00 -0.00000000000E+00 -0.45593999997E+02  0.45594000000E+02  0.51100000000E-03 0. -1.
    9900012    2    1    2    0    0  0.13047311437E+02 -0.20945082074E+02 -0.35702866402E+02  0.47787268807E+02  0.19999989797E+02 0.  0.
        -12    1    1    2    0    0 -0.13047311437E+02  0.20945082074E+02  0.35702866402E+02  0.43400731193E+02  0.00000000000E+00 0.  1.
         11    1    3    3    0    0  0.17969867965E+01 -0.14736232048E+02 -0.90110469383E+01  0.17366193126E+02  0.51100000000E-03 0.  1.
        -11    1    3    3    0    0 -0.83376617998E+00 -0.11377602466E+01 -0.17662945048E+01  0.22604116794E+01  0.51100000000E-03 0. -1.
         12    1    3    3    0    0  0.12084090820E+02 -0.50710897794E+01 -0.24925524959E+02  0.28160664001E+02  0.00000000000E+00 0. -1.
</event>
<event>
 7    1  0.2834226E-010  0.4778726E+02  0.7816164E-02  0.1312668E+00
        -11   -1    0    0    0    0  0.00000000000E+00  0.00000000000E+00  0.45593999997E+02  0.45594000000E+02  0.51100000000E-03 0.  1.
         11   -1    0    0    0    0 -0.00000000000E+00 -0.00000000000E+00 -0.45593999997E+02  0.45594000000E+02  0.51100000000E-03 0. -1.
    9900012    2    1    2    0    0  0.91783429984E+01 -0.25822971866E+02 -0.33653478336E+02  0.47787257376E+02  0.19999937680E+02 0.  0.
        -12    1    1    2    0    0 -0.91783429984E+01  0.25822971866E+02  0.33653478336E+02  0.43400742624E+02  0.00000000000E+00 0.  1.
         11    1    3    3    0    0 -0.23506445604E+00 -0.55279957509E+01 -0.10438255481E+02  0.11814024296E+02  0.51100000000E-03 0. -1.
        -11    1    3    3    0    0  0.13095334529E+02 -0.10088744361E+02 -0.15488215753E+02  0.22652933071E+02  0.51100000000E-03 0.  1.
        -12    1    3    3    0    0 -0.36819270745E+01 -0.10206231754E+02 -0.77270071021E+01  0.13320300010E+02  0.00000000000E+00 0.  1.
</event>
<event>
 7    1  0.2834226E-010  0.4778727E+02  0.7816164E-02  0.1312668E+00
        -11   -1    0    0    0    0  0.00000000000E+00  0.00000000000E+00  0.45593999997E+02  0.45594000000E+02  0.51100000000E-03 0.  1.
         11   -1    0    0    0    0 -0.00000000000E+00 -0.00000000000E+00 -0.45593999997E+02  0.45594000000E+02  0.51100000000E-03 0. -1.
    9900012    2    1    2    0    0  0.15686592026E+02 -0.11380773004E+02 -0.38833390962E+02  0.47787269393E+02  0.19999992472E+02 0.  0.
        -12    1    1    2    0    0 -0.15686592026E+02  0.11380773004E+02  0.38833390962E+02  0.43400730607E+02  0.00000000000E+00 0.  1.
         11    1    3    3    0    0  0.55696005679E+01 -0.44671007925E-01 -0.49118087405E+01  0.74261909045E+01  0.51100000000E-03 0.  1.
        -11    1    3    3    0    0 -0.34458633305E+01 -0.11433650179E-01 -0.23162033168E+01  0.41519757811E+01  0.51100000000E-03 0. -1.
         12    1    3    3    0    0  0.13562854789E+02 -0.11324668346E+02 -0.31605378905E+02  0.36209102708E+02  0.00000000000E+00 0. -1.
</event>
<event>
 7    1  0.2834226E-010  0.4778727E+02  0.7816164E-02  0.1312668E+00
        -11   -1    0    0    0    0  0.00000000000E+00  0.00000000000E+00  0.45593999997E+02  0.45594000000E+02  0.51100000000E-03 0. -1.
         11   -1    0    0    0    0 -0.00000000000E+00 -0.00000000000E+00 -0.45593999997E+02  0.45594000000E+02  0.51100000000E-03 0.  1.
    9900012    2    1    2    0    0  0.71261175768E+01  0.17144138226E+02  0.39229073946E+02  0.47787271090E+02  0.20000000210E+02 0.  0.
        -12    1    1    2    0    0 -0.71261175768E+01 -0.17144138226E+02 -0.39229073946E+02  0.43400728910E+02  0.00000000000E+00 0.  1.
         11    1    3    3    0    0  0.16811487857E+01  0.58092800031E+01  0.17903163553E+02  0.18897017248E+02  0.51100000000E-03 0. -1.
        -11    1    3    3    0    0  0.29933410423E+01  0.10808321783E+02  0.48403996062E+01  0.12215129101E+02  0.51100000000E-03 0.  1.
        -12    1    3    3    0    0  0.24516277488E+01  0.52653644027E+00  0.16485510786E+02  0.16675124741E+02  0.00000000000E+00 0.  1.
</event>
<event>
 7    1  0.2834226E-010  0.4778723E+02  0.7816164E-02  0.1312668E+00
        -11   -1    0    0    0    0  0.00000000000E+00  0.00000000000E+00  0.45593999997E+02  0.45594000000E+02  0.51100000000E-03 0.  1.
         11   -1    0    0    0    0 -0.00000000000E+00 -0.00000000000E+00 -0.45593999997E+02  0.45594000000E+02  0.51100000000E-03 0. -1.
    9900012    2    1    2    0    0  0.18949465947E+02 -0.37408824822E+02 -0.11185890317E+02  0.47787232998E+02  0.19999826528E+02 0.  0.
        -12    1    1    2    0    0 -0.18949465947E+02  0.37408824822E+02  0.11185890317E+02  0.43400767002E+02  0.00000000000E+00 0.  1.
         11    1    3    3    0    0  0.18971199761E+02 -0.17084844956E+02 -0.38195844154E+01  0.25814483781E+02  0.51100000000E-03 0. -1.
        -11    1    3    3    0    0  0.18210320078E+00 -0.61658288084E+00  0.43520922143E+00  0.77636547593E+00  0.51100000000E-03 0.  1.
         12    1    3    3    0    0 -0.20383701456E+00 -0.19707396985E+02 -0.78015151231E+01  0.21196383740E+02  0.00000000000E+00 0. -1.
</event>
<event>
 7    1  0.2834226E-010  0.4778727E+02  0.7816164E-02  0.1312668E+00
        -11   -1    0    0    0    0  0.00000000000E+00  0.00000000000E+00  0.45593999997E+02  0.45594000000E+02  0.51100000000E-03 0. -1.
         11   -1    0    0    0    0 -0.00000000000E+00 -0.00000000000E+00 -0.45593999997E+02  0.45594000000E+02  0.51100000000E-03 0.  1.
    9900012    2    1    2    0    0  0.26397179226E+02 -0.26279143492E+02  0.22275970580E+02  0.47787270524E+02  0.19999997628E+02 0.  0.
        -12    1    1    2    0    0 -0.26397179226E+02  0.26279143492E+02 -0.22275970580E+02  0.43400729476E+02  0.00000000000E+00 0.  1.
         11    1    3    3    0    0  0.63715549157E+01 -0.13108085349E+02  0.37371347913E+01  0.15046088870E+02  0.51100000000E-03 0. -1.
        -11    1    3    3    0    0  0.52915933572E+01 -0.42857083362E+01  0.12983344764E+02  0.14660678624E+02  0.51100000000E-03 0.  1.
        -12    1    3    3    0    0  0.14734030953E+02 -0.88853498067E+01  0.55554910246E+01  0.18080503030E+02  0.00000000000E+00 0.  1.
</event>
<event>
 7    1  0.2834226E-010  0.4778728E+02  0.7816164E-02  0.1312668E+00
        -11   -1    0    0    0    0  0.00000000000E+00  0.00000000000E+00  0.45593999997E+02  0.45594000000E+02  0.51100000000E-03 0.  1.
         11   -1    0    0    0    0 -0.00000000000E+00 -0.00000000000E+00 -0.45593999997E+02  0.45594000000E+02  0.51100000000E-03 0. -1.
    9900012    2    1    2    0    0 -0.23524834819E+02 -0.28483814084E+02 -0.22778880156E+02  0.47787275361E+02  0.20000019680E+02 0.  0.
        -12    1    1    2    0    0  0.23524834819E+02  0.28483814084E+02  0.22778880156E+02  0.43400724639E+02  0.00000000000E+00 0.  1.
         11    1    3    3    0    0 -0.17487703922E+02 -0.11047687084E+02 -0.84820569380E+01  0.22356575509E+02  0.51100000000E-03 0. -1.
        -11    1    3    3    0    0  0.23280129097E+00 -0.40602410333E+01  0.97613475795E+00  0.41824147351E+01  0.51100000000E-03 0.  1.
         12    1    3    3    0    0 -0.62699321887E+01 -0.13375885967E+02 -0.15272957976E+02  0.21248285116E+02  0.00000000000E+00 0. -1.
</event>
<event>
 7    1  0.2834226E-010  0.4778727E+02  0.7816164E-02  0.1312668E+00
        -11   -1    0    0    0    0  0.00000000000E+00  0.00000000000E+00  0.45593999997E+02  0.45594000000E+02  0.51100000000E-03 0.  1.
         11   -1    0    0    0    0 -0.00000000000E+00 -0.00000000000E+00 -0.45593999997E+02  0.45594000000E+02  0.51100000000E-03 0. -1.
    9900012    2    1    2    0    0 -0.12112243645E+02 -0.45840739404E+01 -0.41423458313E+02  0.47787273294E+02  0.20000010257E+02 0.  0.
        -12    1    1    2    0    0  0.12112243645E+02  0.45840739404E+01  0.41423458313E+02  0.43400726706E+02  0.00000000000E+00 0.  1.
         11    1    3    3    0    0 -0.62153903913E+01 -0.10760679525E+02 -0.31354162011E+02  0.33726944381E+02  0.51100000000E-03 0. -1.
        -11    1    3    3    0    0 -0.37043748078E+01  0.65784986877E+01 -0.82502895104E+01  0.11183305190E+02  0.51100000000E-03 0.  1.
         12    1    3    3    0    0 -0.21924784456E+01 -0.40189310269E+00 -0.18190067910E+01  0.28770237236E+01  0.00000000000E+00 0. -1.
</event>
<event>
 7    1  0.2834226E-010  0.4778728E+02  0.7816164E-02  0.1312668E+00
        -11   -1    0    0    0    0  0.00000000000E+00  0.00000000000E+00  0.45593999997E+02  0.45594000000E+02  0.51100000000E-03 0.  1.
         11   -1    0    0    0    0 -0.00000000000E+00 -0.00000000000E+00 -0.45593999997E+02  0.45594000000E+02  0.51100000000E-03 0. -1.
    9900012    2    1    2    0    0  0.25294965155E+02 -0.21249569969E+02 -0.28146806493E+02  0.47787283395E+02  0.20000056310E+02 0.  0.
        -12    1    1    2    0    0 -0.25294965155E+02  0.21249569969E+02  0.28146806493E+02  0.43400716605E+02  0.00000000000E+00 0.  1.
         11    1    3    3    0    0  0.14764443883E+02 -0.67040563277E+01 -0.12455618114E+02  0.20446897008E+02  0.51100000000E-03 0. -1.
        -11    1    3    3    0    0  0.20406951058E+00 -0.65775989737E+01 -0.12161951805E+02  0.13828214802E+02  0.51100000000E-03 0.  1.
        -12    1    3    3    0    0  0.10326451762E+02 -0.79679146679E+01 -0.35292365742E+01  0.13512171585E+02  0.00000000000E+00 0.  1.
</event>
<event>
 7    1  0.2834226E-010  0.4778727E+02  0.7816164E-02  0.1312668E+00
        -11   -1    0    0    0    0  0.00000000000E+00  0.00000000000E+00  0.45593999997E+02  0.45594000000E+02  0.51100000000E-03 0.  1.
         11   -1    0    0    0    0 -0.00000000000E+00 -0.00000000000E+00 -0.45593999997E+02  0.45594000000E+02  0.51100000000E-03 0. -1.
    9900012    2    1    2    0    0 -0.30044121864E+02 -0.24899224623E+02 -0.19000062881E+02  0.47787273798E+02  0.20000012552E+02 0.  0.
        -12    1    1    2    0    0  0.30044121864E+02  0.24899224623E+02  0.19000062881E+02  0.43400726202E+02  0.00000000000E+00 0.  1.
         11    1    3    3    0    0 -0.10820184449E+02 -0.13243683156E+02 -0.12894810701E+02  0.21418395793E+02  0.51100000000E-03 0. -1.
        -11    1    3    3    0    0 -0.16683599090E+02 -0.42369429266E+01 -0.67757378346E+01  0.18498777998E+02  0.51100000000E-03 0.  1.
        -12    1    3    3    0    0 -0.25403383252E+01 -0.74185985400E+01  0.67048565445E+00  0.78701000068E+01  0.00000000000E+00 0.  1.
</event>
<event>
 7    1  0.2834226E-010  0.4778728E+02  0.7816164E-02  0.1312668E+00
        -11   -1    0    0    0    0  0.00000000000E+00  0.00000000000E+00  0.45593999997E+02  0.45594000000E+02  0.51100000000E-03 0. -1.
         11   -1    0    0    0    0 -0.00000000000E+00 -0.00000000000E+00 -0.45593999997E+02  0.45594000000E+02  0.51100000000E-03 0.  1.
    9900012    2    1    2    0    0  0.17253330554E+02  0.27542042593E+02  0.28764231327E+02  0.47787279623E+02  0.20000039115E+02 0.  0.
        -12    1    1    2    0    0 -0.17253330554E+02 -0.27542042593E+02 -0.28764231327E+02  0.43400720377E+02  0.00000000000E+00 0.  1.
         11    1    3    3    0    0  0.11884271684E+02  0.21260488574E+02  0.11430327183E+02  0.26905327867E+02  0.51100000000E-03 0.  1.
        -11    1    3    3    0    0  0.73006368736E+01  0.31565505928E+01  0.12369338375E+02  0.14705905022E+02  0.51100000000E-03 0. -1.
        -12    1    3    3    0    0 -0.19315780039E+01  0.31250034267E+01  0.49645657680E+01  0.61760467346E+01  0.00000000000E+00 0.  1.
</event>
<event>
 7    1  0.2834226E-010  0.4778727E+02  0.7816164E-02  0.1312668E+00
        -11   -1    0    0    0    0  0.00000000000E+00  0.00000000000E+00  0.45593999997E+02  0.45594000000E+02  0.51100000000E-03 0. -1.
         11   -1    0    0    0    0 -0.00000000000E+00 -0.00000000000E+00 -0.45593999997E+02  0.45594000000E+02  0.51100000000E-03 0.  1.
    9900012    2    1    2    0    0 -0.87493083520E+01  0.41388009291E+02  0.97007959580E+01  0.47787272450E+02  0.20000006407E+02 0.  0.
        -12    1    1    2    0    0  0.87493083520E+01 -0.41388009291E+02 -0.97007959580E+01  0.43400727550E+02  0.00000000000E+00 0.  1.
         11    1    3    3    0    0 -0.31335516160E+01  0.64997170457E+01  0.78680478941E+01  0.10675750340E+02  0.51100000000E-03 0. -1.
        -11    1    3    3    0    0 -0.60630908203E+01  0.35523524810E+02  0.11160519913E+01  0.36054506757E+02  0.51100000000E-03 0.  1.
        -12    1    3    3    0    0  0.44733408421E+00 -0.63523256471E+00  0.71669607256E+00  0.10570153521E+01  0.00000000000E+00 0.  1.
</event>
<event>
 7    1  0.2834226E-010  0.4778727E+02  0.7816164E-02  0.1312668E+00
        -11   -1    0    0    0    0  0.00000000000E+00  0.00000000000E+00  0.45593999997E+02  0.45594000000E+02  0.51100000000E-03 0.  1.
         11   -1    0    0    0    0 -0.00000000000E+00 -0.00000000000E+00 -0.45593999997E+02  0.45594000000E+02  0.51100000000E-03 0. -1.
    9900012    2    1    2    0    0  0.18095197542E+02  0.38356925169E+02 -0.92159310053E+01  0.47787271126E+02  0.20000000372E+02 0.  0.
        -12    1    1    2    0    0 -0.18095197542E+02 -0.38356925169E+02  0.92159310053E+01  0.43400728874E+02  0.00000000000E+00 0.  1.
         11    1    3    3    0    0  0.14396737784E+02  0.16168262818E+02 -0.13764771925E+01  0.21692705481E+02  0.51100000000E-03 0. -1.
        -11    1    3    3    0    0 -0.33724755459E+01  0.59302580474E+01 -0.41501557416E+01  0.79853205795E+01  0.51100000000E-03 0.  1.
        -12    1    3    3    0    0  0.70709353041E+01  0.16258404304E+02 -0.36892980713E+01  0.18109245065E+02  0.00000000000E+00 0.  1.
</event>
<event>
 7    1  0.2834226E-010  0.4778725E+02  0.7816164E-02  0.1312668E+00
        -11   -1    0    0    0    0  0.00000000000E+00  0.00000000000E+00  0.45593999997E+02  0.45594000000E+02  0.51100000000E-03 0.  1.
         11   -1    0    0    0    0 -0.00000000000E+00 -0.00000000000E+00 -0.45593999997E+02  0.45594000000E+02  0.51100000000E-03 0. -1.
    9900012    2    1    2    0    0  0.27103169200E+02 -0.30049496958E+01 -0.33764081770E+02  0.47787254371E+02  0.19999923978E+02 0.  0.
        -12    1    1    2    0    0 -0.27103169200E+02  0.30049496958E+01  0.33764081770E+02  0.43400745629E+02  0.00000000000E+00 0.  1.
         11    1    3    3    0    0  0.12610796123E+02 -0.89745247595E+01 -0.25527248102E+02  0.29853218745E+02  0.51100000000E-03 0. -1.
        -11    1    3    3    0    0  0.57053955176E+01  0.28789376294E+01 -0.48505067941E+01  0.80229194379E+01  0.51100000000E-03 0.  1.
         12    1    3    3    0    0  0.87869775601E+01  0.30906374343E+01 -0.33863268739E+01  0.99111161878E+01  0.00000000000E+00 0. -1.
</event>
<event>
 7    1  0.2834226E-010  0.4778727E+02  0.7816164E-02  0.1312668E+00
        -11   -1    0    0    0    0  0.00000000000E+00  0.00000000000E+00  0.45593999997E+02  0.45594000000E+02  0.51100000000E-03 0.  1.
         11   -1    0    0    0    0 -0.00000000000E+00 -0.00000000000E+00 -0.45593999997E+02  0.45594000000E+02  0.51100000000E-03 0. -1.
    9900012    2    1    2    0    0  0.32228559515E+02  0.10778159899E+02 -0.26995824383E+02  0.47787270590E+02  0.19999997928E+02 0.  0.
        -12    1    1    2    0    0 -0.32228559515E+02 -0.10778159899E+02  0.26995824383E+02  0.43400729410E+02  0.00000000000E+00 0.  1.
         11    1    3    3    0    0  0.22278190077E+02  0.10814310508E+02 -0.12619412134E+02  0.27794183343E+02  0.51100000000E-03 0. -1.
        -11    1    3    3    0    0 -0.12497892805E+00 -0.29514398461E+00 -0.81287188282E+01  0.81350353259E+01  0.51100000000E-03 0.  1.
        -12    1    3    3    0    0  0.10075348367E+02  0.25899337550E+00 -0.62476934201E+01  0.11858051921E+02  0.00000000000E+00 0.  1.
</event>
<event>
 7    1  0.2834226E-010  0.4778727E+02  0.7816164E-02  0.1312668E+00
        -11   -1    0    0    0    0  0.00000000000E+00  0.00000000000E+00  0.45593999997E+02  0.45594000000E+02  0.51100000000E-03 0. -1.
         11   -1    0    0    0    0 -0.00000000000E+00 -0.00000000000E+00 -0.45593999997E+02  0.45594000000E+02  0.51100000000E-03 0.  1.
    9900012    2    1    2    0    0 -0.53975972532E+01  0.40592575912E+02  0.14378186737E+02  0.47787268104E+02  0.19999986593E+02 0.  0.
        -12    1    1    2    0    0  0.53975972532E+01 -0.40592575912E+02 -0.14378186737E+02  0.43400731896E+02  0.00000000000E+00 0.  1.
         11    1    3    3    0    0 -0.88342233457E+01  0.26508156065E+02  0.49852696768E+01  0.28382719287E+02  0.51100000000E-03 0. -1.
        -11    1    3    3    0    0  0.37511649690E+01  0.11315064418E+01  0.13005428511E+01  0.41283116914E+01  0.51100000000E-03 0.  1.
        -12    1    3    3    0    0 -0.31453887655E+00  0.12952913405E+02  0.80923742088E+01  0.15276237126E+02  0.00000000000E+00 0.  1.
</event>
<event>
 7    1  0.2834226E-010  0.4778731E+02  0.7816164E-02  0.1312668E+00
        -11   -1    0    0    0    0  0.00000000000E+00  0.00000000000E+00  0.45593999997E+02  0.45594000000E+02  0.51100000000E-03 0. -1.
         11   -1    0    0    0    0 -0.00000000000E+00 -0.00000000000E+00 -0.45593999997E+02  0.45594000000E+02  0.51100000000E-03 0.  1.
    9900012    2    1    2    0    0 -0.18682007588E+02 -0.33152544286E+02  0.20868903998E+02  0.47787311593E+02  0.20000184876E+02 0.  0.
        -12    1    1    2    0    0  0.18682007588E+02  0.33152544286E+02 -0.20868903998E+02  0.43400688407E+02  0.00000000000E+00 0.  1.
         11    1    3    3    0    0 -0.13458547397E+01 -0.64711728561E+01  0.12053834725E+02  0.13747084599E+02  0.51100000000E-03 0. -1.
        -11    1    3    3    0    0 -0.34838145569E+01 -0.10691481671E+01  0.19102104200E+01  0.41144800133E+01  0.51100000000E-03 0.  1.
         12    1    3    3    0    0 -0.13852338292E+02 -0.25612223262E+02  0.69048588523E+01  0.29925746981E+02  0.00000000000E+00 0. -1.
</event>
<event>
 7    1  0.2834226E-010  0.4778726E+02  0.7816164E-02  0.1312668E+00
        -11   -1    0    0    0    0  0.00000000000E+00  0.00000000000E+00  0.45593999997E+02  0.45594000000E+02  0.51100000000E-03 0.  1.
         11   -1    0    0    0    0 -0.00000000000E+00 -0.00000000000E+00 -0.45593999997E+02  0.45594000000E+02  0.51100000000E-03 0. -1.
    9900012    2    1    2    0    0  0.66782042164E+01  0.35964008084E+02 -0.23358416500E+02  0.47787263711E+02  0.19999966563E+02 0.  0.
        -12    1    1    2    0    0 -0.66782042164E+01 -0.35964008084E+02  0.23358416500E+02  0.43400736289E+02  0.00000000000E+00 0.  1.
         11    1    3    3    0    0 -0.44567531503E+01  0.33050766972E+01 -0.59902234081E+01  0.81651060837E+01  0.51100000000E-03 0. -1.
        -11    1    3    3    0    0  0.80486951910E+01  0.24834209521E+02 -0.17097406087E+02  0.31206421647E+02  0.51100000000E-03 0.  1.
        -12    1    3    3    0    0  0.30862621756E+01  0.78247218655E+01 -0.27078700513E+00  0.84157359803E+01  0.00000000000E+00 0.  1.
</event>
<event>
 7    1  0.2834226E-010  0.4778727E+02  0.7816164E-02  0.1312668E+00
        -11   -1    0    0    0    0  0.00000000000E+00  0.00000000000E+00  0.45593999997E+02  0.45594000000E+02  0.51100000000E-03 0.  1.
         11   -1    0    0    0    0 -0.00000000000E+00 -0.00000000000E+00 -0.45593999997E+02  0.45594000000E+02  0.51100000000E-03 0. -1.
    9900012    2    1    2    0    0  0.19247295502E+02  0.25695408470E+02  0.29204644370E+02  0.47787266673E+02  0.19999980069E+02 0.  0.
        -12    1    1    2    0    0 -0.19247295502E+02 -0.25695408470E+02 -0.29204644370E+02  0.43400733327E+02  0.00000000000E+00 0.  1.
         11    1    3    3    0    0  0.83079852581E+00  0.13923625413E+01 -0.51221393800E+00  0.17003714348E+01  0.51100000000E-03 0. -1.
        -11    1    3    3    0    0  0.89239222194E+00 -0.15427865385E+01  0.76381270638E+01  0.78433117677E+01  0.51100000000E-03 0.  1.
        -12    1    3    3    0    0  0.17524104754E+02  0.25845832467E+02  0.22078731244E+02  0.38243583471E+02  0.00000000000E+00 0.  1.
</event>
<event>
 7    1  0.2834226E-010  0.4778726E+02  0.7816164E-02  0.1312668E+00
        -11   -1    0    0    0    0  0.00000000000E+00  0.00000000000E+00  0.45593999997E+02  0.45594000000E+02  0.51100000000E-03 0.  1.
         11   -1    0    0    0    0 -0.00000000000E+00 -0.00000000000E+00 -0.45593999997E+02  0.45594000000E+02  0.51100000000E-03 0. -1.
    9900012    2    1    2    0    0 -0.33106586851E+02  0.18436076847E+02 -0.21158660948E+02  0.47787263191E+02  0.19999964193E+02 0.  0.
        -12    1    1    2    0    0  0.33106586851E+02 -0.18436076847E+02  0.21158660948E+02  0.43400736809E+02  0.00000000000E+00 0.  1.
         11    1    3    3    0    0 -0.10672512521E+02  0.55542890521E+01 -0.51700930075E+01  0.13095133155E+02  0.51100000000E-03 0. -1.
        -11    1    3    3    0    0 -0.13117405572E+02  0.78384066469E+01  0.27376056155E+00  0.15283386169E+02  0.51100000000E-03 0.  1.
        -12    1    3    3    0    0 -0.93166687584E+01  0.50433811481E+01 -0.16262328503E+02  0.19408743867E+02  0.00000000000E+00 0.  1.
</event>
<event>
 7    1  0.2834226E-010  0.4778727E+02  0.7816164E-02  0.1312668E+00
        -11   -1    0    0    0    0  0.00000000000E+00  0.00000000000E+00  0.45593999997E+02  0.45594000000E+02  0.51100000000E-03 0.  1.
         11   -1    0    0    0    0 -0.00000000000E+00 -0.00000000000E+00 -0.45593999997E+02  0.45594000000E+02  0.51100000000E-03 0. -1.
    9900012    2    1    2    0    0  0.34961943612E+02  0.18301246650E+02 -0.18065163834E+02  0.47787271038E+02  0.19999999970E+02 0.  0.
        -12    1    1    2    0    0 -0.34961943612E+02 -0.18301246650E+02  0.18065163834E+02  0.43400728962E+02  0.00000000000E+00 0.  1.
         11    1    3    3    0    0  0.42173983673E+01  0.90778757938E+01 -0.12734203062E+01  0.10090385397E+02  0.51100000000E-03 0. -1.
        -11    1    3    3    0    0  0.18608891232E+02  0.47513363748E+01 -0.15535533682E+02  0.24702607904E+02  0.51100000000E-03 0.  1.
        -12    1    3    3    0    0  0.12135654013E+02  0.44720344815E+01 -0.12562098457E+01  0.12994277737E+02  0.00000000000E+00 0.  1.
</event>
<event>
 7    1  0.2834226E-010  0.4778727E+02  0.7816164E-02  0.1312668E+00
        -11   -1    0    0    0    0  0.00000000000E+00  0.00000000000E+00  0.45593999997E+02  0.45594000000E+02  0.51100000000E-03 0.  1.
         11   -1    0    0    0    0 -0.00000000000E+00 -0.00000000000E+00 -0.45593999997E+02  0.45594000000E+02  0.51100000000E-03 0. -1.
    9900012    2    1    2    0    0  0.27040186663E+02  0.30261847272E+02 -0.15384157057E+02  0.47787269783E+02  0.19999994247E+02 0.  0.
        -12    1    1    2    0    0 -0.27040186663E+02 -0.30261847272E+02  0.15384157057E+02  0.43400730217E+02  0.00000000000E+00 0.  1.
         11    1    3    3    0    0  0.26008294372E+02  0.21297990062E+02 -0.12224908221E+02  0.35769877524E+02  0.51100000000E-03 0. -1.
        -11    1    3    3    0    0 -0.10639030175E+01  0.71531770541E+01  0.70164718574E+00  0.72658200247E+01  0.51100000000E-03 0.  1.
         12    1    3    3    0    0  0.20957953084E+01  0.18106801558E+01 -0.38608960221E+01  0.47515722340E+01  0.00000000000E+00 0. -1.
</event>
<event>
 7    1  0.2834226E-010  0.4778727E+02  0.7816164E-02  0.1312668E+00
        -11   -1    0    0    0    0  0.00000000000E+00  0.00000000000E+00  0.45593999997E+02  0.45594000000E+02  0.51100000000E-03 0.  1.
         11   -1    0    0    0    0 -0.00000000000E+00 -0.00000000000E+00 -0.45593999997E+02  0.45594000000E+02  0.51100000000E-03 0. -1.
    9900012    2    1    2    0    0 -0.50354783779E+00 -0.99989373847E+01 -0.42230218592E+02  0.47787266463E+02  0.19999979111E+02 0.  0.
        -12    1    1    2    0    0  0.50354783779E+00  0.99989373847E+01  0.42230218592E+02  0.43400733537E+02  0.00000000000E+00 0.  1.
         11    1    3    3    0    0  0.74055446051E+01 -0.46306728751E+01 -0.23219705109E+02  0.24808061750E+02  0.51100000000E-03 0. -1.
        -11    1    3    3    0    0 -0.56381408997E+01 -0.10857379421E+00 -0.40034460750E+01  0.69157791904E+01  0.51100000000E-03 0.  1.
        -12    1    3    3    0    0 -0.22709515432E+01 -0.52596907153E+01 -0.15007067408E+02  0.16063425522E+02  0.00000000000E+00 0.  1.
</event>
<event>
 7    1  0.2834226E-010  0.4778727E+02  0.7816164E-02  0.1312668E+00
        -11   -1    0    0    0    0  0.00000000000E+00  0.00000000000E+00  0.45593999997E+02  0.45594000000E+02  0.51100000000E-03 0.  1.
         11   -1    0    0    0    0 -0.00000000000E+00 -0.00000000000E+00 -0.45593999997E+02  0.45594000000E+02  0.51100000000E-03 0. -1.
    9900012    2    1    2    0    0  0.11055317053E+02 -0.18708948549E+02 -0.37568320572E+02  0.47787268422E+02  0.19999988041E+02 0.  0.
        -12    1    1    2    0    0 -0.11055317053E+02  0.18708948549E+02  0.37568320572E+02  0.43400731578E+02  0.00000000000E+00 0.  1.
         11    1    3    3    0    0  0.17940073247E+01  0.70188285377E+00 -0.15675187041E+01  0.24835895334E+01  0.51100000000E-03 0. -1.
        -11    1    3    3    0    0 -0.10572175059E+01 -0.36306911482E+00  0.15745055467E+01  0.19309572794E+01  0.51100000000E-03 0.  1.
        -12    1    3    3    0    0  0.10318527234E+02 -0.19047762287E+02 -0.37575307415E+02  0.43372721609E+02  0.00000000000E+00 0.  1.
</event>
<event>
 7    1  0.2834226E-010  0.4778727E+02  0.7816164E-02  0.1312668E+00
        -11   -1    0    0    0    0  0.00000000000E+00  0.00000000000E+00  0.45593999997E+02  0.45594000000E+02  0.51100000000E-03 0. -1.
         11   -1    0    0    0    0 -0.00000000000E+00 -0.00000000000E+00 -0.45593999997E+02  0.45594000000E+02  0.51100000000E-03 0.  1.
    9900012    2    1    2    0    0 -0.37157426697E+02 -0.21383947044E+02  0.67583861786E+01  0.47787270356E+02  0.19999996861E+02 0.  0.
        -12    1    1    2    0    0  0.37157426697E+02  0.21383947044E+02 -0.67583861786E+01  0.43400729644E+02  0.00000000000E+00 0.  1.
         11    1    3    3    0    0 -0.10454275505E+02 -0.23082113924E+01  0.49283586811E+01  0.11785942292E+02  0.51100000000E-03 0. -1.
        -11    1    3    3    0    0 -0.56647905254E+01 -0.11849296531E+02  0.37916911104E+01  0.13670135395E+02  0.51100000000E-03 0.  1.
        -12    1    3    3    0    0 -0.21038360666E+02 -0.72264391208E+01 -0.19616636128E+01  0.22331192669E+02  0.00000000000E+00 0.  1.
</event>
<event>
 7    1  0.2834226E-010  0.4778727E+02  0.7816164E-02  0.1312668E+00
        -11   -1    0    0    0    0  0.00000000000E+00  0.00000000000E+00  0.45593999997E+02  0.45594000000E+02  0.51100000000E-03 0.  1.
         11   -1    0    0    0    0 -0.00000000000E+00 -0.00000000000E+00 -0.45593999997E+02  0.45594000000E+02  0.51100000000E-03 0. -1.
    9900012    2    1    2    0    0 -0.12319827623E+02 -0.16702703589E+02 -0.38116464887E+02  0.47787270106E+02  0.19999995722E+02 0.  0.
        -12    1    1    2    0    0  0.12319827623E+02  0.16702703589E+02  0.38116464887E+02  0.43400729894E+02  0.00000000000E+00 0.  1.
         11    1    3    3    0    0 -0.99475142381E+01 -0.48088203274E+01 -0.13532699258E+02  0.17470310299E+02  0.51100000000E-03 0. -1.
        -11    1    3    3    0    0 -0.52697050552E+01 -0.63411758260E-01 -0.50638217922E+01  0.73086321446E+01  0.51100000000E-03 0.  1.
         12    1    3    3    0    0  0.28973916698E+01 -0.11830471503E+02 -0.19519943836E+02  0.23008327663E+02  0.00000000000E+00 0. -1.
</event>
<event>
 7    1  0.2834226E-010  0.4778727E+02  0.7816164E-02  0.1312668E+00
        -11   -1    0    0    0    0  0.00000000000E+00  0.00000000000E+00  0.45593999997E+02  0.45594000000E+02  0.51100000000E-03 0. -1.
         11   -1    0    0    0    0 -0.00000000000E+00 -0.00000000000E+00 -0.45593999997E+02  0.45594000000E+02  0.51100000000E-03 0.  1.
    9900012    2    1    2    0    0  0.42799779240E+02  0.45637972227E+01  0.55654146246E+01  0.47787272033E+02  0.20000004509E+02 0.  0.
        -12    1    1    2    0    0 -0.42799779240E+02 -0.45637972227E+01 -0.55654146246E+01  0.43400727967E+02  0.00000000000E+00 0.  1.
         11    1    3    3    0    0  0.21725154530E+02  0.19991512591E+01 -0.13336722381E+01  0.21857667465E+02  0.51100000000E-03 0. -1.
        -11    1    3    3    0    0  0.14629661408E+02  0.40218489283E+01  0.10455121946E+02  0.18425846979E+02  0.51100000000E-03 0.  1.
        -12    1    3    3    0    0  0.64449633016E+01 -0.14572029647E+01 -0.35560350836E+01  0.75037575890E+01  0.00000000000E+00 0.  1.
</event>
<event>
 7    1  0.2834226E-010  0.4778726E+02  0.7816164E-02  0.1312668E+00
        -11   -1    0    0    0    0  0.00000000000E+00  0.00000000000E+00  0.45593999997E+02  0.45594000000E+02  0.51100000000E-03 0. -1.
         11   -1    0    0    0    0 -0.00000000000E+00 -0.00000000000E+00 -0.45593999997E+02  0.45594000000E+02  0.51100000000E-03 0.  1.
    9900012    2    1    2    0    0  0.42587246834E+02 -0.42921116708E+01  0.71783112952E+01  0.47787263041E+02  0.19999963511E+02 0.  0.
        -12    1    1    2    0    0 -0.42587246834E+02  0.42921116708E+01 -0.71783112952E+01  0.43400736959E+02  0.00000000000E+00 0.  1.
         11    1    3    3    0    0  0.14142684107E+01  0.22759037185E+01  0.34125616698E+01  0.43388328251E+01  0.51100000000E-03 0. -1.
        -11    1    3    3    0    0  0.26371356502E+02 -0.63035561971E+01  0.75936940690E+01  0.28157547023E+02  0.51100000000E-03 0.  1.
        -12    1    3    3    0    0  0.14801621921E+02 -0.26445919216E+00 -0.38279444435E+01  0.15290883193E+02  0.00000000000E+00 0.  1.
</event>
<event>
 7    1  0.2834226E-010  0.4778727E+02  0.7816164E-02  0.1312668E+00
        -11   -1    0    0    0    0  0.00000000000E+00  0.00000000000E+00  0.45593999997E+02  0.45594000000E+02  0.51100000000E-03 0. -1.
         11   -1    0    0    0    0 -0.00000000000E+00 -0.00000000000E+00 -0.45593999997E+02  0.45594000000E+02  0.51100000000E-03 0.  1.
    9900012    2    1    2    0    0  0.37254115785E+02 -0.14499480466E+02  0.16897313750E+02  0.47787270874E+02  0.19999999224E+02 0.  0.
        -12    1    1    2    0    0 -0.37254115785E+02  0.14499480466E+02 -0.16897313750E+02  0.43400729126E+02  0.00000000000E+00 0.  1.
         11    1    3    3    0    0  0.21904517722E+02 -0.78689725407E+01  0.30682847968E+01  0.23476434937E+02  0.51100000000E-03 0.  1.
        -11    1    3    3    0    0  0.13917470886E+02 -0.73089576491E+01  0.15451854943E+02  0.22042610536E+02  0.51100000000E-03 0. -1.
         12    1    3    3    0    0  0.14321271759E+01  0.67844972416E+00 -0.16228259902E+01  0.22682254013E+01  0.00000000000E+00 0. -1.
</event>
<event>
 7    1  0.2834226E-010  0.4778727E+02  0.7816164E-02  0.1312668E+00
        -11   -1    0    0    0    0  0.00000000000E+00  0.00000000000E+00  0.45593999997E+02  0.45594000000E+02  0.51100000000E-03 0.  1.
         11   -1    0    0    0    0 -0.00000000000E+00 -0.00000000000E+00 -0.45593999997E+02  0.45594000000E+02  0.51100000000E-03 0. -1.
    9900012    2    1    2    0    0  0.36388424135E+02  0.15901747403E+02 -0.17511152429E+02  0.47787269121E+02  0.19999991229E+02 0.  0.
        -12    1    1    2    0    0 -0.36388424135E+02 -0.15901747403E+02  0.17511152429E+02  0.43400730879E+02  0.00000000000E+00 0.  1.
         11    1    3    3    0    0  0.36363168477E+02  0.16678913922E+02 -0.15634650862E+02  0.42952398060E+02  0.51100000000E-03 0. -1.
        -11    1    3    3    0    0 -0.16646031506E+01 -0.11348485028E+01 -0.22988237262E+01  0.30566935663E+01  0.51100000000E-03 0.  1.
         12    1    3    3    0    0  0.16898588084E+01  0.35768198413E+00  0.42232216001E+00  0.17781774942E+01  0.00000000000E+00 0. -1.
</event>
<event>
 7    1  0.2834226E-010  0.4778727E+02  0.7816164E-02  0.1312668E+00
        -11   -1    0    0    0    0  0.00000000000E+00  0.00000000000E+00  0.45593999997E+02  0.45594000000E+02  0.51100000000E-03 0.  1.
         11   -1    0    0    0    0 -0.00000000000E+00 -0.00000000000E+00 -0.45593999997E+02  0.45594000000E+02  0.51100000000E-03 0. -1.
    9900012    2    1    2    0    0 -0.16903657694E+02 -0.85883236008E+01 -0.39040111257E+02  0.47787271519E+02  0.20000002166E+02 0.  0.
        -12    1    1    2    0    0  0.16903657694E+02  0.85883236008E+01  0.39040111257E+02  0.43400728481E+02  0.00000000000E+00 0.  1.
         11    1    3    3    0    0 -0.13700349407E+01 -0.69576169846E+01 -0.21133878838E+02  0.22291843012E+02  0.51100000000E-03 0. -1.
        -11    1    3    3    0    0 -0.12373408975E+02 -0.51637006546E+01 -0.13353899746E+02  0.18923310831E+02  0.51100000000E-03 0.  1.
         12    1    3    3    0    0 -0.31602137784E+01  0.35329940384E+01 -0.45523326723E+01  0.65721176770E+01  0.00000000000E+00 0. -1.
</event>
<event>
 7    1  0.2834226E-010  0.4778727E+02  0.7816164E-02  0.1312668E+00
        -11   -1    0    0    0    0  0.00000000000E+00  0.00000000000E+00  0.45593999997E+02  0.45594000000E+02  0.51100000000E-03 0.  1.
         11   -1    0    0    0    0 -0.00000000000E+00 -0.00000000000E+00 -0.45593999997E+02  0.45594000000E+02  0.51100000000E-03 0. -1.
    9900012    2    1    2    0    0 -0.16302022088E+02 -0.28578647650E+02 -0.28304208186E+02  0.47787271588E+02  0.20000002479E+02 0.  0.
        -12    1    1    2    0    0  0.16302022088E+02  0.28578647650E+02  0.28304208186E+02  0.43400728412E+02  0.00000000000E+00 0.  1.
         11    1    3    3    0    0 -0.37290163005E+01 -0.18159430212E+02 -0.62147791177E+01  0.19552338682E+02  0.51100000000E-03 0. -1.
        -11    1    3    3    0    0 -0.67654902167E+01 -0.62578660319E+01 -0.17396943132E+02  0.19687213509E+02  0.51100000000E-03 0.  1.
         12    1    3    3    0    0 -0.58075155706E+01 -0.41613514053E+01 -0.46924859365E+01  0.85477193967E+01  0.00000000000E+00 0. -1.
</event>
<event>
 7    1  0.2834226E-010  0.4778727E+02  0.7816164E-02  0.1312668E+00
        -11   -1    0    0    0    0  0.00000000000E+00  0.00000000000E+00  0.45593999997E+02  0.45594000000E+02  0.51100000000E-03 0.  1.
         11   -1    0    0    0    0 -0.00000000000E+00 -0.00000000000E+00 -0.45593999997E+02  0.45594000000E+02  0.51100000000E-03 0. -1.
    9900012    2    1    2    0    0  0.28113012678E+02 -0.77622306125E+01 -0.32140777083E+02  0.47787271234E+02  0.20000000865E+02 0.  0.
        -12    1    1    2    0    0 -0.28113012678E+02  0.77622306125E+01  0.32140777083E+02  0.43400728766E+02  0.00000000000E+00 0.  1.
         11    1    3    3    0    0  0.38415102414E+01 -0.16167582933E+01 -0.80341288585E+01  0.90508748246E+01  0.51100000000E-03 0. -1.
        -11    1    3    3    0    0  0.68641345667E+00  0.38596809175E+01 -0.67012749122E+01  0.77637224273E+01  0.51100000000E-03 0.  1.
        -12    1    3    3    0    0  0.23585088980E+02 -0.10005153237E+02 -0.17405373312E+02  0.30972673982E+02  0.00000000000E+00 0.  1.
</event>
<event>
 7    1  0.2834226E-010  0.4778727E+02  0.7816164E-02  0.1312668E+00
        -11   -1    0    0    0    0  0.00000000000E+00  0.00000000000E+00  0.45593999997E+02  0.45594000000E+02  0.51100000000E-03 0.  1.
         11   -1    0    0    0    0 -0.00000000000E+00 -0.00000000000E+00 -0.45593999997E+02  0.45594000000E+02  0.51100000000E-03 0. -1.
    9900012    2    1    2    0    0  0.13495283267E+02 -0.41051059601E+02 -0.40387200804E+01  0.47787269307E+02  0.19999992078E+02 0.  0.
        -12    1    1    2    0    0 -0.13495283267E+02  0.41051059601E+02  0.40387200804E+01  0.43400730693E+02  0.00000000000E+00 0.  1.
         11    1    3    3    0    0  0.19175338415E+01 -0.24489591228E+02 -0.24439464449E+01  0.24685823645E+02  0.51100000000E-03 0. -1.
        -11    1    3    3    0    0  0.12390912421E+02 -0.95670745477E+01 -0.29517998152E+01  0.15930371887E+02  0.51100000000E-03 0.  1.
        -12    1    3    3    0    0 -0.81316299571E+00 -0.69943938250E+01  0.13570261797E+01  0.71710737752E+01  0.00000000000E+00 0.  1.
</event>
<event>
 7    1  0.2834226E-010  0.4778727E+02  0.7816164E-02  0.1312668E+00
        -11   -1    0    0    0    0  0.00000000000E+00  0.00000000000E+00  0.45593999997E+02  0.45594000000E+02  0.51100000000E-03 0.  1.
         11   -1    0    0    0    0 -0.00000000000E+00 -0.00000000000E+00 -0.45593999997E+02  0.45594000000E+02  0.51100000000E-03 0. -1.
    9900012    2    1    2    0    0 -0.29620747051E+02  0.31580430442E+02  0.29850779574E+01  0.47787274969E+02  0.20000017894E+02 0.  0.
        -12    1    1    2    0    0  0.29620747051E+02 -0.31580430442E+02 -0.29850779574E+01  0.43400725031E+02  0.00000000000E+00 0.  1.
         11    1    3    3    0    0 -0.15948101072E+02  0.12555434952E+02 -0.53804923645E+01  0.20998346911E+02  0.51100000000E-03 0. -1.
        -11    1    3    3    0    0 -0.82631199597E+01  0.64120579376E+01  0.78105545551E+01  0.13053673858E+02  0.51100000000E-03 0.  1.
         12    1    3    3    0    0 -0.54095260199E+01  0.12612937552E+02  0.55501576682E+00  0.13735254201E+02  0.00000000000E+00 0. -1.
</event>
<event>
 7    1  0.2834226E-010  0.4778727E+02  0.7816164E-02  0.1312668E+00
        -11   -1    0    0    0    0  0.00000000000E+00  0.00000000000E+00  0.45593999997E+02  0.45594000000E+02  0.51100000000E-03 0.  1.
         11   -1    0    0    0    0 -0.00000000000E+00 -0.00000000000E+00 -0.45593999997E+02  0.45594000000E+02  0.51100000000E-03 0. -1.
    9900012    2    1    2    0    0  0.13297774952E+02  0.41028069579E+02  0.48466351222E+01  0.47787272079E+02  0.20000004716E+02 0.  0.
        -12    1    1    2    0    0 -0.13297774952E+02 -0.41028069579E+02 -0.48466351222E+01  0.43400727921E+02  0.00000000000E+00 0.  1.
         11    1    3    3    0    0  0.86295083610E+01  0.15439156645E+02  0.11201471527E+02  0.20935829029E+02  0.51100000000E-03 0. -1.
        -11    1    3    3    0    0  0.17723545829E+01  0.15181349697E+02 -0.35955838472E+01  0.15701682803E+02  0.51100000000E-03 0.  1.
         12    1    3    3    0    0  0.28959120081E+01  0.10407563237E+02 -0.27592525580E+01  0.11149760247E+02  0.00000000000E+00 0. -1.
</event>
<event>
 7    1  0.2834226E-010  0.4778727E+02  0.7816164E-02  0.1312668E+00
        -11   -1    0    0    0    0  0.00000000000E+00  0.00000000000E+00  0.45593999997E+02  0.45594000000E+02  0.51100000000E-03 0. -1.
         11   -1    0    0    0    0 -0.00000000000E+00 -0.00000000000E+00 -0.45593999997E+02  0.45594000000E+02  0.51100000000E-03 0.  1.
    9900012    2    1    2    0    0 -0.13678066196E+02  0.40651013073E+02  0.66354342040E+01  0.47787270216E+02  0.19999996224E+02 0.  0.
        -12    1    1    2    0    0  0.13678066196E+02 -0.40651013073E+02 -0.66354342040E+01  0.43400729784E+02  0.00000000000E+00 0.  1.
         11    1    3    3    0    0 -0.16865141386E+01  0.25320499693E+02  0.63673152659E+01  0.26163232572E+02  0.51100000000E-03 0. -1.
        -11    1    3    3    0    0 -0.66288890105E+01  0.18110834493E+01 -0.13062721829E+01  0.69948938556E+01  0.51100000000E-03 0.  1.
        -12    1    3    3    0    0 -0.53626630470E+01  0.13519429930E+02  0.15743911210E+01  0.14629143789E+02  0.00000000000E+00 0.  1.
</event>
<event>
 7    1  0.2834226E-010  0.4778726E+02  0.7816164E-02  0.1312668E+00
        -11   -1    0    0    0    0  0.00000000000E+00  0.00000000000E+00  0.45593999997E+02  0.45594000000E+02  0.51100000000E-03 0. -1.
         11   -1    0    0    0    0 -0.00000000000E+00 -0.00000000000E+00 -0.45593999997E+02  0.45594000000E+02  0.51100000000E-03 0.  1.
    9900012    2    1    2    0    0 -0.36242889844E+02  0.20880974988E+02  0.11578518381E+02  0.47787259584E+02  0.19999947749E+02 0.  0.
        -12    1    1    2    0    0  0.36242889844E+02 -0.20880974988E+02 -0.11578518381E+02  0.43400740416E+02  0.00000000000E+00 0.  1.
         11    1    3    3    0    0 -0.25569187368E+02  0.21016814155E+02  0.73128249499E+01  0.33896419116E+02  0.51100000000E-03 0. -1.
        -11    1    3    3    0    0 -0.30246392064E+01 -0.11719956813E+01  0.51863468365E+01  0.61172060596E+01  0.51100000000E-03 0.  1.
         12    1    3    3    0    0 -0.76490632696E+01  0.10361565143E+01 -0.92065340528E+00  0.77736344085E+01  0.00000000000E+00 0. -1.
</event>
<event>
 7    1  0.2834226E-010  0.4778727E+02  0.7816164E-02  0.1312668E+00
        -11   -1    0    0    0    0  0.00000000000E+00  0.00000000000E+00  0.45593999997E+02  0.45594000000E+02  0.51100000000E-03 0.  1.
         11   -1    0    0    0    0 -0.00000000000E+00 -0.00000000000E+00 -0.45593999997E+02  0.45594000000E+02  0.51100000000E-03 0. -1.
    9900012    2    1    2    0    0 -0.11426616621E+02 -0.68870949259E+01 -0.41299195449E+02  0.47787272026E+02  0.20000004477E+02 0.  0.
        -12    1    1    2    0    0  0.11426616621E+02  0.68870949259E+01  0.41299195449E+02  0.43400727974E+02  0.00000000000E+00 0.  1.
         11    1    3    3    0    0 -0.15110127104E+02 -0.59340548853E+00 -0.23162109737E+02  0.27661370156E+02  0.51100000000E-03 0. -1.
        -11    1    3    3    0    0  0.42141138563E+01 -0.26473803267E+01 -0.11586711540E+02  0.12610284008E+02  0.51100000000E-03 0.  1.
         12    1    3    3    0    0 -0.53060337402E+00 -0.36463091106E+01 -0.65503741712E+01  0.75156178624E+01  0.00000000000E+00 0. -1.
</event>
<event>
 7    1  0.2834226E-010  0.4778728E+02  0.7816164E-02  0.1312668E+00
        -11   -1    0    0    0    0  0.00000000000E+00  0.00000000000E+00  0.45593999997E+02  0.45594000000E+02  0.51100000000E-03 0.  1.
         11   -1    0    0    0    0 -0.00000000000E+00 -0.00000000000E+00 -0.45593999997E+02  0.45594000000E+02  0.51100000000E-03 0. -1.
    9900012    2    1    2    0    0  0.16117118350E+01  0.40107353352E+02 -0.16505317462E+02  0.47787275208E+02  0.20000018985E+02 0.  0.
        -12    1    1    2    0    0 -0.16117118350E+01 -0.40107353352E+02  0.16505317462E+02  0.43400724792E+02  0.00000000000E+00 0.  1.
         11    1    3    3    0    0 -0.28227939829E+01  0.76024055063E+01 -0.10380899113E+02  0.13172995180E+02  0.51100000000E-03 0.  1.
        -11    1    3    3    0    0 -0.31081444670E+00  0.61647414972E+01 -0.47965312162E+01  0.78171193746E+01  0.51100000000E-03 0. -1.
         12    1    3    3    0    0  0.47453202646E+01  0.26340206348E+02 -0.13278871327E+01  0.26797160654E+02  0.00000000000E+00 0. -1.
</event>
<event>
 7    1  0.2834226E-010  0.4778727E+02  0.7816164E-02  0.1312668E+00
        -11   -1    0    0    0    0  0.00000000000E+00  0.00000000000E+00  0.45593999997E+02  0.45594000000E+02  0.51100000000E-03 0.  1.
         11   -1    0    0    0    0 -0.00000000000E+00 -0.00000000000E+00 -0.45593999997E+02  0.45594000000E+02  0.51100000000E-03 0. -1.
    9900012    2    1    2    0    0  0.23658959144E+02 -0.67712841671E+01 -0.35749494986E+02  0.47787273868E+02  0.20000012874E+02 0.  0.
        -12    1    1    2    0    0 -0.23658959144E+02  0.67712841671E+01  0.35749494986E+02  0.43400726132E+02  0.00000000000E+00 0.  1.
         11    1    3    3    0    0  0.14879369052E+02  0.15875082306E+00 -0.88418219497E+01  0.17308917958E+02  0.51100000000E-03 0. -1.
        -11    1    3    3    0    0  0.72656201869E+01 -0.82196722345E+01 -0.26136074924E+02  0.28345134698E+02  0.51100000000E-03 0.  1.
        -12    1    3    3    0    0  0.15139699049E+01  0.12896372443E+01 -0.77159811196E+00  0.21332212125E+01  0.00000000000E+00 0.  1.
</event>
<event>
 7    1  0.2834226E-010  0.4778727E+02  0.7816164E-02  0.1312668E+00
        -11   -1    0    0    0    0  0.00000000000E+00  0.00000000000E+00  0.45593999997E+02  0.45594000000E+02  0.51100000000E-03 0.  1.
         11   -1    0    0    0    0 -0.00000000000E+00 -0.00000000000E+00 -0.45593999997E+02  0.45594000000E+02  0.51100000000E-03 0. -1.
    9900012    2    1    2    0    0  0.28721216606E+01  0.21960713297E+02 -0.37324270148E+02  0.47787272432E+02  0.20000006328E+02 0.  0.
        -12    1    1    2    0    0 -0.28721216606E+01 -0.21960713297E+02  0.37324270148E+02  0.43400727568E+02  0.00000000000E+00 0.  1.
         11    1    3    3    0    0 -0.27508522367E+01  0.42274210868E+01 -0.11782461159E+02  0.12816577870E+02  0.51100000000E-03 0. -1.
        -11    1    3    3    0    0  0.10047399072E+02  0.69720968302E+01 -0.13834662996E+02  0.18465055179E+02  0.51100000000E-03 0.  1.
        -12    1    3    3    0    0 -0.44244251745E+01  0.10761195380E+02 -0.11707145993E+02  0.16505639382E+02  0.00000000000E+00 0.  1.
</event>
<event>
 7    1  0.2834226E-010  0.4778727E+02  0.7816164E-02  0.1312668E+00
        -11   -1    0    0    0    0  0.00000000000E+00  0.00000000000E+00  0.45593999997E+02  0.45594000000E+02  0.51100000000E-03 0.  1.
         11   -1    0    0    0    0 -0.00000000000E+00 -0.00000000000E+00 -0.45593999997E+02  0.45594000000E+02  0.51100000000E-03 0. -1.
    9900012    2    1    2    0    0  0.71215790771E+01  0.11285045201E+02 -0.41298352410E+02  0.47787273676E+02  0.20000011996E+02 0.  0.
        -12    1    1    2    0    0 -0.71215790771E+01 -0.11285045201E+02  0.41298352410E+02  0.43400726324E+02  0.00000000000E+00 0.  1.
         11    1    3    3    0    0 -0.17676989710E+00  0.80209073045E+01 -0.21758976142E+02  0.23190930222E+02  0.51100000000E-03 0. -1.
        -11    1    3    3    0    0  0.52273287366E+01 -0.34659163506E+01 -0.37488581342E+01  0.73069473409E+01  0.51100000000E-03 0.  1.
        -12    1    3    3    0    0  0.20710202376E+01  0.67300542475E+01 -0.15790518134E+02  0.17289396112E+02  0.00000000000E+00 0.  1.
</event>
<event>
 7    1  0.2834226E-010  0.4778727E+02  0.7816164E-02  0.1312668E+00
        -11   -1    0    0    0    0  0.00000000000E+00  0.00000000000E+00  0.45593999997E+02  0.45594000000E+02  0.51100000000E-03 0.  1.
         11   -1    0    0    0    0 -0.00000000000E+00 -0.00000000000E+00 -0.45593999997E+02  0.45594000000E+02  0.51100000000E-03 0. -1.
    9900012    2    1    2    0    0  0.39366721995E+02 -0.47690611034E+01 -0.17639186593E+02  0.47787266733E+02  0.19999980344E+02 0.  0.
        -12    1    1    2    0    0 -0.39366721995E+02  0.47690611034E+01  0.17639186593E+02  0.43400733267E+02  0.00000000000E+00 0.  1.
         11    1    3    3    0    0 -0.66215545957E+00 -0.92204975998E+00 -0.29544324339E+01  0.31650113554E+01  0.51100000000E-03 0. -1.
        -11    1    3    3    0    0  0.66587001431E+01 -0.38878050507E+01  0.95381661918E+00  0.77693681925E+01  0.51100000000E-03 0.  1.
         12    1    3    3    0    0  0.33370177311E+02  0.40793707263E-01 -0.15638570778E+02  0.36852887185E+02  0.00000000000E+00 0. -1.
</event>
<event>
 7    1  0.2834226E-010  0.4778727E+02  0.7816164E-02  0.1312668E+00
        -11   -1    0    0    0    0  0.00000000000E+00  0.00000000000E+00  0.45593999997E+02  0.45594000000E+02  0.51100000000E-03 0.  1.
         11   -1    0    0    0    0 -0.00000000000E+00 -0.00000000000E+00 -0.45593999997E+02  0.45594000000E+02  0.51100000000E-03 0. -1.
    9900012    2    1    2    0    0  0.57999248210E+00  0.23735732363E+02 -0.36330452951E+02  0.47787271968E+02  0.20000004210E+02 0.  0.
        -12    1    1    2    0    0 -0.57999248210E+00 -0.23735732363E+02  0.36330452951E+02  0.43400728032E+02  0.00000000000E+00 0.  1.
         11    1    3    3    0    0  0.50130311715E+01  0.14479992731E+02 -0.20959379103E+02  0.25963363489E+02  0.51100000000E-03 0. -1.
        -11    1    3    3    0    0 -0.78102675824E+01  0.83247940050E+01 -0.89346081308E+01  0.14495851049E+02  0.51100000000E-03 0.  1.
        -12    1    3    3    0    0  0.33772288930E+01  0.93094562649E+00 -0.64364657175E+01  0.73280574294E+01  0.00000000000E+00 0.  1.
</event>
<event>
 7    1  0.2834226E-010  0.4778727E+02  0.7816164E-02  0.1312668E+00
        -11   -1    0    0    0    0  0.00000000000E+00  0.00000000000E+00  0.45593999997E+02  0.45594000000E+02  0.51100000000E-03 0. -1.
         11   -1    0    0    0    0 -0.00000000000E+00 -0.00000000000E+00 -0.45593999997E+02  0.45594000000E+02  0.51100000000E-03 0.  1.
    9900012    2    1    2    0    0  0.14535144132E+02  0.10443453096E+02 -0.39538425120E+02  0.47787272028E+02  0.20000004487E+02 0.  0.
        -12    1    1    2    0    0 -0.14535144132E+02 -0.10443453096E+02  0.39538425120E+02  0.43400727972E+02  0.00000000000E+00 0.  1.
         11    1    3    3    0    0  0.74029255892E+01 -0.12326766400E+01 -0.13381039950E+02  0.15341936950E+02  0.51100000000E-03 0. -1.
        -11    1    3    3    0    0  0.10516305953E+01  0.94503733958E+01 -0.23670611969E+02  0.25509083783E+02  0.51100000000E-03 0.  1.
        -12    1    3    3    0    0  0.60805879472E+01  0.22257563407E+01 -0.24867732006E+01  0.69362512947E+01  0.00000000000E+00 0.  1.
</event>
<event>
 7    1  0.2834226E-010  0.4778727E+02  0.7816164E-02  0.1312668E+00
        -11   -1    0    0    0    0  0.00000000000E+00  0.00000000000E+00  0.45593999997E+02  0.45594000000E+02  0.51100000000E-03 0.  1.
         11   -1    0    0    0    0 -0.00000000000E+00 -0.00000000000E+00 -0.45593999997E+02  0.45594000000E+02  0.51100000000E-03 0. -1.
    9900012    2    1    2    0    0  0.19814189335E+02  0.28513031118E+02 -0.26038970711E+02  0.47787273759E+02  0.20000012376E+02 0.  0.
        -12    1    1    2    0    0 -0.19814189335E+02 -0.28513031118E+02  0.26038970711E+02  0.43400726241E+02  0.00000000000E+00 0.  1.
         11    1    3    3    0    0  0.10550403704E+02  0.83871732258E+01 -0.19162410875E+02  0.23427626509E+02  0.51100000000E-03 0. -1.
        -11    1    3    3    0    0  0.82690145773E+00  0.97477117002E+01 -0.12997276927E+01  0.98686849046E+01  0.51100000000E-03 0.  1.
         12    1    3    3    0    0  0.84368841726E+01  0.10378146192E+02 -0.55768321441E+01  0.14490962345E+02  0.00000000000E+00 0. -1.
</event>
<event>
 7    1  0.2834226E-010  0.4778727E+02  0.7816164E-02  0.1312668E+00
        -11   -1    0    0    0    0  0.00000000000E+00  0.00000000000E+00  0.45593999997E+02  0.45594000000E+02  0.51100000000E-03 0.  1.
         11   -1    0    0    0    0 -0.00000000000E+00 -0.00000000000E+00 -0.45593999997E+02  0.45594000000E+02  0.51100000000E-03 0. -1.
    9900012    2    1    2    0    0 -0.66042305904E+01 -0.27753403898E+02 -0.32707123411E+02  0.47787271763E+02  0.20000003278E+02 0.  0.
        -12    1    1    2    0    0  0.66042305904E+01  0.27753403898E+02  0.32707123411E+02  0.43400728237E+02  0.00000000000E+00 0.  1.
         11    1    3    3    0    0  0.53638238016E+01 -0.49319983324E+01 -0.11255821759E+02  0.13408532248E+02  0.51100000000E-03 0. -1.
        -11    1    3    3    0    0 -0.65623934887E+01 -0.10871480834E+02 -0.58054783200E+01  0.13962724756E+02  0.51100000000E-03 0.  1.
         12    1    3    3    0    0 -0.54056609032E+01 -0.11949924732E+02 -0.15645823332E+02  0.20416014759E+02  0.00000000000E+00 0. -1.
</event>
<event>
 7    1  0.2834226E-010  0.4778727E+02  0.7816164E-02  0.1312668E+00
        -11   -1    0    0    0    0  0.00000000000E+00  0.00000000000E+00  0.45593999997E+02  0.45594000000E+02  0.51100000000E-03 0.  1.
         11   -1    0    0    0    0 -0.00000000000E+00 -0.00000000000E+00 -0.45593999997E+02  0.45594000000E+02  0.51100000000E-03 0. -1.
    9900012    2    1    2    0    0  0.58082768675E+01  0.34769135720E+02 -0.25317867286E+02  0.47787270942E+02  0.19999999534E+02 0.  0.
        -12    1    1    2    0    0 -0.58082768675E+01 -0.34769135720E+02  0.25317867286E+02  0.43400729058E+02  0.00000000000E+00 0.  1.
         11    1    3    3    0    0  0.73018605268E+01  0.17774142182E+02 -0.16295785018E+02  0.25195037350E+02  0.51100000000E-03 0. -1.
        -11    1    3    3    0    0 -0.59208898587E+01  0.13893336755E+02 -0.52027515657E+01  0.15973426902E+02  0.51100000000E-03 0.  1.
        -12    1    3    3    0    0  0.44273061994E+01  0.31016567835E+01 -0.38193307020E+01  0.66188066898E+01  0.00000000000E+00 0.  1.
</event>
<event>
 7    1  0.2834226E-010  0.4778727E+02  0.7816164E-02  0.1312668E+00
        -11   -1    0    0    0    0  0.00000000000E+00  0.00000000000E+00  0.45593999997E+02  0.45594000000E+02  0.51100000000E-03 0.  1.
         11   -1    0    0    0    0 -0.00000000000E+00 -0.00000000000E+00 -0.45593999997E+02  0.45594000000E+02  0.51100000000E-03 0. -1.
    9900012    2    1    2    0    0  0.74224206763E+01 -0.39069632598E+02 -0.17380872695E+02  0.47787271254E+02  0.20000000955E+02 0.  0.
        -12    1    1    2    0    0 -0.74224206763E+01  0.39069632598E+02  0.17380872695E+02  0.43400728746E+02  0.00000000000E+00 0.  1.
         11    1    3    3    0    0  0.70013843436E+01 -0.81174669961E+01 -0.96983274424E+01  0.14455801901E+02  0.51100000000E-03 0.  1.
        -11    1    3    3    0    0  0.21917058555E+01 -0.10761643432E+02 -0.70557955639E+01  0.13053765557E+02  0.51100000000E-03 0. -1.
         12    1    3    3    0    0 -0.17706695228E+01 -0.20190522170E+02 -0.62674968828E+00  0.20277703796E+02  0.00000000000E+00 0. -1.
</event>
<event>
 7    1  0.2834226E-010  0.4778730E+02  0.7816164E-02  0.1312668E+00
        -11   -1    0    0    0    0  0.00000000000E+00  0.00000000000E+00  0.45593999997E+02  0.45594000000E+02  0.51100000000E-03 0.  1.
         11   -1    0    0    0    0 -0.00000000000E+00 -0.00000000000E+00 -0.45593999997E+02  0.45594000000E+02  0.51100000000E-03 0. -1.
    9900012    2    1    2    0    0  0.31631302794E+02  0.70769339281E+01 -0.28861709584E+02  0.47787301960E+02  0.20000140954E+02 0.  0.
        -12    1    1    2    0    0 -0.31631302794E+02 -0.70769339281E+01  0.28861709584E+02  0.43400698040E+02  0.00000000000E+00 0.  1.
         11    1    3    3    0    0  0.47376373676E+01 -0.54672823272E+01 -0.73280565440E+01  0.10297416999E+02  0.51100000000E-03 0. -1.
        -11    1    3    3    0    0  0.13041839085E+02  0.76780511206E+01 -0.15359285927E+02  0.21562692322E+02  0.51100000000E-03 0.  1.
         12    1    3    3    0    0  0.13851826341E+02  0.48661651348E+01 -0.61743671134E+01  0.15927192639E+02  0.00000000000E+00 0. -1.
</event>
<event>
 7    1  0.2834226E-010  0.4778727E+02  0.7816164E-02  0.1312668E+00
        -11   -1    0    0    0    0  0.00000000000E+00  0.00000000000E+00  0.45593999997E+02  0.45594000000E+02  0.51100000000E-03 0.  1.
         11   -1    0    0    0    0 -0.00000000000E+00 -0.00000000000E+00 -0.45593999997E+02  0.45594000000E+02  0.51100000000E-03 0. -1.
    9900012    2    1    2    0    0  0.27025690408E+01  0.14897293871E+02 -0.40674193439E+02  0.47787271250E+02  0.20000000939E+02 0.  0.
        -12    1    1    2    0    0 -0.27025690408E+01 -0.14897293871E+02  0.40674193439E+02  0.43400728750E+02  0.00000000000E+00 0.  1.
         11    1    3    3    0    0  0.64492041362E+01  0.80467472839E+01 -0.28559830134E+02  0.30364556203E+02  0.51100000000E-03 0. -1.
        -11    1    3    3    0    0 -0.17677466543E+01  0.87973958769E+01 -0.62525308687E+01  0.10936784033E+02  0.51100000000E-03 0.  1.
        -12    1    3    3    0    0 -0.19788884411E+01 -0.19468492902E+01 -0.58618324365E+01  0.64859310152E+01  0.00000000000E+00 0.  1.
</event>
<event>
 7    1  0.2834226E-010  0.4778727E+02  0.7816164E-02  0.1312668E+00
        -11   -1    0    0    0    0  0.00000000000E+00  0.00000000000E+00  0.45593999997E+02  0.45594000000E+02  0.51100000000E-03 0.  1.
         11   -1    0    0    0    0 -0.00000000000E+00 -0.00000000000E+00 -0.45593999997E+02  0.45594000000E+02  0.51100000000E-03 0. -1.
    9900012    2    1    2    0    0 -0.32579796571E+02 -0.18378338545E+02 -0.22009463173E+02  0.47787274874E+02  0.20000017460E+02 0.  0.
        -12    1    1    2    0    0  0.32579796571E+02  0.18378338545E+02  0.22009463173E+02  0.43400725126E+02  0.00000000000E+00 0.  1.
         11    1    3    3    0    0 -0.26075826952E+01 -0.45548195249E+01 -0.41510577695E+01  0.66915730051E+01  0.51100000000E-03 0. -1.
        -11    1    3    3    0    0 -0.20573178533E+02 -0.16376266073E+02 -0.86211864778E+01  0.27672416266E+02  0.51100000000E-03 0.  1.
        -12    1    3    3    0    0 -0.93990353428E+01  0.25527470526E+01 -0.92372189261E+01  0.13423285603E+02  0.00000000000E+00 0.  1.
</event>
<event>
 7    1  0.2834226E-010  0.4778727E+02  0.7816164E-02  0.1312668E+00
        -11   -1    0    0    0    0  0.00000000000E+00  0.00000000000E+00  0.45593999997E+02  0.45594000000E+02  0.51100000000E-03 0. -1.
         11   -1    0    0    0    0 -0.00000000000E+00 -0.00000000000E+00 -0.45593999997E+02  0.45594000000E+02  0.51100000000E-03 0.  1.
    9900012    2    1    2    0    0  0.90888294301E+01  0.21567098954E+01  0.42383546459E+02  0.47787271568E+02  0.20000002389E+02 0.  0.
        -12    1    1    2    0    0 -0.90888294301E+01 -0.21567098954E+01 -0.42383546459E+02  0.43400728432E+02  0.00000000000E+00 0.  1.
         11    1    3    3    0    0  0.21636009344E+01 -0.66444810224E+01  0.62315488217E+01  0.93628253235E+01  0.51100000000E-03 0. -1.
        -11    1    3    3    0    0  0.17207968562E+01  0.73040118234E+01  0.23283788931E+02  0.24463126492E+02  0.51100000000E-03 0.  1.
         12    1    3    3    0    0  0.52044316396E+01  0.14971790944E+01  0.12868208706E+02  0.13961319753E+02  0.00000000000E+00 0. -1.
</event>
<event>
 7    1  0.2834226E-010  0.4778728E+02  0.7816164E-02  0.1312668E+00
        -11   -1    0    0    0    0  0.00000000000E+00  0.00000000000E+00  0.45593999997E+02  0.45594000000E+02  0.51100000000E-03 0.  1.
         11   -1    0    0    0    0 -0.00000000000E+00 -0.00000000000E+00 -0.45593999997E+02  0.45594000000E+02  0.51100000000E-03 0. -1.
    9900012    2    1    2    0    0  0.14892404274E+02  0.26458873455E+02 -0.31012368898E+02  0.47787277491E+02  0.20000029394E+02 0.  0.
        -12    1    1    2    0    0 -0.14892404274E+02 -0.26458873455E+02  0.31012368898E+02  0.43400722509E+02  0.00000000000E+00 0.  1.
         11    1    3    3    0    0  0.91438814298E+01  0.24203234656E+01 -0.10877046461E+02  0.14414529935E+02  0.51100000000E-03 0. -1.
        -11    1    3    3    0    0  0.19793605108E+01  0.65653578859E+01 -0.58449382379E+00  0.68821090876E+01  0.51100000000E-03 0.  1.
         12    1    3    3    0    0  0.37691623330E+01  0.17473192104E+02 -0.19550828614E+02  0.26490638469E+02  0.00000000000E+00 0. -1.
</event>
<event>
 7    1  0.2834226E-010  0.4778728E+02  0.7816164E-02  0.1312668E+00
        -11   -1    0    0    0    0  0.00000000000E+00  0.00000000000E+00  0.45593999997E+02  0.45594000000E+02  0.51100000000E-03 0.  1.
         11   -1    0    0    0    0 -0.00000000000E+00 -0.00000000000E+00 -0.45593999997E+02  0.45594000000E+02  0.51100000000E-03 0. -1.
    9900012    2    1    2    0    0 -0.89585402851E+01  0.35398632579E+02 -0.23458565100E+02  0.47787275247E+02  0.20000019162E+02 0.  0.
        -12    1    1    2    0    0  0.89585402851E+01 -0.35398632579E+02  0.23458565100E+02  0.43400724753E+02  0.00000000000E+00 0.  1.
         11    1    3    3    0    0  0.11755655018E+01  0.10897701782E+02 -0.12921730759E+01  0.11036827891E+02  0.51100000000E-03 0. -1.
        -11    1    3    3    0    0 -0.12877828373E+02  0.20352321049E+02 -0.16413180886E+02  0.29145290233E+02  0.51100000000E-03 0.  1.
        -12    1    3    3    0    0  0.27437225864E+01  0.41486097486E+01 -0.57532111378E+01  0.76051571235E+01  0.00000000000E+00 0.  1.
</event>
<event>
 7    1  0.2834226E-010  0.4778727E+02  0.7816164E-02  0.1312668E+00
        -11   -1    0    0    0    0  0.00000000000E+00  0.00000000000E+00  0.45593999997E+02  0.45594000000E+02  0.51100000000E-03 0.  1.
         11   -1    0    0    0    0 -0.00000000000E+00 -0.00000000000E+00 -0.45593999997E+02  0.45594000000E+02  0.51100000000E-03 0. -1.
    9900012    2    1    2    0    0  0.19488779135E+02 -0.37811196711E+02 -0.86095457103E+01  0.47787269750E+02  0.19999994098E+02 0.  0.
        -12    1    1    2    0    0 -0.19488779135E+02  0.37811196711E+02  0.86095457103E+01  0.43400730250E+02  0.00000000000E+00 0.  1.
         11    1    3    3    0    0  0.12524998334E+02 -0.24277592426E+02 -0.65181742224E+01  0.28084936759E+02  0.51100000000E-03 0. -1.
        -11    1    3    3    0    0 -0.20655691198E+01  0.10855080885E+01  0.30493770429E+00  0.23532723734E+01  0.51100000000E-03 0.  1.
        -12    1    3    3    0    0  0.90293499202E+01 -0.14619112373E+02 -0.23963091922E+01  0.17349060618E+02  0.00000000000E+00 0.  1.
</event>
<event>
 7    1  0.2834226E-010  0.4778727E+02  0.7816164E-02  0.1312668E+00
        -11   -1    0    0    0    0  0.00000000000E+00  0.00000000000E+00  0.45593999997E+02  0.45594000000E+02  0.51100000000E-03 0.  1.
         11   -1    0    0    0    0 -0.00000000000E+00 -0.00000000000E+00 -0.45593999997E+02  0.45594000000E+02  0.51100000000E-03 0. -1.
    9900012    2    1    2    0    0  0.97442419002E+01  0.23718543104E+02 -0.35015771508E+02  0.47787265081E+02  0.19999972812E+02 0.  0.
        -12    1    1    2    0    0 -0.97442419002E+01 -0.23718543104E+02  0.35015771508E+02  0.43400734919E+02  0.00000000000E+00 0.  1.
         11    1    3    3    0    0  0.11021667173E+02  0.33673867678E+01 -0.15452855014E+02  0.19277115170E+02  0.51100000000E-03 0. -1.
        -11    1    3    3    0    0 -0.66114484426E+00  0.42171671086E+00 -0.97036027273E+00  0.12476204588E+01  0.51100000000E-03 0.  1.
         12    1    3    3    0    0 -0.61628042810E+00  0.19929439625E+02 -0.18592556221E+02  0.27262529453E+02  0.00000000000E+00 0. -1.
</event>
<event>
 7    1  0.2834226E-010  0.4778727E+02  0.7816164E-02  0.1312668E+00
        -11   -1    0    0    0    0  0.00000000000E+00  0.00000000000E+00  0.45593999997E+02  0.45594000000E+02  0.51100000000E-03 0.  1.
         11   -1    0    0    0    0 -0.00000000000E+00 -0.00000000000E+00 -0.45593999997E+02  0.45594000000E+02  0.51100000000E-03 0. -1.
    9900012    2    1    2    0    0 -0.42775732875E+02  0.13690236571E+01  0.72101182745E+01  0.47787270118E+02  0.19999995775E+02 0.  0.
        -12    1    1    2    0    0  0.42775732875E+02 -0.13690236571E+01 -0.72101182745E+01  0.43400729882E+02  0.00000000000E+00 0.  1.
         11    1    3    3    0    0 -0.26236247560E+02 -0.66106925928E+01  0.24399492300E+01  0.27166068819E+02  0.51100000000E-03 0. -1.
        -11    1    3    3    0    0 -0.22093059956E+01  0.48847000566E+01  0.70366863979E+00  0.54070766076E+01  0.51100000000E-03 0.  1.
         12    1    3    3    0    0 -0.14330179320E+02  0.30950161933E+01  0.40665004047E+01  0.15214124691E+02  0.00000000000E+00 0. -1.
</event>
<event>
 7    1  0.2834226E-010  0.4778727E+02  0.7816164E-02  0.1312668E+00
        -11   -1    0    0    0    0  0.00000000000E+00  0.00000000000E+00  0.45593999997E+02  0.45594000000E+02  0.51100000000E-03 0.  1.
         11   -1    0    0    0    0 -0.00000000000E+00 -0.00000000000E+00 -0.45593999997E+02  0.45594000000E+02  0.51100000000E-03 0. -1.
    9900012    2    1    2    0    0 -0.43384022844E+02  0.87365003795E+00 -0.82881852552E+00  0.47787266796E+02  0.19999980631E+02 0.  0.
        -12    1    1    2    0    0  0.43384022844E+02 -0.87365003795E+00  0.82881852552E+00  0.43400733204E+02  0.00000000000E+00 0.  1.
         11    1    3    3    0    0 -0.23274385177E+02 -0.24371067181E+01 -0.60936221557E+01  0.24181991766E+02  0.51100000000E-03 0. -1.
        -11    1    3    3    0    0 -0.19551559815E+02  0.57837083211E+01  0.53119925966E+01  0.21069694795E+02  0.51100000000E-03 0.  1.
         12    1    3    3    0    0 -0.55807785136E+00 -0.24729515651E+01 -0.47188966372E-01  0.25355802354E+01  0.00000000000E+00 0. -1.
</event>
<event>
 7    1  0.2834226E-010  0.4778727E+02  0.7816164E-02  0.1312668E+00
        -11   -1    0    0    0    0  0.00000000000E+00  0.00000000000E+00  0.45593999997E+02  0.45594000000E+02  0.51100000000E-03 0. -1.
         11   -1    0    0    0    0 -0.00000000000E+00 -0.00000000000E+00 -0.45593999997E+02  0.45594000000E+02  0.51100000000E-03 0.  1.
    9900012    2    1    2    0    0  0.10371687907E+02 -0.61362983076E+01  0.41694090754E+02  0.47787271080E+02  0.20000000162E+02 0.  0.
        -12    1    1    2    0    0 -0.10371687907E+02  0.61362983076E+01 -0.41694090754E+02  0.43400728920E+02  0.00000000000E+00 0.  1.
         11    1    3    3    0    0  0.44444304081E+01 -0.52308796441E+01  0.31423730638E+02  0.32164668675E+02  0.51100000000E-03 0. -1.
        -11    1    3    3    0    0 -0.10681559578E+01 -0.13729612766E+01 -0.12461695386E+01  0.21398407879E+01  0.51100000000E-03 0.  1.
        -12    1    3    3    0    0  0.69954134568E+01  0.46754261313E+00  0.11516529655E+02  0.13482761617E+02  0.00000000000E+00 0.  1.
</event>
<event>
 7    1  0.2834226E-010  0.4778728E+02  0.7816164E-02  0.1312668E+00
        -11   -1    0    0    0    0  0.00000000000E+00  0.00000000000E+00  0.45593999997E+02  0.45594000000E+02  0.51100000000E-03 0.  1.
         11   -1    0    0    0    0 -0.00000000000E+00 -0.00000000000E+00 -0.45593999997E+02  0.45594000000E+02  0.51100000000E-03 0. -1.
    9900012    2    1    2    0    0  0.99845617354E+01  0.11096300349E+02 -0.40752953196E+02  0.47787279400E+02  0.20000038094E+02 0.  0.
        -12    1    1    2    0    0 -0.99845617354E+01 -0.11096300349E+02  0.40752953196E+02  0.43400720600E+02  0.00000000000E+00 0.  1.
         11    1    3    3    0    0 -0.18177562416E+01  0.57836859568E+01 -0.28647411230E+02  0.29281895967E+02  0.51100000000E-03 0. -1.
        -11    1    3    3    0    0  0.68007850427E+01  0.17440731202E+01 -0.32736426798E+01  0.77465608435E+01  0.51100000000E-03 0.  1.
        -12    1    3    3    0    0  0.50015329343E+01  0.35685412717E+01 -0.88318992859E+01  0.10758822589E+02  0.00000000000E+00 0.  1.
</event>
<event>
 7    1  0.2834226E-010  0.4778727E+02  0.7816164E-02  0.1312668E+00
        -11   -1    0    0    0    0  0.00000000000E+00  0.00000000000E+00  0.45593999997E+02  0.45594000000E+02  0.51100000000E-03 0.  1.
         11   -1    0    0    0    0 -0.00000000000E+00 -0.00000000000E+00 -0.45593999997E+02  0.45594000000E+02  0.51100000000E-03 0. -1.
    9900012    2    1    2    0    0 -0.33546801437E+01  0.32164285177E+02 -0.28945263071E+02  0.47787269890E+02  0.19999994737E+02 0.  0.
        -12    1    1    2    0    0  0.33546801437E+01 -0.32164285177E+02  0.28945263071E+02  0.43400730110E+02  0.00000000000E+00 0.  1.
         11    1    3    3    0    0 -0.78621344991E+00  0.14875832205E+02 -0.10101010782E+02  0.17998303656E+02  0.51100000000E-03 0. -1.
        -11    1    3    3    0    0  0.20182389191E+01 -0.11184281253E+01  0.83645399875E+00  0.24543482555E+01  0.51100000000E-03 0.  1.
        -12    1    3    3    0    0 -0.45867056129E+01  0.18406881097E+02 -0.19680706287E+02  0.27334617979E+02  0.00000000000E+00 0.  1.
</event>
<event>
 7    1  0.2834226E-010  0.4778728E+02  0.7816164E-02  0.1312668E+00
        -11   -1    0    0    0    0  0.00000000000E+00  0.00000000000E+00  0.45593999997E+02  0.45594000000E+02  0.51100000000E-03 0.  1.
         11   -1    0    0    0    0 -0.00000000000E+00 -0.00000000000E+00 -0.45593999997E+02  0.45594000000E+02  0.51100000000E-03 0. -1.
    9900012    2    1    2    0    0 -0.47272405418E+01  0.19429152293E+02 -0.38519913543E+02  0.47787279945E+02  0.20000040579E+02 0.  0.
        -12    1    1    2    0    0  0.47272405418E+01 -0.19429152293E+02  0.38519913543E+02  0.43400720055E+02  0.00000000000E+00 0.  1.
         11    1    3    3    0    0 -0.51905665772E+01  0.12349645482E+02 -0.88741291437E+01  0.16068786303E+02  0.51100000000E-03 0. -1.
        -11    1    3    3    0    0  0.22517414962E+01  0.28539086237E+01 -0.24723113039E+02  0.24988946612E+02  0.51100000000E-03 0.  1.
        -12    1    3    3    0    0 -0.17884154608E+01  0.42255981876E+01 -0.49226713606E+01  0.67295470299E+01  0.00000000000E+00 0.  1.
</event>
<event>
 7    1  0.2834226E-010  0.4778727E+02  0.7816164E-02  0.1312668E+00
        -11   -1    0    0    0    0  0.00000000000E+00  0.00000000000E+00  0.45593999997E+02  0.45594000000E+02  0.51100000000E-03 0.  1.
         11   -1    0    0    0    0 -0.00000000000E+00 -0.00000000000E+00 -0.45593999997E+02  0.45594000000E+02  0.51100000000E-03 0. -1.
    9900012    2    1    2    0    0  0.31831340606E+01  0.12355997743E+02 -0.41482768398E+02  0.47787273087E+02  0.20000009311E+02 0.  0.
        -12    1    1    2    0    0 -0.31831340606E+01 -0.12355997743E+02  0.41482768398E+02  0.43400726913E+02  0.00000000000E+00 0.  1.
         11    1    3    3    0    0  0.23948764858E+00  0.14511612534E+02 -0.28483944820E+02  0.31968411995E+02  0.51100000000E-03 0. -1.
        -11    1    3    3    0    0 -0.11691898260E+01  0.25797808917E+00 -0.10239674032E+02  0.10309436555E+02  0.51100000000E-03 0.  1.
         12    1    3    3    0    0  0.41128362380E+01 -0.24135928803E+01 -0.27591495454E+01  0.55094245367E+01  0.00000000000E+00 0. -1.
</event>
<event>
 7    1  0.2834226E-010  0.4778727E+02  0.7816164E-02  0.1312668E+00
        -11   -1    0    0    0    0  0.00000000000E+00  0.00000000000E+00  0.45593999997E+02  0.45594000000E+02  0.51100000000E-03 0. -1.
         11   -1    0    0    0    0 -0.00000000000E+00 -0.00000000000E+00 -0.45593999997E+02  0.45594000000E+02  0.51100000000E-03 0.  1.
    9900012    2    1    2    0    0  0.41389729836E+02 -0.13054643458E+02  0.30012181329E+00  0.47787268153E+02  0.19999986818E+02 0.  0.
        -12    1    1    2    0    0 -0.41389729836E+02  0.13054643458E+02 -0.30012181329E+00  0.43400731847E+02  0.00000000000E+00 0.  1.
         11    1    3    3    0    0  0.37038632570E+01 -0.53419529245E+01  0.50976037192E+00  0.65203466144E+01  0.51100000000E-03 0. -1.
        -11    1    3    3    0    0  0.36790767974E+02 -0.74033191085E+01  0.32607344087E+01  0.37669644690E+02  0.51100000000E-03 0.  1.
        -12    1    3    3    0    0  0.89509860504E+00 -0.30937142514E+00 -0.34703729673E+01  0.35972768483E+01  0.00000000000E+00 0.  1.
</event>
<event>
 7    1  0.2834226E-010  0.4778729E+02  0.7816164E-02  0.1312668E+00
        -11   -1    0    0    0    0  0.00000000000E+00  0.00000000000E+00  0.45593999997E+02  0.45594000000E+02  0.51100000000E-03 0.  1.
         11   -1    0    0    0    0 -0.00000000000E+00 -0.00000000000E+00 -0.45593999997E+02  0.45594000000E+02  0.51100000000E-03 0. -1.
    9900012    2    1    2    0    0  0.35946285811E+02  0.19399049645E+02 -0.14668448670E+02  0.47787285984E+02  0.20000068114E+02 0.  0.
        -12    1    1    2    0    0 -0.35946285811E+02 -0.19399049645E+02  0.14668448670E+02  0.43400714016E+02  0.00000000000E+00 0.  1.
         11    1    3    3    0    0  0.10680688851E+02  0.40763661566E+01 -0.71005927914E+01  0.13457796760E+02  0.51100000000E-03 0. -1.
        -11    1    3    3    0    0  0.18256739305E+02  0.16856109071E+02 -0.14329786994E+01  0.24889563501E+02  0.51100000000E-03 0.  1.
        -12    1    3    3    0    0  0.70088576548E+01 -0.15334255825E+01 -0.61348771792E+01  0.94399257225E+01  0.00000000000E+00 0.  1.
</event>
<event>
 7    1  0.2834226E-010  0.4778727E+02  0.7816164E-02  0.1312668E+00
        -11   -1    0    0    0    0  0.00000000000E+00  0.00000000000E+00  0.45593999997E+02  0.45594000000E+02  0.51100000000E-03 0.  1.
         11   -1    0    0    0    0 -0.00000000000E+00 -0.00000000000E+00 -0.45593999997E+02  0.45594000000E+02  0.51100000000E-03 0. -1.
    9900012    2    1    2    0    0  0.27840313648E+02  0.32447328794E+02  0.74639805000E+01  0.47787271725E+02  0.20000003102E+02 0.  0.
        -12    1    1    2    0    0 -0.27840313648E+02 -0.32447328794E+02 -0.74639805000E+01  0.43400728275E+02  0.00000000000E+00 0.  1.
         11    1    3    3    0    0  0.26145567790E+02  0.27415171669E+02  0.39996671948E+01  0.38094352477E+02  0.51100000000E-03 0. -1.
        -11    1    3    3    0    0 -0.14265310316E+01  0.41111313156E+01 -0.70030885373E+00  0.44075871211E+01  0.51100000000E-03 0.  1.
        -12    1    3    3    0    0  0.31212768897E+01  0.92102580948E+00  0.41646221589E+01  0.52853321268E+01  0.00000000000E+00 0.  1.
</event>
<event>
 7    1  0.2834226E-010  0.4778727E+02  0.7816164E-02  0.1312668E+00
        -11   -1    0    0    0    0  0.00000000000E+00  0.00000000000E+00  0.45593999997E+02  0.45594000000E+02  0.51100000000E-03 0.  1.
         11   -1    0    0    0    0 -0.00000000000E+00 -0.00000000000E+00 -0.45593999997E+02  0.45594000000E+02  0.51100000000E-03 0. -1.
    9900012    2    1    2    0    0  0.14169962517E+02 -0.37285008334E+02 -0.17107405098E+02  0.47787274276E+02  0.20000014734E+02 0.  0.
        -12    1    1    2    0    0 -0.14169962517E+02  0.37285008334E+02  0.17107405098E+02  0.43400725724E+02  0.00000000000E+00 0.  1.
         11    1    3    3    0    0  0.39322156824E+01 -0.15869448103E+02 -0.60912501369E+00  0.16360707100E+02  0.51100000000E-03 0. -1.
        -11    1    3    3    0    0  0.63538481824E+00 -0.15831528748E+01  0.20197833397E+01  0.26437874144E+01  0.51100000000E-03 0.  1.
         12    1    3    3    0    0  0.96023620165E+01 -0.19832407356E+02 -0.18518063424E+02  0.28782779761E+02  0.00000000000E+00 0. -1.
</event>
<event>
 7    1  0.2834226E-010  0.4778729E+02  0.7816164E-02  0.1312668E+00
        -11   -1    0    0    0    0  0.00000000000E+00  0.00000000000E+00  0.45593999997E+02  0.45594000000E+02  0.51100000000E-03 0. -1.
         11   -1    0    0    0    0 -0.00000000000E+00 -0.00000000000E+00 -0.45593999997E+02  0.45594000000E+02  0.51100000000E-03 0.  1.
    9900012    2    1    2    0    0  0.29893873235E+02 -0.50320573589E+01  0.31058921963E+02  0.47787286967E+02  0.20000072597E+02 0.  0.
        -12    1    1    2    0    0 -0.29893873235E+02  0.50320573589E+01 -0.31058921963E+02  0.43400713033E+02  0.00000000000E+00 0.  1.
         11    1    3    3    0    0  0.13354858898E+02  0.65892226576E+01  0.18817360555E+02  0.23997149204E+02  0.51100000000E-03 0. -1.
        -11    1    3    3    0    0  0.14397458313E+02 -0.10309719373E+02  0.11690935816E+02  0.21219215347E+02  0.51100000000E-03 0.  1.
         12    1    3    3    0    0  0.21415560239E+01 -0.13115606431E+01  0.55062559235E+00  0.25709224156E+01  0.00000000000E+00 0. -1.
</event>
<event>
 7    1  0.2834226E-010  0.4778727E+02  0.7816164E-02  0.1312668E+00
        -11   -1    0    0    0    0  0.00000000000E+00  0.00000000000E+00  0.45593999997E+02  0.45594000000E+02  0.51100000000E-03 0. -1.
         11   -1    0    0    0    0 -0.00000000000E+00 -0.00000000000E+00 -0.45593999997E+02  0.45594000000E+02  0.51100000000E-03 0.  1.
    9900012    2    1    2    0    0 -0.41357951915E+00 -0.52303800658E+01  0.43082424574E+02  0.47787271540E+02  0.20000002260E+02 0.  0.
        -12    1    1    2    0    0  0.41357951915E+00  0.52303800658E+01 -0.43082424574E+02  0.43400728460E+02  0.00000000000E+00 0.  1.
         11    1    3    3    0    0 -0.40502493903E+00  0.56639722926E+00  0.19389928944E+01  0.20602292902E+01  0.51100000000E-03 0. -1.
        -11    1    3    3    0    0 -0.38980593041E+01 -0.98069370824E+01  0.37734744268E+02  0.39182672273E+02  0.51100000000E-03 0.  1.
        -12    1    3    3    0    0  0.38895047240E+01  0.40101597873E+01  0.34086874122E+01  0.65443699767E+01  0.00000000000E+00 0.  1.
</event>
<event>
 7    1  0.2834226E-010  0.4778727E+02  0.7816164E-02  0.1312668E+00
        -11   -1    0    0    0    0  0.00000000000E+00  0.00000000000E+00  0.45593999997E+02  0.45594000000E+02  0.51100000000E-03 0.  1.
         11   -1    0    0    0    0 -0.00000000000E+00 -0.00000000000E+00 -0.45593999997E+02  0.45594000000E+02  0.51100000000E-03 0. -1.
    9900012    2    1    2    0    0 -0.14593902527E+02 -0.24460576391E+02  0.32746316484E+02  0.47787273835E+02  0.20000012723E+02 0.  0.
        -12    1    1    2    0    0  0.14593902527E+02  0.24460576391E+02 -0.32746316484E+02  0.43400726165E+02  0.00000000000E+00 0.  1.
         11    1    3    3    0    0 -0.13860310319E+02 -0.12074384184E+02  0.17361565116E+02  0.25284835358E+02  0.51100000000E-03 0.  1.
        -11    1    3    3    0    0  0.32821936115E+01 -0.97116649820E+01  0.58163962547E+01  0.11786420037E+02  0.51100000000E-03 0. -1.
         12    1    3    3    0    0 -0.40157858197E+01 -0.26745272253E+01  0.95683551135E+01  0.10716018440E+02  0.00000000000E+00 0. -1.
</event>
<event>
 7    1  0.2834226E-010  0.4778727E+02  0.7816164E-02  0.1312668E+00
        -11   -1    0    0    0    0  0.00000000000E+00  0.00000000000E+00  0.45593999997E+02  0.45594000000E+02  0.51100000000E-03 0.  1.
         11   -1    0    0    0    0 -0.00000000000E+00 -0.00000000000E+00 -0.45593999997E+02  0.45594000000E+02  0.51100000000E-03 0. -1.
    9900012    2    1    2    0    0  0.12062739354E+02 -0.39320478138E+02 -0.13856887528E+02  0.47787274042E+02  0.20000013667E+02 0.  0.
        -12    1    1    2    0    0 -0.12062739354E+02  0.39320478138E+02  0.13856887528E+02  0.43400725958E+02  0.00000000000E+00 0.  1.
         11    1    3    3    0    0  0.47427108676E+01 -0.28250928371E+02 -0.96069645786E+01  0.30214268630E+02  0.51100000000E-03 0. -1.
        -11    1    3    3    0    0  0.91866626913E+01 -0.49378386456E+01 -0.12768202158E+01  0.10507487427E+02  0.51100000000E-03 0.  1.
         12    1    3    3    0    0 -0.18666342053E+01 -0.61317111218E+01 -0.29731027339E+01  0.70655179855E+01  0.00000000000E+00 0. -1.
</event>
<event>
 7    1  0.2834226E-010  0.4778727E+02  0.7816164E-02  0.1312668E+00
        -11   -1    0    0    0    0  0.00000000000E+00  0.00000000000E+00  0.45593999997E+02  0.45594000000E+02  0.51100000000E-03 0.  1.
         11   -1    0    0    0    0 -0.00000000000E+00 -0.00000000000E+00 -0.45593999997E+02  0.45594000000E+02  0.51100000000E-03 0. -1.
    9900012    2    1    2    0    0  0.62193025059E+01 -0.17251698896E+02 -0.39336022616E+02  0.47787268281E+02  0.19999987402E+02 0.  0.
        -12    1    1    2    0    0 -0.62193025059E+01  0.17251698896E+02  0.39336022616E+02  0.43400731719E+02  0.00000000000E+00 0.  1.
         11    1    3    3    0    0  0.49842462809E+01  0.19697605679E+00 -0.17613481722E+01  0.52899771456E+01  0.51100000000E-03 0. -1.
        -11    1    3    3    0    0 -0.37218411732E+01 -0.59521327360E+01 -0.10048775439E+02  0.12257971852E+02  0.51100000000E-03 0.  1.
         12    1    3    3    0    0  0.49568973981E+01 -0.11496542217E+02 -0.27525899005E+02  0.30239319284E+02  0.00000000000E+00 0. -1.
</event>
<event>
 7    1  0.2834226E-010  0.4778727E+02  0.7816164E-02  0.1312668E+00
        -11   -1    0    0    0    0  0.00000000000E+00  0.00000000000E+00  0.45593999997E+02  0.45594000000E+02  0.51100000000E-03 0.  1.
         11   -1    0    0    0    0 -0.00000000000E+00 -0.00000000000E+00 -0.45593999997E+02  0.45594000000E+02  0.51100000000E-03 0. -1.
    9900012    2    1    2    0    0  0.26809564029E+02 -0.32411228544E+02 -0.10694983744E+02  0.47787272627E+02  0.20000007217E+02 0.  0.
        -12    1    1    2    0    0 -0.26809564029E+02  0.32411228544E+02  0.10694983744E+02  0.43400727373E+02  0.00000000000E+00 0.  1.
         11    1    3    3    0    0  0.20112220292E+02 -0.30101919938E+02 -0.11453211092E+02  0.37971081544E+02  0.51100000000E-03 0. -1.
        -11    1    3    3    0    0  0.74906703471E+01 -0.31461645710E+01  0.17317491423E+01  0.83070722345E+01  0.51100000000E-03 0.  1.
         12    1    3    3    0    0 -0.79332660970E+00  0.83685596478E+00 -0.97352179495E+00  0.15091188491E+01  0.00000000000E+00 0. -1.
</event>
<event>
 7    1  0.2834226E-010  0.4778727E+02  0.7816164E-02  0.1312668E+00
        -11   -1    0    0    0    0  0.00000000000E+00  0.00000000000E+00  0.45593999997E+02  0.45594000000E+02  0.51100000000E-03 0.  1.
         11   -1    0    0    0    0 -0.00000000000E+00 -0.00000000000E+00 -0.45593999997E+02  0.45594000000E+02  0.51100000000E-03 0. -1.
    9900012    2    1    2    0    0  0.36090152003E+02 -0.47527572768E+01 -0.23633351955E+02  0.47787273071E+02  0.20000009239E+02 0.  0.
        -12    1    1    2    0    0 -0.36090152003E+02  0.47527572768E+01  0.23633351955E+02  0.43400726929E+02  0.00000000000E+00 0.  1.
         11    1    3    3    0    0  0.12991070181E+02  0.36701589051E+01 -0.19743115769E+01  0.13643162291E+02  0.51100000000E-03 0. -1.
        -11    1    3    3    0    0  0.15591461334E+02 -0.98042543124E+01 -0.17702922561E+02  0.25546243102E+02  0.51100000000E-03 0.  1.
        -12    1    3    3    0    0  0.75076204882E+01  0.13813381305E+01 -0.39561178173E+01  0.85978676781E+01  0.00000000000E+00 0.  1.
</event>
<event>
 7    1  0.2834226E-010  0.4778728E+02  0.7816164E-02  0.1312668E+00
        -11   -1    0    0    0    0  0.00000000000E+00  0.00000000000E+00  0.45593999997E+02  0.45594000000E+02  0.51100000000E-03 0.  1.
         11   -1    0    0    0    0 -0.00000000000E+00 -0.00000000000E+00 -0.45593999997E+02  0.45594000000E+02  0.51100000000E-03 0. -1.
    9900012    2    1    2    0    0 -0.37665984943E+02 -0.65409582555E+01 -0.20545370124E+02  0.47787276617E+02  0.20000025407E+02 0.  0.
        -12    1    1    2    0    0  0.37665984943E+02  0.65409582555E+01  0.20545370124E+02  0.43400723383E+02  0.00000000000E+00 0.  1.
         11    1    3    3    0    0 -0.22191372903E+02 -0.74562313216E-01 -0.50454363046E+01  0.22757834225E+02  0.51100000000E-03 0. -1.
        -11    1    3    3    0    0 -0.11461767955E+02 -0.92067793004E+01 -0.12658524138E+02  0.19400390289E+02  0.51100000000E-03 0.  1.
         12    1    3    3    0    0 -0.40128440856E+01  0.27403833581E+01 -0.28414096811E+01  0.56290521032E+01  0.00000000000E+00 0. -1.
</event>
<event>
 7    1  0.2834226E-010  0.4778722E+02  0.7816164E-02  0.1312668E+00
        -11   -1    0    0    0    0  0.00000000000E+00  0.00000000000E+00  0.45593999997E+02  0.45594000000E+02  0.51100000000E-03 0.  1.
         11   -1    0    0    0    0 -0.00000000000E+00 -0.00000000000E+00 -0.45593999997E+02  0.45594000000E+02  0.51100000000E-03 0. -1.
    9900012    2    1    2    0    0  0.18036495150E+02 -0.11582748341E+02 -0.37737940116E+02  0.47787224193E+02  0.19999786384E+02 0.  0.
        -12    1    1    2    0    0 -0.18036495150E+02  0.11582748341E+02  0.37737940116E+02  0.43400775807E+02  0.00000000000E+00 0.  1.
         11    1    3    3    0    0  0.10649876935E+02 -0.12154768320E+02 -0.13298897489E+02  0.20928902177E+02  0.51100000000E-03 0. -1.
        -11    1    3    3    0    0 -0.31173241483E+00  0.14930860600E+01 -0.36746563813E+00  0.15689213930E+01  0.51100000000E-03 0.  1.
         12    1    3    3    0    0  0.76983506302E+01 -0.92106608108E+00 -0.24071576989E+02  0.25289400623E+02  0.00000000000E+00 0. -1.
</event>
<event>
 7    1  0.2834226E-010  0.4778729E+02  0.7816164E-02  0.1312668E+00
        -11   -1    0    0    0    0  0.00000000000E+00  0.00000000000E+00  0.45593999997E+02  0.45594000000E+02  0.51100000000E-03 0. -1.
         11   -1    0    0    0    0 -0.00000000000E+00 -0.00000000000E+00 -0.45593999997E+02  0.45594000000E+02  0.51100000000E-03 0.  1.
    9900012    2    1    2    0    0  0.30687629432E+02  0.27601794918E+02 -0.13417608153E+02  0.47787286971E+02  0.20000072615E+02 0.  0.
        -12    1    1    2    0    0 -0.30687629432E+02 -0.27601794918E+02  0.13417608153E+02  0.43400713029E+02  0.00000000000E+00 0.  1.
         11    1    3    3    0    0  0.14010791786E+02  0.12192612452E+02 -0.11034283275E+02  0.21603645353E+02  0.51100000000E-03 0. -1.
        -11    1    3    3    0    0  0.39682999482E+00  0.70714643360E+01  0.20301838887E+01  0.73678170976E+01  0.51100000000E-03 0.  1.
        -12    1    3    3    0    0  0.16280007651E+02  0.83377181301E+01 -0.44135087664E+01  0.18815824520E+02  0.00000000000E+00 0.  1.
</event>
<event>
 7    1  0.2834226E-010  0.4778727E+02  0.7816164E-02  0.1312668E+00
        -11   -1    0    0    0    0  0.00000000000E+00  0.00000000000E+00  0.45593999997E+02  0.45594000000E+02  0.51100000000E-03 0.  1.
         11   -1    0    0    0    0 -0.00000000000E+00 -0.00000000000E+00 -0.45593999997E+02  0.45594000000E+02  0.51100000000E-03 0. -1.
    9900012    2    1    2    0    0  0.32930840994E+02  0.93074235194E+00 -0.28254493484E+02  0.47787274523E+02  0.20000015861E+02 0.  0.
        -12    1    1    2    0    0 -0.32930840994E+02 -0.93074235194E+00  0.28254493484E+02  0.43400725477E+02  0.00000000000E+00 0.  1.
         11    1    3    3    0    0 -0.10290689812E+01 -0.96079904694E+00 -0.37466989684E+01  0.40024831290E+01  0.51100000000E-03 0. -1.
        -11    1    3    3    0    0  0.34651941973E+02  0.31605087709E+01 -0.23088950018E+02  0.41759376329E+02  0.51100000000E-03 0.  1.
        -12    1    3    3    0    0 -0.69203199837E+00 -0.12689673720E+01 -0.14188444978E+01  0.20254150654E+01  0.00000000000E+00 0.  1.
</event>
<event>
 7    1  0.2834226E-010  0.4778727E+02  0.7816164E-02  0.1312668E+00
        -11   -1    0    0    0    0  0.00000000000E+00  0.00000000000E+00  0.45593999997E+02  0.45594000000E+02  0.51100000000E-03 0.  1.
         11   -1    0    0    0    0 -0.00000000000E+00 -0.00000000000E+00 -0.45593999997E+02  0.45594000000E+02  0.51100000000E-03 0. -1.
    9900012    2    1    2    0    0  0.34509523280E+02  0.18252884294E+02  0.18961754829E+02  0.47787272722E+02  0.20000007648E+02 0.  0.
        -12    1    1    2    0    0 -0.34509523280E+02 -0.18252884294E+02 -0.18961754829E+02  0.43400727278E+02  0.00000000000E+00 0.  1.
         11    1    3    3    0    0  0.33132693236E+02  0.18657877068E+02  0.15011654539E+02  0.40880820809E+02  0.51100000000E-03 0. -1.
        -11    1    3    3    0    0 -0.17411440754E+01  0.89436259659E+00  0.26329844593E+01  0.32808649118E+01  0.51100000000E-03 0.  1.
         12    1    3    3    0    0  0.31179741202E+01 -0.12993553708E+01  0.13171158305E+01  0.36255870014E+01  0.00000000000E+00 0. -1.
</event>
<event>
 7    1  0.2834226E-010  0.4778727E+02  0.7816164E-02  0.1312668E+00
        -11   -1    0    0    0    0  0.00000000000E+00  0.00000000000E+00  0.45593999997E+02  0.45594000000E+02  0.51100000000E-03 0.  1.
         11   -1    0    0    0    0 -0.00000000000E+00 -0.00000000000E+00 -0.45593999997E+02  0.45594000000E+02  0.51100000000E-03 0. -1.
    9900012    2    1    2    0    0 -0.20524661634E+02  0.21634459543E+02 -0.31532705923E+02  0.47787272843E+02  0.20000008201E+02 0.  0.
        -12    1    1    2    0    0  0.20524661634E+02 -0.21634459543E+02  0.31532705923E+02  0.43400727157E+02  0.00000000000E+00 0.  1.
         11    1    3    3    0    0 -0.19261505487E+02  0.13021063547E+02 -0.20175026883E+02  0.30782875101E+02  0.51100000000E-03 0. -1.
        -11    1    3    3    0    0  0.18003868977E+01  0.91518043393E+01 -0.97874763306E+01  0.13520044705E+02  0.51100000000E-03 0.  1.
        -12    1    3    3    0    0 -0.30635430456E+01 -0.53840834312E+00 -0.15702027091E+01  0.34843530366E+01  0.00000000000E+00 0.  1.
</event>
<event>
 7    1  0.2834226E-010  0.4778726E+02  0.7816164E-02  0.1312668E+00
        -11   -1    0    0    0    0  0.00000000000E+00  0.00000000000E+00  0.45593999997E+02  0.45594000000E+02  0.51100000000E-03 0.  1.
         11   -1    0    0    0    0 -0.00000000000E+00 -0.00000000000E+00 -0.45593999997E+02  0.45594000000E+02  0.51100000000E-03 0. -1.
    9900012    2    1    2    0    0 -0.52561211087E+01 -0.57488652849E+01 -0.42695990500E+02  0.47787264223E+02  0.19999968900E+02 0.  0.
        -12    1    1    2    0    0  0.52561211087E+01  0.57488652849E+01  0.42695990500E+02  0.43400735777E+02  0.00000000000E+00 0.  1.
         11    1    3    3    0    0  0.30372429273E+01 -0.63761070253E+01 -0.70987337588E+01  0.10013571123E+02  0.51100000000E-03 0. -1.
        -11    1    3    3    0    0  0.13192258656E+01 -0.21090318170E+01 -0.49851873812E+01  0.55713970938E+01  0.51100000000E-03 0.  1.
         12    1    3    3    0    0 -0.96125899016E+01  0.27362735574E+01 -0.30612069360E+02  0.32202296007E+02  0.00000000000E+00 0. -1.
</event>
<event>
 7    1  0.2834226E-010  0.4778727E+02  0.7816164E-02  0.1312668E+00
        -11   -1    0    0    0    0  0.00000000000E+00  0.00000000000E+00  0.45593999997E+02  0.45594000000E+02  0.51100000000E-03 0. -1.
         11   -1    0    0    0    0 -0.00000000000E+00 -0.00000000000E+00 -0.45593999997E+02  0.45594000000E+02  0.51100000000E-03 0.  1.
    9900012    2    1    2    0    0 -0.26576345093E+02 -0.32240823193E+02 -0.11740976836E+02  0.47787270332E+02  0.19999996751E+02 0.  0.
        -12    1    1    2    0    0  0.26576345093E+02  0.32240823193E+02  0.11740976836E+02  0.43400729668E+02  0.00000000000E+00 0.  1.
         11    1    3    3    0    0 -0.25776134029E+02 -0.24201097143E+02 -0.51503959567E+01  0.35729942166E+02  0.51100000000E-03 0. -1.
        -11    1    3    3    0    0  0.20783194156E+01 -0.76541860053E+00 -0.93539134171E+00  0.24042118148E+01  0.51100000000E-03 0.  1.
         12    1    3    3    0    0 -0.28785304799E+01 -0.72743074493E+01 -0.56551895374E+01  0.96531163515E+01  0.00000000000E+00 0. -1.
</event>
<event>
 7    1  0.2834226E-010  0.4778727E+02  0.7816164E-02  0.1312668E+00
        -11   -1    0    0    0    0  0.00000000000E+00  0.00000000000E+00  0.45593999997E+02  0.45594000000E+02  0.51100000000E-03 0.  1.
         11   -1    0    0    0    0 -0.00000000000E+00 -0.00000000000E+00 -0.45593999997E+02  0.45594000000E+02  0.51100000000E-03 0. -1.
    9900012    2    1    2    0    0 -0.90923829841E+01 -0.30356460080E+02 -0.29655307495E+02  0.47787270057E+02  0.19999995499E+02 0.  0.
        -12    1    1    2    0    0  0.90923829841E+01  0.30356460080E+02  0.29655307495E+02  0.43400729943E+02  0.00000000000E+00 0.  1.
         11    1    3    3    0    0 -0.77795562053E+01 -0.24166571221E+02 -0.13364493629E+02  0.28690666593E+02  0.51100000000E-03 0. -1.
        -11    1    3    3    0    0  0.23211961044E+01 -0.58611615844E+01 -0.10755394807E+02  0.12466743127E+02  0.51100000000E-03 0.  1.
        -12    1    3    3    0    0 -0.36340228831E+01 -0.32872727471E+00 -0.55354190583E+01  0.66298603369E+01  0.00000000000E+00 0.  1.
</event>
<event>
 7    1  0.2834226E-010  0.4778726E+02  0.7816164E-02  0.1312668E+00
        -11   -1    0    0    0    0  0.00000000000E+00  0.00000000000E+00  0.45593999997E+02  0.45594000000E+02  0.51100000000E-03 0. -1.
         11   -1    0    0    0    0 -0.00000000000E+00 -0.00000000000E+00 -0.45593999997E+02  0.45594000000E+02  0.51100000000E-03 0.  1.
    9900012    2    1    2    0    0  0.38378967966E+02  0.12993750725E+02  0.15551262695E+02  0.47787256786E+02  0.19999934992E+02 0.  0.
        -12    1    1    2    0    0 -0.38378967966E+02 -0.12993750725E+02 -0.15551262695E+02  0.43400743214E+02  0.00000000000E+00 0.  1.
         11    1    3    3    0    0  0.30346858349E+02  0.67356553848E+01  0.18177245190E+02  0.36009902917E+02  0.51100000000E-03 0. -1.
        -11    1    3    3    0    0  0.16385185433E+01  0.40547125635E+01  0.35340378248E+00  0.43875199697E+01  0.51100000000E-03 0.  1.
         12    1    3    3    0    0  0.63935910737E+01  0.22033827766E+01 -0.29793862769E+01  0.73898338997E+01  0.00000000000E+00 0. -1.
</event>
<event>
 7    1  0.2834226E-010  0.4778729E+02  0.7816164E-02  0.1312668E+00
        -11   -1    0    0    0    0  0.00000000000E+00  0.00000000000E+00  0.45593999997E+02  0.45594000000E+02  0.51100000000E-03 0.  1.
         11   -1    0    0    0    0 -0.00000000000E+00 -0.00000000000E+00 -0.45593999997E+02  0.45594000000E+02  0.51100000000E-03 0. -1.
    9900012    2    1    2    0    0 -0.87655457795E+01  0.24501574150E+02 -0.34734126549E+02  0.47787291760E+02  0.20000094449E+02 0.  0.
        -12    1    1    2    0    0  0.87655457795E+01 -0.24501574150E+02  0.34734126549E+02  0.43400708240E+02  0.00000000000E+00 0.  1.
         11    1    3    3    0    0 -0.61056296951E+01  0.19084186168E+01 -0.44767240186E+01  0.78078059524E+01  0.51100000000E-03 0. -1.
        -11    1    3    3    0    0 -0.30031680642E+01  0.21189019855E+02 -0.31494084677E+02  0.38077170992E+02  0.51100000000E-03 0.  1.
        -12    1    3    3    0    0  0.34325197980E+00  0.14041356779E+01  0.12366821469E+01  0.19023148152E+01  0.00000000000E+00 0.  1.
</event>
<event>
 7    1  0.2834226E-010  0.4778727E+02  0.7816164E-02  0.1312668E+00
        -11   -1    0    0    0    0  0.00000000000E+00  0.00000000000E+00  0.45593999997E+02  0.45594000000E+02  0.51100000000E-03 0.  1.
         11   -1    0    0    0    0 -0.00000000000E+00 -0.00000000000E+00 -0.45593999997E+02  0.45594000000E+02  0.51100000000E-03 0. -1.
    9900012    2    1    2    0    0  0.17191173005E+02 -0.92496171766E+01 -0.38762499984E+02  0.47787271294E+02  0.20000001138E+02 0.  0.
        -12    1    1    2    0    0 -0.17191173005E+02  0.92496171766E+01  0.38762499984E+02  0.43400728706E+02  0.00000000000E+00 0.  1.
         11    1    3    3    0    0  0.17263331664E+02 -0.98574036381E+01 -0.39315897434E+02  0.44055996390E+02  0.51100000000E-03 0. -1.
        -11    1    3    3    0    0  0.15784102145E+01 -0.80868025042E-01  0.10223857414E+01  0.18823366618E+01  0.51100000000E-03 0.  1.
        -12    1    3    3    0    0 -0.16505688732E+01  0.68865448654E+00 -0.46898829161E+00  0.18489382425E+01  0.00000000000E+00 0.  1.
</event>
<event>
 7    1  0.2834226E-010  0.4778727E+02  0.7816164E-02  0.1312668E+00
        -11   -1    0    0    0    0  0.00000000000E+00  0.00000000000E+00  0.45593999997E+02  0.45594000000E+02  0.51100000000E-03 0.  1.
         11   -1    0    0    0    0 -0.00000000000E+00 -0.00000000000E+00 -0.45593999997E+02  0.45594000000E+02  0.51100000000E-03 0. -1.
    9900012    2    1    2    0    0  0.32023392843E+02  0.22557551253E+02 -0.18689092509E+02  0.47787274355E+02  0.20000015093E+02 0.  0.
        -12    1    1    2    0    0 -0.32023392843E+02 -0.22557551253E+02  0.18689092509E+02  0.43400725645E+02  0.00000000000E+00 0.  1.
         11    1    3    3    0    0  0.15878865763E+02  0.12568906403E+02 -0.14330141370E+02  0.24808642406E+02  0.51100000000E-03 0. -1.
        -11    1    3    3    0    0  0.15518986498E+02  0.52592456722E+01  0.18975787953E+00  0.16387025822E+02  0.51100000000E-03 0.  1.
        -12    1    3    3    0    0  0.62554058241E+00  0.47293991777E+01 -0.45487090185E+01  0.65916061273E+01  0.00000000000E+00 0.  1.
</event>
<event>
 7    1  0.2834226E-010  0.4778730E+02  0.7816164E-02  0.1312668E+00
        -11   -1    0    0    0    0  0.00000000000E+00  0.00000000000E+00  0.45593999997E+02  0.45594000000E+02  0.51100000000E-03 0. -1.
         11   -1    0    0    0    0 -0.00000000000E+00 -0.00000000000E+00 -0.45593999997E+02  0.45594000000E+02  0.51100000000E-03 0.  1.
    9900012    2    1    2    0    0  0.12450342825E+02  0.40126377864E+02  0.10885030088E+02  0.47787295893E+02  0.20000113295E+02 0.  0.
        -12    1    1    2    0    0 -0.12450342825E+02 -0.40126377864E+02 -0.10885030088E+02  0.43400704107E+02  0.00000000000E+00 0.  1.
         11    1    3    3    0    0  0.64064982746E+01  0.29361210950E+02  0.15521553196E+01  0.30092077280E+02  0.51100000000E-03 0. -1.
        -11    1    3    3    0    0  0.44463288657E+00  0.75246161048E+01  0.81810035699E+01  0.11124134375E+02  0.51100000000E-03 0.  1.
        -12    1    3    3    0    0  0.55992116641E+01  0.32405508087E+01  0.11518711987E+01  0.65710842380E+01  0.00000000000E+00 0.  1.
</event>
<event>
 7    1  0.2834226E-010  0.4778727E+02  0.7816164E-02  0.1312668E+00
        -11   -1    0    0    0    0  0.00000000000E+00  0.00000000000E+00  0.45593999997E+02  0.45594000000E+02  0.51100000000E-03 0.  1.
         11   -1    0    0    0    0 -0.00000000000E+00 -0.00000000000E+00 -0.45593999997E+02  0.45594000000E+02  0.51100000000E-03 0. -1.
    9900012    2    1    2    0    0 -0.30078623434E+02  0.13724375984E+02 -0.28116565588E+02  0.47787270233E+02  0.19999996302E+02 0.  0.
        -12    1    1    2    0    0  0.30078623434E+02 -0.13724375984E+02  0.28116565588E+02  0.43400729767E+02  0.00000000000E+00 0.  1.
         11    1    3    3    0    0 -0.12470109131E+02  0.11113926477E+02 -0.87972381930E+01  0.18878940213E+02  0.51100000000E-03 0.  1.
        -11    1    3    3    0    0 -0.17627158019E+02 -0.22439390112E+00 -0.12758192067E+02  0.21760940180E+02  0.51100000000E-03 0. -1.
        -12    1    3    3    0    0  0.18643715968E-01  0.28348434076E+01 -0.65611353279E+01  0.71473898400E+01  0.00000000000E+00 0.  1.
</event>
<event>
 7    1  0.2834226E-010  0.4778727E+02  0.7816164E-02  0.1312668E+00
        -11   -1    0    0    0    0  0.00000000000E+00  0.00000000000E+00  0.45593999997E+02  0.45594000000E+02  0.51100000000E-03 0.  1.
         11   -1    0    0    0    0 -0.00000000000E+00 -0.00000000000E+00 -0.45593999997E+02  0.45594000000E+02  0.51100000000E-03 0. -1.
    9900012    2    1    2    0    0  0.52643873589E+01  0.65926329478E+00 -0.43075228388E+02  0.47787266100E+02  0.19999977456E+02 0.  0.
        -12    1    1    2    0    0 -0.52643873589E+01 -0.65926329478E+00  0.43075228388E+02  0.43400733900E+02  0.00000000000E+00 0.  1.
         11    1    3    3    0    0 -0.17714980260E+01 -0.53405552310E+01 -0.10767258677E+02  0.12148810441E+02  0.51100000000E-03 0. -1.
        -11    1    3    3    0    0  0.99748413941E+01  0.65838255913E+01 -0.27315889959E+02  0.29816137656E+02  0.51100000000E-03 0.  1.
        -12    1    3    3    0    0 -0.29389560092E+01 -0.58400706552E+00 -0.49920797522E+01  0.58223180030E+01  0.00000000000E+00 0.  1.
</event>
<event>
 7    1  0.2834226E-010  0.4778727E+02  0.7816164E-02  0.1312668E+00
        -11   -1    0    0    0    0  0.00000000000E+00  0.00000000000E+00  0.45593999997E+02  0.45594000000E+02  0.51100000000E-03 0.  1.
         11   -1    0    0    0    0 -0.00000000000E+00 -0.00000000000E+00 -0.45593999997E+02  0.45594000000E+02  0.51100000000E-03 0. -1.
    9900012    2    1    2    0    0  0.38661698602E+02 -0.29610840042E+01 -0.19496876358E+02  0.47787272529E+02  0.20000006769E+02 0.  0.
        -12    1    1    2    0    0 -0.38661698602E+02  0.29610840042E+01  0.19496876358E+02  0.43400727471E+02  0.00000000000E+00 0.  1.
         11    1    3    3    0    0  0.10993444038E+02 -0.31897120885E+01 -0.10971133301E+02  0.15855467233E+02  0.51100000000E-03 0.  1.
        -11    1    3    3    0    0  0.98040679832E+01 -0.37182515980E+01 -0.87172237241E+01  0.13635803375E+02  0.51100000000E-03 0. -1.
         12    1    3    3    0    0  0.17864186581E+02  0.39468796823E+01  0.19148066675E+00  0.18296001921E+02  0.00000000000E+00 0. -1.
</event>
<event>
 7    1  0.2834226E-010  0.4778727E+02  0.7816164E-02  0.1312668E+00
        -11   -1    0    0    0    0  0.00000000000E+00  0.00000000000E+00  0.45593999997E+02  0.45594000000E+02  0.51100000000E-03 0.  1.
         11   -1    0    0    0    0 -0.00000000000E+00 -0.00000000000E+00 -0.45593999997E+02  0.45594000000E+02  0.51100000000E-03 0. -1.
    9900012    2    1    2    0    0 -0.11060628737E+02  0.76733881517E+01 -0.41260210104E+02  0.47787270379E+02  0.19999996965E+02 0.  0.
        -12    1    1    2    0    0  0.11060628737E+02 -0.76733881517E+01  0.41260210104E+02  0.43400729621E+02  0.00000000000E+00 0.  1.
         11    1    3    3    0    0 -0.86268835387E+01 -0.35874134545E+01 -0.15143154631E+02  0.17793475976E+02  0.51100000000E-03 0. -1.
        -11    1    3    3    0    0  0.62088061080E+00  0.83647951216E+00  0.56515683644E+00  0.11851553561E+01  0.51100000000E-03 0.  1.
         12    1    3    3    0    0 -0.30546258092E+01  0.10424322094E+02 -0.26682212310E+02  0.28808639047E+02  0.00000000000E+00 0. -1.
</event>
<event>
 7    1  0.2834226E-010  0.4778727E+02  0.7816164E-02  0.1312668E+00
        -11   -1    0    0    0    0  0.00000000000E+00  0.00000000000E+00  0.45593999997E+02  0.45594000000E+02  0.51100000000E-03 0. -1.
         11   -1    0    0    0    0 -0.00000000000E+00 -0.00000000000E+00 -0.45593999997E+02  0.45594000000E+02  0.51100000000E-03 0.  1.
    9900012    2    1    2    0    0 -0.19869205505E+02 -0.30946364773E+02  0.23046921673E+02  0.47787269377E+02  0.19999992395E+02 0.  0.
        -12    1    1    2    0    0  0.19869205505E+02  0.30946364773E+02 -0.23046921673E+02  0.43400730623E+02  0.00000000000E+00 0.  1.
         11    1    3    3    0    0 -0.39221953386E+01 -0.11651573121E+02  0.15794295427E+02  0.20015057851E+02  0.51100000000E-03 0. -1.
        -11    1    3    3    0    0  0.64409743228E+00 -0.45873292405E+01  0.14506543835E+01  0.48541579563E+01  0.51100000000E-03 0.  1.
         12    1    3    3    0    0 -0.16591107599E+02 -0.14707462411E+02  0.58019718622E+01  0.22918053570E+02  0.00000000000E+00 0. -1.
</event>
<event>
 7    1  0.2834226E-010  0.4778727E+02  0.7816164E-02  0.1312668E+00
        -11   -1    0    0    0    0  0.00000000000E+00  0.00000000000E+00  0.45593999997E+02  0.45594000000E+02  0.51100000000E-03 0.  1.
         11   -1    0    0    0    0 -0.00000000000E+00 -0.00000000000E+00 -0.45593999997E+02  0.45594000000E+02  0.51100000000E-03 0. -1.
    9900012    2    1    2    0    0 -0.11485852028E+02 -0.78677861060E+01 -0.41107131604E+02  0.47787272775E+02  0.20000007889E+02 0.  0.
        -12    1    1    2    0    0  0.11485852028E+02  0.78677861060E+01  0.41107131604E+02  0.43400727225E+02  0.00000000000E+00 0.  1.
         11    1    3    3    0    0 -0.12165239587E+02 -0.96655120623E+01 -0.41499390996E+02  0.44312691533E+02  0.51100000000E-03 0. -1.
        -11    1    3    3    0    0 -0.63755139821E+00  0.14946959508E+01  0.10870664473E+01  0.19550707130E+01  0.51100000000E-03 0.  1.
         12    1    3    3    0    0  0.13169389577E+01  0.30303000547E+00 -0.69480705535E+00  0.15195105286E+01  0.00000000000E+00 0. -1.
</event>
<event>
 7    1  0.2834226E-010  0.4778726E+02  0.7816164E-02  0.1312668E+00
        -11   -1    0    0    0    0  0.00000000000E+00  0.00000000000E+00  0.45593999997E+02  0.45594000000E+02  0.51100000000E-03 0.  1.
         11   -1    0    0    0    0 -0.00000000000E+00 -0.00000000000E+00 -0.45593999997E+02  0.45594000000E+02  0.51100000000E-03 0. -1.
    9900012    2    1    2    0    0 -0.21803407642E+02  0.35031555583E+02  0.13454566902E+02  0.47787264501E+02  0.19999970164E+02 0.  0.
        -12    1    1    2    0    0  0.21803407642E+02 -0.35031555583E+02 -0.13454566902E+02  0.43400735499E+02  0.00000000000E+00 0.  1.
         11    1    3    3    0    0 -0.85054378954E+01  0.93864348137E+01  0.93256631203E+00  0.12701075249E+02  0.51100000000E-03 0. -1.
        -11    1    3    3    0    0 -0.78462866939E+01  0.19236982547E+02  0.97405191003E+00  0.20798425175E+02  0.51100000000E-03 0.  1.
        -12    1    3    3    0    0 -0.54516830525E+01  0.64081382227E+01  0.11547948680E+02  0.14287764076E+02  0.00000000000E+00 0.  1.
</event>
<event>
 7    1  0.2834226E-010  0.4778723E+02  0.7816164E-02  0.1312668E+00
        -11   -1    0    0    0    0  0.00000000000E+00  0.00000000000E+00  0.45593999997E+02  0.45594000000E+02  0.51100000000E-03 0.  1.
         11   -1    0    0    0    0 -0.00000000000E+00 -0.00000000000E+00 -0.45593999997E+02  0.45594000000E+02  0.51100000000E-03 0. -1.
    9900012    2    1    2    0    0 -0.25637062604E+02 -0.25421573253E+02 -0.24085502208E+02  0.47787230626E+02  0.19999815717E+02 0.  0.
        -12    1    1    2    0    0  0.25637062604E+02  0.25421573253E+02  0.24085502208E+02  0.43400769374E+02  0.00000000000E+00 0.  1.
         11    1    3    3    0    0 -0.15988386370E+02 -0.16307251505E+02 -0.12992739680E+02  0.26274821313E+02  0.51100000000E-03 0. -1.
        -11    1    3    3    0    0 -0.49560787697E+01  0.25146428959E+01 -0.53706153244E+01  0.77284962890E+01  0.51100000000E-03 0.  1.
        -12    1    3    3    0    0 -0.46925974643E+01 -0.11628964644E+02 -0.57221472038E+01  0.13783913025E+02  0.00000000000E+00 0.  1.
</event>
<event>
 7    1  0.2834226E-010  0.4778727E+02  0.7816164E-02  0.1312668E+00
        -11   -1    0    0    0    0  0.00000000000E+00  0.00000000000E+00  0.45593999997E+02  0.45594000000E+02  0.51100000000E-03 0. -1.
         11   -1    0    0    0    0 -0.00000000000E+00 -0.00000000000E+00 -0.45593999997E+02  0.45594000000E+02  0.51100000000E-03 0.  1.
    9900012    2    1    2    0    0 -0.61481814139E+01 -0.36987756972E+02  0.21857022981E+02  0.47787265511E+02  0.19999974772E+02 0.  0.
        -12    1    1    2    0    0  0.61481814139E+01  0.36987756972E+02 -0.21857022981E+02  0.43400734489E+02  0.00000000000E+00 0.  1.
         11    1    3    3    0    0 -0.27957455264E+01 -0.35224039055E+02  0.21668466215E+02  0.41449626643E+02  0.51100000000E-03 0. -1.
        -11    1    3    3    0    0 -0.15370784249E+01 -0.26965937931E+01 -0.17154435117E+01  0.35464030894E+01  0.51100000000E-03 0.  1.
         12    1    3    3    0    0 -0.18153574625E+01  0.93287587615E+00  0.19040002777E+01  0.27912357791E+01  0.00000000000E+00 0. -1.
</event>
<event>
 7    1  0.2834226E-010  0.4778726E+02  0.7816164E-02  0.1312668E+00
        -11   -1    0    0    0    0  0.00000000000E+00  0.00000000000E+00  0.45593999997E+02  0.45594000000E+02  0.51100000000E-03 0.  1.
         11   -1    0    0    0    0 -0.00000000000E+00 -0.00000000000E+00 -0.45593999997E+02  0.45594000000E+02  0.51100000000E-03 0. -1.
    9900012    2    1    2    0    0 -0.89337046987E+01  0.17217833959E+02 -0.38824725322E+02  0.47787260580E+02  0.19999952286E+02 0.  0.
        -12    1    1    2    0    0  0.89337046987E+01 -0.17217833959E+02  0.38824725322E+02  0.43400739420E+02  0.00000000000E+00 0.  1.
         11    1    3    3    0    0  0.31053239057E+00  0.15741667678E+02 -0.28644093136E+02  0.32686091897E+02  0.51100000000E-03 0. -1.
        -11    1    3    3    0    0 -0.13254130222E+01 -0.20364367236E+01 -0.16082688683E+01  0.29138159212E+01  0.51100000000E-03 0.  1.
         12    1    3    3    0    0 -0.79188240671E+01  0.35126030043E+01 -0.85723633184E+01  0.12187352762E+02  0.00000000000E+00 0. -1.
</event>
<event>
 7    1  0.2834226E-010  0.4778727E+02  0.7816164E-02  0.1312668E+00
        -11   -1    0    0    0    0  0.00000000000E+00  0.00000000000E+00  0.45593999997E+02  0.45594000000E+02  0.51100000000E-03 0. -1.
         11   -1    0    0    0    0 -0.00000000000E+00 -0.00000000000E+00 -0.45593999997E+02  0.45594000000E+02  0.51100000000E-03 0.  1.
    9900012    2    1    2    0    0  0.96351708708E+01 -0.27933331842E+02  0.31788610226E+02  0.47787270910E+02  0.19999999386E+02 0.  0.
        -12    1    1    2    0    0 -0.96351708708E+01  0.27933331842E+02 -0.31788610226E+02  0.43400729090E+02  0.00000000000E+00 0.  1.
         11    1    3    3    0    0 -0.32859019297E+00 -0.44888631430E+01  0.21809682410E+01  0.50014484463E+01  0.51100000000E-03 0. -1.
        -11    1    3    3    0    0  0.20095877451E+01 -0.45763079676E+01  0.19154246689E+02  0.19795610725E+02  0.51100000000E-03 0.  1.
        -12    1    3    3    0    0  0.79541733186E+01 -0.18868160731E+02  0.10453395296E+02  0.22990211738E+02  0.00000000000E+00 0.  1.
</event>
<event>
 7    1  0.2834226E-010  0.4778727E+02  0.7816164E-02  0.1312668E+00
        -11   -1    0    0    0    0  0.00000000000E+00  0.00000000000E+00  0.45593999997E+02  0.45594000000E+02  0.51100000000E-03 0. -1.
         11   -1    0    0    0    0 -0.00000000000E+00 -0.00000000000E+00 -0.45593999997E+02  0.45594000000E+02  0.51100000000E-03 0.  1.
    9900012    2    1    2    0    0 -0.11997887494E+02  0.38604321622E+02  0.15791776744E+02  0.47787272300E+02  0.20000005724E+02 0.  0.
        -12    1    1    2    0    0  0.11997887494E+02 -0.38604321622E+02 -0.15791776744E+02  0.43400727700E+02  0.00000000000E+00 0.  1.
         11    1    3    3    0    0  0.19751031659E+00  0.14357887716E+02  0.11431253185E+02  0.18353787065E+02  0.51100000000E-03 0. -1.
        -11    1    3    3    0    0 -0.49392766035E+01  0.13259104771E+02 -0.28321979840E+01  0.14429887677E+02  0.51100000000E-03 0.  1.
        -12    1    3    3    0    0 -0.72561212070E+01  0.10987329135E+02  0.71927215433E+01  0.15003597558E+02  0.00000000000E+00 0.  1.
</event>
<event>
 7    1  0.2834226E-010  0.4778727E+02  0.7816164E-02  0.1312668E+00
        -11   -1    0    0    0    0  0.00000000000E+00  0.00000000000E+00  0.45593999997E+02  0.45594000000E+02  0.51100000000E-03 0. -1.
         11   -1    0    0    0    0 -0.00000000000E+00 -0.00000000000E+00 -0.45593999997E+02  0.45594000000E+02  0.51100000000E-03 0.  1.
    9900012    2    1    2    0    0  0.16062385644E+00  0.32412470169E+02  0.28862247661E+02  0.47787270023E+02  0.19999995344E+02 0.  0.
        -12    1    1    2    0    0 -0.16062385644E+00 -0.32412470169E+02 -0.28862247661E+02  0.43400729977E+02  0.00000000000E+00 0.  1.
         11    1    3    3    0    0 -0.18496613057E+01  0.11131859325E+02  0.20232076214E+02  0.23166278233E+02  0.51100000000E-03 0. -1.
        -11    1    3    3    0    0  0.47798272420E+01  0.69385538035E+01  0.37261545761E+01  0.92127360503E+01  0.51100000000E-03 0.  1.
         12    1    3    3    0    0 -0.27695420799E+01  0.14342057040E+02  0.49040168706E+01  0.15408255740E+02  0.00000000000E+00 0. -1.
</event>
<event>
 7    1  0.2834226E-010  0.4778729E+02  0.7816164E-02  0.1312668E+00
        -11   -1    0    0    0    0  0.00000000000E+00  0.00000000000E+00  0.45593999997E+02  0.45594000000E+02  0.51100000000E-03 0. -1.
         11   -1    0    0    0    0 -0.00000000000E+00 -0.00000000000E+00 -0.45593999997E+02  0.45594000000E+02  0.51100000000E-03 0.  1.
    9900012    2    1    2    0    0  0.40807204879E+02  0.14631081128E+02  0.20797623720E+01  0.47787286682E+02  0.20000071298E+02 0.  0.
        -12    1    1    2    0    0 -0.40807204879E+02 -0.14631081128E+02 -0.20797623720E+01  0.43400713318E+02  0.00000000000E+00 0.  1.
         11    1    3    3    0    0  0.21221710323E+01  0.16242087437E+01  0.21139963899E+01  0.34074396445E+01  0.51100000000E-03 0. -1.
        -11    1    3    3    0    0  0.39280780556E+02  0.13984464544E+02 -0.23861717531E+01  0.41764084876E+02  0.51100000000E-03 0.  1.
        -12    1    3    3    0    0 -0.59574670987E+00 -0.97759215917E+00  0.23519377353E+01  0.26157621609E+01  0.00000000000E+00 0.  1.
</event>
<event>
 7    1  0.2834226E-010  0.4778727E+02  0.7816164E-02  0.1312668E+00
        -11   -1    0    0    0    0  0.00000000000E+00  0.00000000000E+00  0.45593999997E+02  0.45594000000E+02  0.51100000000E-03 0. -1.
         11   -1    0    0    0    0 -0.00000000000E+00 -0.00000000000E+00 -0.45593999997E+02  0.45594000000E+02  0.51100000000E-03 0.  1.
    9900012    2    1    2    0    0  0.17333846395E+02 -0.38407930600E+02  0.10391907601E+02  0.47787272962E+02  0.20000008742E+02 0.  0.
        -12    1    1    2    0    0 -0.17333846395E+02  0.38407930600E+02 -0.10391907601E+02  0.43400727038E+02  0.00000000000E+00 0.  1.
         11    1    3    3    0    0  0.50022320156E+01 -0.16698430912E+02 -0.36755285011E+01  0.17814865424E+02  0.51100000000E-03 0. -1.
        -11    1    3    3    0    0  0.10715396835E+02 -0.10137851433E+02  0.85677149667E+01  0.17058766105E+02  0.51100000000E-03 0.  1.
         12    1    3    3    0    0  0.16162175451E+01 -0.11571648255E+02  0.54997211350E+01  0.12913641433E+02  0.00000000000E+00 0. -1.
</event>
<event>
 7    1  0.2834226E-010  0.4778727E+02  0.7816164E-02  0.1312668E+00
        -11   -1    0    0    0    0  0.00000000000E+00  0.00000000000E+00  0.45593999997E+02  0.45594000000E+02  0.51100000000E-03 0.  1.
         11   -1    0    0    0    0 -0.00000000000E+00 -0.00000000000E+00 -0.45593999997E+02  0.45594000000E+02  0.51100000000E-03 0. -1.
    9900012    2    1    2    0    0  0.29263626349E+02  0.10675720658E+02 -0.30220729256E+02  0.47787270566E+02  0.19999997819E+02 0.  0.
        -12    1    1    2    0    0 -0.29263626349E+02 -0.10675720658E+02  0.30220729256E+02  0.43400729434E+02  0.00000000000E+00 0.  1.
         11    1    3    3    0    0  0.15981181618E+02  0.99561989448E+01 -0.86676988439E+01  0.20728074365E+02  0.51100000000E-03 0. -1.
        -11    1    3    3    0    0  0.14581781551E+02 -0.23256982738E+00 -0.20406437941E+02  0.25081968656E+02  0.51100000000E-03 0.  1.
        -12    1    3    3    0    0 -0.12993368206E+01  0.95209154069E+00 -0.11465924705E+01  0.19772275460E+01  0.00000000000E+00 0.  1.
</event>
<event>
 7    1  0.2834226E-010  0.4778727E+02  0.7816164E-02  0.1312668E+00
        -11   -1    0    0    0    0  0.00000000000E+00  0.00000000000E+00  0.45593999997E+02  0.45594000000E+02  0.51100000000E-03 0.  1.
         11   -1    0    0    0    0 -0.00000000000E+00 -0.00000000000E+00 -0.45593999997E+02  0.45594000000E+02  0.51100000000E-03 0. -1.
    9900012    2    1    2    0    0 -0.11292789032E+02 -0.37637022777E+02  0.18426898767E+02  0.47787272289E+02  0.20000005675E+02 0.  0.
        -12    1    1    2    0    0  0.11292789032E+02  0.37637022777E+02 -0.18426898767E+02  0.43400727711E+02  0.00000000000E+00 0.  1.
         11    1    3    3    0    0 -0.44383418359E+01 -0.12207560769E+02  0.72928921392E+01  0.14896633653E+02  0.51100000000E-03 0. -1.
        -11    1    3    3    0    0 -0.12904513655E+01 -0.10756279926E+02  0.13184670780E+02  0.17064535342E+02  0.51100000000E-03 0.  1.
        -12    1    3    3    0    0 -0.55639958310E+01 -0.14673182082E+02 -0.20506641529E+01  0.15826103294E+02  0.00000000000E+00 0.  1.
</event>
<event>
 7    1  0.2834226E-010  0.4778727E+02  0.7816164E-02  0.1312668E+00
        -11   -1    0    0    0    0  0.00000000000E+00  0.00000000000E+00  0.45593999997E+02  0.45594000000E+02  0.51100000000E-03 0.  1.
         11   -1    0    0    0    0 -0.00000000000E+00 -0.00000000000E+00 -0.45593999997E+02  0.45594000000E+02  0.51100000000E-03 0. -1.
    9900012    2    1    2    0    0 -0.91352498972E+01  0.40063702265E+01 -0.42238837641E+02  0.47787271915E+02  0.20000003968E+02 0.  0.
        -12    1    1    2    0    0  0.91352498972E+01 -0.40063702265E+01  0.42238837641E+02  0.43400728085E+02  0.00000000000E+00 0.  1.
         11    1    3    3    0    0  0.28357096977E+01 -0.57948529964E+01 -0.85893764756E+01  0.10742390760E+02  0.51100000000E-03 0.  1.
        -11    1    3    3    0    0 -0.82216404627E+01  0.65391485529E+01 -0.21987420522E+02  0.24368063057E+02  0.51100000000E-03 0. -1.
        -12    1    3    3    0    0 -0.37493191322E+01  0.32620746700E+01 -0.11662040643E+02  0.12676818097E+02  0.00000000000E+00 0.  1.
</event>
<event>
 7    1  0.2834226E-010  0.4778727E+02  0.7816164E-02  0.1312668E+00
        -11   -1    0    0    0    0  0.00000000000E+00  0.00000000000E+00  0.45593999997E+02  0.45594000000E+02  0.51100000000E-03 0.  1.
         11   -1    0    0    0    0 -0.00000000000E+00 -0.00000000000E+00 -0.45593999997E+02  0.45594000000E+02  0.51100000000E-03 0. -1.
    9900012    2    1    2    0    0 -0.16576291094E+02 -0.38859566389E+02 -0.99390238330E+01  0.47787268196E+02  0.19999987015E+02 0.  0.
        -12    1    1    2    0    0  0.16576291094E+02  0.38859566389E+02  0.99390238330E+01  0.43400731804E+02  0.00000000000E+00 0.  1.
         11    1    3    3    0    0 -0.28653506772E+01 -0.79593954238E+01 -0.30836640907E+01  0.90039543813E+01  0.51100000000E-03 0. -1.
        -11    1    3    3    0    0 -0.13671138047E+02 -0.22846658900E+02 -0.12024000663E+02  0.29213805480E+02  0.51100000000E-03 0.  1.
        -12    1    3    3    0    0 -0.39802369058E-01 -0.80535120652E+01  0.51686409209E+01  0.95695083355E+01  0.00000000000E+00 0.  1.
</event>
<event>
 7    1  0.2834226E-010  0.4778727E+02  0.7816164E-02  0.1312668E+00
        -11   -1    0    0    0    0  0.00000000000E+00  0.00000000000E+00  0.45593999997E+02  0.45594000000E+02  0.51100000000E-03 0.  1.
         11   -1    0    0    0    0 -0.00000000000E+00 -0.00000000000E+00 -0.45593999997E+02  0.45594000000E+02  0.51100000000E-03 0. -1.
    9900012    2    1    2    0    0 -0.21968791244E+02  0.36745091471E+02 -0.71270006646E+01  0.47787266430E+02  0.19999978962E+02 0.  0.
        -12    1    1    2    0    0  0.21968791244E+02 -0.36745091471E+02  0.71270006646E+01  0.43400733570E+02  0.00000000000E+00 0.  1.
         11    1    3    3    0    0 -0.17679478451E+02  0.29354106182E+02 -0.45829000516E+01  0.34572105536E+02  0.51100000000E-03 0. -1.
        -11    1    3    3    0    0 -0.73256985354E+01  0.42258854578E+01 -0.79956752090E+00  0.84948970221E+01  0.51100000000E-03 0.  1.
         12    1    3    3    0    0  0.30363857420E+01  0.31650998307E+01 -0.17445330920E+01  0.47202638720E+01  0.00000000000E+00 0. -1.
</event>
<event>
 7    1  0.2834226E-010  0.4778728E+02  0.7816164E-02  0.1312668E+00
        -11   -1    0    0    0    0  0.00000000000E+00  0.00000000000E+00  0.45593999997E+02  0.45594000000E+02  0.51100000000E-03 0. -1.
         11   -1    0    0    0    0 -0.00000000000E+00 -0.00000000000E+00 -0.45593999997E+02  0.45594000000E+02  0.51100000000E-03 0.  1.
    9900012    2    1    2    0    0  0.10052846332E+02  0.42220018924E+02  0.18210434921E+00  0.47787275590E+02  0.20000020727E+02 0.  0.
        -12    1    1    2    0    0 -0.10052846332E+02 -0.42220018924E+02 -0.18210434921E+00  0.43400724410E+02  0.00000000000E+00 0.  1.
         11    1    3    3    0    0  0.95448229436E+01  0.20978886803E+02 -0.47226501394E+01  0.23527021934E+02  0.51100000000E-03 0. -1.
        -11    1    3    3    0    0 -0.34741618728E+01  0.18392268959E+02  0.27801437359E+01  0.18922858072E+02  0.51100000000E-03 0.  1.
        -12    1    3    3    0    0  0.39821852607E+01  0.28488631625E+01  0.21246107528E+01  0.53373955840E+01  0.00000000000E+00 0.  1.
</event>
<event>
 7    1  0.2834226E-010  0.4778727E+02  0.7816164E-02  0.1312668E+00
        -11   -1    0    0    0    0  0.00000000000E+00  0.00000000000E+00  0.45593999997E+02  0.45594000000E+02  0.51100000000E-03 0. -1.
         11   -1    0    0    0    0 -0.00000000000E+00 -0.00000000000E+00 -0.45593999997E+02  0.45594000000E+02  0.51100000000E-03 0.  1.
    9900012    2    1    2    0    0 -0.42040563033E+02  0.19302792768E+01  0.10606073792E+02  0.47787265910E+02  0.19999976592E+02 0.  0.
        -12    1    1    2    0    0  0.42040563033E+02 -0.19302792768E+01 -0.10606073792E+02  0.43400734090E+02  0.00000000000E+00 0.  1.
         11    1    3    3    0    0 -0.72147832952E+01 -0.18050760890E+01  0.83452213319E+01  0.11178287750E+02  0.51100000000E-03 0. -1.
        -11    1    3    3    0    0 -0.18869011219E+01 -0.58578304504E+00 -0.23491529677E+01  0.30695370248E+01  0.51100000000E-03 0.  1.
         12    1    3    3    0    0 -0.32938878616E+02  0.43211384109E+01  0.46100054280E+01  0.33539441136E+02  0.00000000000E+00 0. -1.
</event>
<event>
 7    1  0.2834226E-010  0.4778727E+02  0.7816164E-02  0.1312668E+00
        -11   -1    0    0    0    0  0.00000000000E+00  0.00000000000E+00  0.45593999997E+02  0.45594000000E+02  0.51100000000E-03 0.  1.
         11   -1    0    0    0    0 -0.00000000000E+00 -0.00000000000E+00 -0.45593999997E+02  0.45594000000E+02  0.51100000000E-03 0. -1.
    9900012    2    1    2    0    0 -0.16500188603E+02 -0.10898660773E+02 -0.38634003325E+02  0.47787271394E+02  0.20000001595E+02 0.  0.
        -12    1    1    2    0    0  0.16500188603E+02  0.10898660773E+02  0.38634003325E+02  0.43400728606E+02  0.00000000000E+00 0.  1.
         11    1    3    3    0    0 -0.57170751101E+01  0.29117682297E+01 -0.72946312623E+01  0.97146789732E+01  0.51100000000E-03 0. -1.
        -11    1    3    3    0    0 -0.46691883860E+00  0.18110126581E+01 -0.40317215698E+00  0.19131983951E+01  0.51100000000E-03 0.  1.
         12    1    3    3    0    0 -0.10316194655E+02 -0.15621441660E+02 -0.30936199906E+02  0.36159394026E+02  0.00000000000E+00 0. -1.
</event>
<event>
 7    1  0.2834226E-010  0.4778727E+02  0.7816164E-02  0.1312668E+00
        -11   -1    0    0    0    0  0.00000000000E+00  0.00000000000E+00  0.45593999997E+02  0.45594000000E+02  0.51100000000E-03 0. -1.
         11   -1    0    0    0    0 -0.00000000000E+00 -0.00000000000E+00 -0.45593999997E+02  0.45594000000E+02  0.51100000000E-03 0.  1.
    9900012    2    1    2    0    0 -0.33825137760E+02 -0.26632544921E+02 -0.54946218427E+01  0.47787271174E+02  0.20000000590E+02 0.  0.
        -12    1    1    2    0    0  0.33825137760E+02  0.26632544921E+02  0.54946218427E+01  0.43400728826E+02  0.00000000000E+00 0.  1.
         11    1    3    3    0    0 -0.14405084331E+02 -0.33722504728E+01 -0.14772055278E+01  0.14868108967E+02  0.51100000000E-03 0. -1.
        -11    1    3    3    0    0 -0.95629066163E+01 -0.19506862962E+02 -0.27256619811E+00  0.21726508651E+02  0.51100000000E-03 0.  1.
        -12    1    3    3    0    0 -0.98571468133E+01 -0.37534314856E+01 -0.37448501168E+01  0.11192653556E+02  0.00000000000E+00 0.  1.
</event>
<event>
 7    1  0.2834226E-010  0.4778727E+02  0.7816164E-02  0.1312668E+00
        -11   -1    0    0    0    0  0.00000000000E+00  0.00000000000E+00  0.45593999997E+02  0.45594000000E+02  0.51100000000E-03 0.  1.
         11   -1    0    0    0    0 -0.00000000000E+00 -0.00000000000E+00 -0.45593999997E+02  0.45594000000E+02  0.51100000000E-03 0. -1.
    9900012    2    1    2    0    0  0.16292967352E+02 -0.25051617076E+02 -0.31473463916E+02  0.47787271502E+02  0.20000002086E+02 0.  0.
        -12    1    1    2    0    0 -0.16292967352E+02  0.25051617076E+02  0.31473463916E+02  0.43400728498E+02  0.00000000000E+00 0.  1.
         11    1    3    3    0    0  0.91900724187E+00  0.14969975177E+01 -0.29374469196E+01  0.34225970468E+01  0.51100000000E-03 0. -1.
        -11    1    3    3    0    0  0.36390464133E+01 -0.46626747228E+01  0.75571851669E+00  0.59627430858E+01  0.51100000000E-03 0.  1.
        -12    1    3    3    0    0  0.11734913697E+02 -0.21885939871E+02 -0.29291735513E+02  0.38401931369E+02  0.00000000000E+00 0.  1.
</event>
<event>
 7    1  0.2834226E-010  0.4778727E+02  0.7816164E-02  0.1312668E+00
        -11   -1    0    0    0    0  0.00000000000E+00  0.00000000000E+00  0.45593999997E+02  0.45594000000E+02  0.51100000000E-03 0. -1.
         11   -1    0    0    0    0 -0.00000000000E+00 -0.00000000000E+00 -0.45593999997E+02  0.45594000000E+02  0.51100000000E-03 0.  1.
    9900012    2    1    2    0    0  0.36367931233E+01 -0.34340757817E+02  0.26288959172E+02  0.47787270905E+02  0.19999999363E+02 0.  0.
        -12    1    1    2    0    0 -0.36367931233E+01  0.34340757817E+02 -0.26288959172E+02  0.43400729095E+02  0.00000000000E+00 0.  1.
         11    1    3    3    0    0 -0.70138583906E+01 -0.85649154729E+01  0.10989123202E+02  0.15598487606E+02  0.51100000000E-03 0. -1.
        -11    1    3    3    0    0  0.94724678484E+01 -0.25358449046E+02  0.14658014541E+02  0.30783696589E+02  0.51100000000E-03 0.  1.
         12    1    3    3    0    0  0.11781836656E+01 -0.41739329800E+00  0.64182142818E+00  0.14050867093E+01  0.00000000000E+00 0. -1.
</event>
<event>
 7    1  0.2834226E-010  0.4778727E+02  0.7816164E-02  0.1312668E+00
        -11   -1    0    0    0    0  0.00000000000E+00  0.00000000000E+00  0.45593999997E+02  0.45594000000E+02  0.51100000000E-03 0.  1.
         11   -1    0    0    0    0 -0.00000000000E+00 -0.00000000000E+00 -0.45593999997E+02  0.45594000000E+02  0.51100000000E-03 0. -1.
    9900012    2    1    2    0    0 -0.87626882841E+01 -0.22704705709E+02 -0.35935147079E+02  0.47787272323E+02  0.20000005831E+02 0.  0.
        -12    1    1    2    0    0  0.87626882841E+01  0.22704705709E+02  0.35935147079E+02  0.43400727677E+02  0.00000000000E+00 0.  1.
         11    1    3    3    0    0 -0.23182717443E+01 -0.13334853363E+02 -0.23211163276E+02  0.26869142133E+02  0.51100000000E-03 0. -1.
        -11    1    3    3    0    0 -0.26144795932E+01  0.25432583101E+01 -0.50824999860E+01  0.62558350957E+01  0.51100000000E-03 0.  1.
        -12    1    3    3    0    0 -0.38299369466E+01 -0.11913110655E+02 -0.76414838170E+01  0.14662295094E+02  0.00000000000E+00 0.  1.
</event>
<event>
 7    1  0.2834226E-010  0.4778727E+02  0.7816164E-02  0.1312668E+00
        -11   -1    0    0    0    0  0.00000000000E+00  0.00000000000E+00  0.45593999997E+02  0.45594000000E+02  0.51100000000E-03 0. -1.
         11   -1    0    0    0    0 -0.00000000000E+00 -0.00000000000E+00 -0.45593999997E+02  0.45594000000E+02  0.51100000000E-03 0.  1.
    9900012    2    1    2    0    0 -0.31353706306E+02  0.97901422096E+01  0.28367614374E+02  0.47787270410E+02  0.19999997110E+02 0.  0.
        -12    1    1    2    0    0  0.31353706306E+02 -0.97901422096E+01 -0.28367614374E+02  0.43400729590E+02  0.00000000000E+00 0.  1.
         11    1    3    3    0    0 -0.51787239971E+01  0.24689093360E+01  0.46618818512E+01  0.73924176155E+01  0.51100000000E-03 0. -1.
        -11    1    3    3    0    0  0.18401949924E+01 -0.26117407323E+00  0.62641692695E+01  0.65340910925E+01  0.51100000000E-03 0.  1.
        -12    1    3    3    0    0 -0.28015177301E+02  0.75824069468E+01  0.17441563254E+02  0.33860761702E+02  0.00000000000E+00 0.  1.
</event>
<event>
 7    1  0.2834226E-010  0.4778722E+02  0.7816164E-02  0.1312668E+00
        -11   -1    0    0    0    0  0.00000000000E+00  0.00000000000E+00  0.45593999997E+02  0.45594000000E+02  0.51100000000E-03 0.  1.
         11   -1    0    0    0    0 -0.00000000000E+00 -0.00000000000E+00 -0.45593999997E+02  0.45594000000E+02  0.51100000000E-03 0. -1.
    9900012    2    1    2    0    0 -0.27301770455E+02  0.26073706273E+02 -0.21410335744E+02  0.47787224598E+02  0.19999788232E+02 0.  0.
        -12    1    1    2    0    0  0.27301770455E+02 -0.26073706273E+02  0.21410335744E+02  0.43400775402E+02  0.00000000000E+00 0.  1.
         11    1    3    3    0    0 -0.14609965461E+02  0.16306466495E+02 -0.15319243578E+02  0.26721361574E+02  0.51100000000E-03 0. -1.
        -11    1    3    3    0    0 -0.36882977015E+01  0.39354789225E+01  0.37011263565E+01  0.65413967050E+01  0.51100000000E-03 0.  1.
         12    1    3    3    0    0 -0.90035072933E+01  0.58317608552E+01 -0.97922185233E+01  0.14524466319E+02  0.00000000000E+00 0. -1.
</event>
<event>
 7    1  0.2834226E-010  0.4778728E+02  0.7816164E-02  0.1312668E+00
        -11   -1    0    0    0    0  0.00000000000E+00  0.00000000000E+00  0.45593999997E+02  0.45594000000E+02  0.51100000000E-03 0. -1.
         11   -1    0    0    0    0 -0.00000000000E+00 -0.00000000000E+00 -0.45593999997E+02  0.45594000000E+02  0.51100000000E-03 0.  1.
    9900012    2    1    2    0    0  0.19860830981E+02  0.75844123137E+01  0.37837108329E+02  0.47787277839E+02  0.20000030978E+02 0.  0.
        -12    1    1    2    0    0 -0.19860830981E+02 -0.75844123137E+01 -0.37837108329E+02  0.43400722161E+02  0.00000000000E+00 0.  1.
         11    1    3    3    0    0  0.12229643501E+02 -0.28235377828E+01  0.14626687246E+02  0.19273726309E+02  0.51100000000E-03 0. -1.
        -11    1    3    3    0    0  0.68557048780E+00  0.20623014134E+00 -0.10636758855E+01  0.12821639581E+01  0.51100000000E-03 0.  1.
         12    1    3    3    0    0  0.69456169922E+01  0.10201719955E+02  0.24274096969E+02  0.27231387572E+02  0.00000000000E+00 0. -1.
</event>
<event>
 7    1  0.2834226E-010  0.4778728E+02  0.7816164E-02  0.1312668E+00
        -11   -1    0    0    0    0  0.00000000000E+00  0.00000000000E+00  0.45593999997E+02  0.45594000000E+02  0.51100000000E-03 0.  1.
         11   -1    0    0    0    0 -0.00000000000E+00 -0.00000000000E+00 -0.45593999997E+02  0.45594000000E+02  0.51100000000E-03 0. -1.
    9900012    2    1    2    0    0  0.39277756975E+02 -0.27590609263E+00 -0.18460886764E+02  0.47787278148E+02  0.20000032387E+02 0.  0.
        -12    1    1    2    0    0 -0.39277756975E+02  0.27590609263E+00  0.18460886764E+02  0.43400721852E+02  0.00000000000E+00 0.  1.
         11    1    3    3    0    0  0.31132887658E+02 -0.23454116933E+01 -0.15378573669E+02  0.34803134605E+02  0.51100000000E-03 0. -1.
        -11    1    3    3    0    0  0.60153889617E+01 -0.32111727060E+01 -0.86380891663E+00  0.68733325697E+01  0.51100000000E-03 0.  1.
         12    1    3    3    0    0  0.21294803551E+01  0.52806783067E+01 -0.22185041779E+01  0.61108109731E+01  0.00000000000E+00 0. -1.
</event>
<event>
 7    1  0.2834226E-010  0.4778727E+02  0.7816164E-02  0.1312668E+00
        -11   -1    0    0    0    0  0.00000000000E+00  0.00000000000E+00  0.45593999997E+02  0.45594000000E+02  0.51100000000E-03 0.  1.
         11   -1    0    0    0    0 -0.00000000000E+00 -0.00000000000E+00 -0.45593999997E+02  0.45594000000E+02  0.51100000000E-03 0. -1.
    9900012    2    1    2    0    0 -0.75630514182E+01 -0.42352021641E+02  0.57209836020E+01  0.47787272619E+02  0.20000007179E+02 0.  0.
        -12    1    1    2    0    0  0.75630514182E+01  0.42352021641E+02 -0.57209836020E+01  0.43400727381E+02  0.00000000000E+00 0.  1.
         11    1    3    3    0    0 -0.19055272196E+01 -0.37577989014E+01 -0.55516522489E+00  0.42497406104E+01  0.51100000000E-03 0. -1.
        -11    1    3    3    0    0 -0.92665061049E+01 -0.11515579976E+02 -0.21794415767E+01  0.14940772518E+02  0.51100000000E-03 0.  1.
        -12    1    3    3    0    0  0.36089819063E+01 -0.27078642763E+02  0.84555904036E+01  0.28596759491E+02  0.00000000000E+00 0.  1.
</event>
<event>
 7    1  0.2834226E-010  0.4778727E+02  0.7816164E-02  0.1312668E+00
        -11   -1    0    0    0    0  0.00000000000E+00  0.00000000000E+00  0.45593999997E+02  0.45594000000E+02  0.51100000000E-03 0.  1.
         11   -1    0    0    0    0 -0.00000000000E+00 -0.00000000000E+00 -0.45593999997E+02  0.45594000000E+02  0.51100000000E-03 0. -1.
    9900012    2    1    2    0    0 -0.14655226256E+02 -0.28689341336E+02 -0.29082113972E+02  0.47787270560E+02  0.19999997791E+02 0.  0.
        -12    1    1    2    0    0  0.14655226256E+02  0.28689341336E+02  0.29082113972E+02  0.43400729440E+02  0.00000000000E+00 0.  1.
         11    1    3    3    0    0 -0.10878509281E+02 -0.17482029827E+02 -0.20638195697E+02  0.29153017905E+02  0.51100000000E-03 0. -1.
        -11    1    3    3    0    0 -0.43236522775E+01 -0.66424845216E+01  0.11375102235E+01  0.80069032344E+01  0.51100000000E-03 0.  1.
         12    1    3    3    0    0  0.54693530304E+00 -0.45648269869E+01 -0.95814284981E+01  0.10627349421E+02  0.00000000000E+00 0. -1.
</event>
<event>
 7    1  0.2834226E-010  0.4778726E+02  0.7816164E-02  0.1312668E+00
        -11   -1    0    0    0    0  0.00000000000E+00  0.00000000000E+00  0.45593999997E+02  0.45594000000E+02  0.51100000000E-03 0.  1.
         11   -1    0    0    0    0 -0.00000000000E+00 -0.00000000000E+00 -0.45593999997E+02  0.45594000000E+02  0.51100000000E-03 0. -1.
    9900012    2    1    2    0    0  0.98423099113E+01  0.42233541878E+02 -0.17553802428E+01  0.47787257106E+02  0.19999936451E+02 0.  0.
        -12    1    1    2    0    0 -0.98423099113E+01 -0.42233541878E+02  0.17553802428E+01  0.43400742894E+02  0.00000000000E+00 0.  1.
         11    1    3    3    0    0 -0.88186973023E+00  0.49636259415E+01 -0.66948313109E+00  0.50856154624E+01  0.51100000000E-03 0. -1.
        -11    1    3    3    0    0  0.38618837500E+01  0.37591141223E-01  0.26114259346E+01  0.46620923270E+01  0.51100000000E-03 0.  1.
        -12    1    3    3    0    0  0.68622958915E+01  0.37232324795E+02 -0.36973230463E+01  0.38039549317E+02  0.00000000000E+00 0.  1.
</event>
<event>
 7    1  0.2834226E-010  0.4778727E+02  0.7816164E-02  0.1312668E+00
        -11   -1    0    0    0    0  0.00000000000E+00  0.00000000000E+00  0.45593999997E+02  0.45594000000E+02  0.51100000000E-03 0.  1.
         11   -1    0    0    0    0 -0.00000000000E+00 -0.00000000000E+00 -0.45593999997E+02  0.45594000000E+02  0.51100000000E-03 0. -1.
    9900012    2    1    2    0    0  0.38279163854E+02 -0.10481786649E+02 -0.17563061376E+02  0.47787270034E+02  0.19999995392E+02 0.  0.
        -12    1    1    2    0    0 -0.38279163854E+02  0.10481786649E+02  0.17563061376E+02  0.43400729966E+02  0.00000000000E+00 0.  1.
         11    1    3    3    0    0  0.17001355666E+02 -0.19611005845E+01 -0.21481816252E+01  0.17248382375E+02  0.51100000000E-03 0. -1.
        -11    1    3    3    0    0  0.19277811403E+02 -0.88829055691E+01 -0.17586172926E+02  0.27564714805E+02  0.51100000000E-03 0.  1.
        -12    1    3    3    0    0  0.19999967854E+01  0.36221950482E+00  0.21712931759E+01  0.29741728543E+01  0.00000000000E+00 0.  1.
</event>
<event>
 7    1  0.2834226E-010  0.4778727E+02  0.7816164E-02  0.1312668E+00
        -11   -1    0    0    0    0  0.00000000000E+00  0.00000000000E+00  0.45593999997E+02  0.45594000000E+02  0.51100000000E-03 0.  1.
         11   -1    0    0    0    0 -0.00000000000E+00 -0.00000000000E+00 -0.45593999997E+02  0.45594000000E+02  0.51100000000E-03 0. -1.
    9900012    2    1    2    0    0 -0.38007850628E+01  0.32996391411E+02 -0.27935916871E+02  0.47787271150E+02  0.20000000483E+02 0.  0.
        -12    1    1    2    0    0  0.38007850628E+01 -0.32996391411E+02  0.27935916871E+02  0.43400728850E+02  0.00000000000E+00 0.  1.
         11    1    3    3    0    0  0.50927262339E+01  0.24545877223E+02 -0.17925642549E+02  0.30818251251E+02  0.51100000000E-03 0.  1.
        -11    1    3    3    0    0 -0.75841054165E+01  0.87127580741E+01 -0.65935334592E+01  0.13300582392E+02  0.51100000000E-03 0. -1.
         12    1    3    3    0    0 -0.13094058802E+01 -0.26224388648E+00 -0.34167408635E+01  0.36684375070E+01  0.00000000000E+00 0. -1.
</event>
<event>
 7    1  0.2834226E-010  0.4778727E+02  0.7816164E-02  0.1312668E+00
        -11   -1    0    0    0    0  0.00000000000E+00  0.00000000000E+00  0.45593999997E+02  0.45594000000E+02  0.51100000000E-03 0. -1.
         11   -1    0    0    0    0 -0.00000000000E+00 -0.00000000000E+00 -0.45593999997E+02  0.45594000000E+02  0.51100000000E-03 0.  1.
    9900012    2    1    2    0    0  0.12025818547E+02  0.35409309151E+02  0.22026896997E+02  0.47787266394E+02  0.19999978797E+02 0.  0.
        -12    1    1    2    0    0 -0.12025818547E+02 -0.35409309151E+02 -0.22026896997E+02  0.43400733606E+02  0.00000000000E+00 0.  1.
         11    1    3    3    0    0  0.11497364022E+02  0.14381774701E+02  0.48819656423E+01  0.19048842794E+02  0.51100000000E-03 0. -1.
        -11    1    3    3    0    0  0.32226775326E+01  0.20209996036E+01  0.36606356376E+01  0.52792370101E+01  0.51100000000E-03 0.  1.
         12    1    3    3    0    0 -0.26942230077E+01  0.19006534846E+02  0.13484295717E+02  0.23459186590E+02  0.00000000000E+00 0. -1.
</event>
<event>
 7    1  0.2834226E-010  0.4778727E+02  0.7816164E-02  0.1312668E+00
        -11   -1    0    0    0    0  0.00000000000E+00  0.00000000000E+00  0.45593999997E+02  0.45594000000E+02  0.51100000000E-03 0.  1.
         11   -1    0    0    0    0 -0.00000000000E+00 -0.00000000000E+00 -0.45593999997E+02  0.45594000000E+02  0.51100000000E-03 0. -1.
    9900012    2    1    2    0    0 -0.13948001747E+02  0.36817531618E+02 -0.18263247799E+02  0.47787267203E+02  0.19999982484E+02 0.  0.
        -12    1    1    2    0    0  0.13948001747E+02 -0.36817531618E+02  0.18263247799E+02  0.43400732797E+02  0.00000000000E+00 0.  1.
         11    1    3    3    0    0  0.47106741745E+00  0.76016677246E+01 -0.31635211821E+01  0.82471281812E+01  0.51100000000E-03 0. -1.
        -11    1    3    3    0    0 -0.10553851245E+02  0.29160618101E+02 -0.89517086312E+01  0.32277833133E+02  0.51100000000E-03 0.  1.
        -12    1    3    3    0    0 -0.38652179195E+01  0.55245792937E-01 -0.61480179854E+01  0.72623058881E+01  0.00000000000E+00 0.  1.
</event>
<event>
 7    1  0.2834226E-010  0.4778727E+02  0.7816164E-02  0.1312668E+00
        -11   -1    0    0    0    0  0.00000000000E+00  0.00000000000E+00  0.45593999997E+02  0.45594000000E+02  0.51100000000E-03 0.  1.
         11   -1    0    0    0    0 -0.00000000000E+00 -0.00000000000E+00 -0.45593999997E+02  0.45594000000E+02  0.51100000000E-03 0. -1.
    9900012    2    1    2    0    0 -0.29180429418E+02 -0.29838427372E+02 -0.11907729918E+02  0.47787271425E+02  0.20000001734E+02 0.  0.
        -12    1    1    2    0    0  0.29180429418E+02  0.29838427372E+02  0.11907729918E+02  0.43400728575E+02  0.00000000000E+00 0.  1.
         11    1    3    3    0    0 -0.28765639389E+02 -0.19570397993E+02 -0.84066755546E+01  0.35792941779E+02  0.51100000000E-03 0. -1.
        -11    1    3    3    0    0  0.11710365668E+01 -0.37357498412E+01  0.82445546894E+00  0.40008599823E+01  0.51100000000E-03 0.  1.
        -12    1    3    3    0    0 -0.15858265961E+01 -0.65322795373E+01 -0.43255098326E+01  0.79934696633E+01  0.00000000000E+00 0.  1.
</event>
<event>
 7    1  0.2834226E-010  0.4778727E+02  0.7816164E-02  0.1312668E+00
        -11   -1    0    0    0    0  0.00000000000E+00  0.00000000000E+00  0.45593999997E+02  0.45594000000E+02  0.51100000000E-03 0. -1.
         11   -1    0    0    0    0 -0.00000000000E+00 -0.00000000000E+00 -0.45593999997E+02  0.45594000000E+02  0.51100000000E-03 0.  1.
    9900012    2    1    2    0    0  0.14252286987E+02  0.32130296413E+02 -0.25458586415E+02  0.47787271271E+02  0.20000001034E+02 0.  0.
        -12    1    1    2    0    0 -0.14252286987E+02 -0.32130296413E+02  0.25458586415E+02  0.43400728729E+02  0.00000000000E+00 0.  1.
         11    1    3    3    0    0  0.43881555318E+01  0.10693489204E+02 -0.12519226629E+02  0.17039297402E+02  0.51100000000E-03 0. -1.
        -11    1    3    3    0    0  0.70515502382E+01  0.22658646190E+02 -0.82083496051E+01  0.25110069921E+02  0.51100000000E-03 0.  1.
        -12    1    3    3    0    0  0.28125812174E+01 -0.12218389807E+01 -0.47310101805E+01  0.56379039481E+01  0.00000000000E+00 0.  1.
</event>
<event>
 7    1  0.2834226E-010  0.4778727E+02  0.7816164E-02  0.1312668E+00
        -11   -1    0    0    0    0  0.00000000000E+00  0.00000000000E+00  0.45593999997E+02  0.45594000000E+02  0.51100000000E-03 0.  1.
         11   -1    0    0    0    0 -0.00000000000E+00 -0.00000000000E+00 -0.45593999997E+02  0.45594000000E+02  0.51100000000E-03 0. -1.
    9900012    2    1    2    0    0 -0.25290450016E+02 -0.22580930356E+02 -0.27094605637E+02  0.47787274979E+02  0.20000017937E+02 0.  0.
        -12    1    1    2    0    0  0.25290450016E+02  0.22580930356E+02  0.27094605637E+02  0.43400725021E+02  0.00000000000E+00 0.  1.
         11    1    3    3    0    0 -0.14192098030E+02 -0.32118410419E+01 -0.18811766771E+02  0.23782643644E+02  0.51100000000E-03 0. -1.
        -11    1    3    3    0    0 -0.40908868950E+01 -0.10202487592E+02 -0.40547554141E+01  0.11716106451E+02  0.51100000000E-03 0.  1.
         12    1    3    3    0    0 -0.70074650913E+01 -0.91666017223E+01 -0.42280834516E+01  0.12288524884E+02  0.00000000000E+00 0. -1.
</event>
<event>
 7    1  0.2834226E-010  0.4778727E+02  0.7816164E-02  0.1312668E+00
        -11   -1    0    0    0    0  0.00000000000E+00  0.00000000000E+00  0.45593999997E+02  0.45594000000E+02  0.51100000000E-03 0.  1.
         11   -1    0    0    0    0 -0.00000000000E+00 -0.00000000000E+00 -0.45593999997E+02  0.45594000000E+02  0.51100000000E-03 0. -1.
    9900012    2    1    2    0    0  0.19411872618E+02  0.25309456174E+02 -0.29431850758E+02  0.47787271787E+02  0.20000003386E+02 0.  0.
        -12    1    1    2    0    0 -0.19411872618E+02 -0.25309456174E+02  0.29431850758E+02  0.43400728213E+02  0.00000000000E+00 0.  1.
         11    1    3    3    0    0  0.19626675252E+02  0.28320178078E+02 -0.27808043544E+02  0.44277829146E+02  0.51100000000E-03 0. -1.
        -11    1    3    3    0    0  0.23284524810E+00 -0.18595635871E+01 -0.10395121493E+01  0.21430770900E+01  0.51100000000E-03 0.  1.
         12    1    3    3    0    0 -0.44764788209E+00 -0.11511583171E+01 -0.58429506462E+00  0.13663655514E+01  0.00000000000E+00 0. -1.
</event>
<event>
 7    1  0.2834226E-010  0.4778727E+02  0.7816164E-02  0.1312668E+00
        -11   -1    0    0    0    0  0.00000000000E+00  0.00000000000E+00  0.45593999997E+02  0.45594000000E+02  0.51100000000E-03 0.  1.
         11   -1    0    0    0    0 -0.00000000000E+00 -0.00000000000E+00 -0.45593999997E+02  0.45594000000E+02  0.51100000000E-03 0. -1.
    9900012    2    1    2    0    0 -0.62432048026E+01  0.31272848129E+02 -0.29439002597E+02  0.47787268321E+02  0.19999987584E+02 0.  0.
        -12    1    1    2    0    0  0.62432048026E+01 -0.31272848129E+02  0.29439002597E+02  0.43400731679E+02  0.00000000000E+00 0.  1.
         11    1    3    3    0    0 -0.18825034826E+01  0.71554311937E+01 -0.17769773619E+02  0.19248606954E+02  0.51100000000E-03 0. -1.
        -11    1    3    3    0    0  0.20300914045E+01  0.42625719805E+01 -0.43900239832E+01  0.64469451552E+01  0.51100000000E-03 0.  1.
         12    1    3    3    0    0 -0.63907927245E+01  0.19854844955E+02 -0.72792049948E+01  0.22091716212E+02  0.00000000000E+00 0. -1.
</event>
<event>
 7    1  0.2834226E-010  0.4778728E+02  0.7816164E-02  0.1312668E+00
        -11   -1    0    0    0    0  0.00000000000E+00  0.00000000000E+00  0.45593999997E+02  0.45594000000E+02  0.51100000000E-03 0. -1.
         11   -1    0    0    0    0 -0.00000000000E+00 -0.00000000000E+00 -0.45593999997E+02  0.45594000000E+02  0.51100000000E-03 0.  1.
    9900012    2    1    2    0    0 -0.30632494030E+02  0.27487941355E+02 -0.13772659539E+02  0.47787276950E+02  0.20000026926E+02 0.  0.
        -12    1    1    2    0    0  0.30632494030E+02 -0.27487941355E+02  0.13772659539E+02  0.43400723050E+02  0.00000000000E+00 0.  1.
         11    1    3    3    0    0 -0.16237233127E+02  0.44640082287E+01 -0.91609260790E+01  0.19170228897E+02  0.51100000000E-03 0. -1.
        -11    1    3    3    0    0 -0.96138554886E+01  0.20554019448E+02 -0.49494687528E+01  0.23224796533E+02  0.51100000000E-03 0.  1.
        -12    1    3    3    0    0 -0.47814054147E+01  0.24699136789E+01  0.33773529248E+00  0.53922515194E+01  0.00000000000E+00 0.  1.
</event>
<event>
 7    1  0.2834226E-010  0.4778727E+02  0.7816164E-02  0.1312668E+00
        -11   -1    0    0    0    0  0.00000000000E+00  0.00000000000E+00  0.45593999997E+02  0.45594000000E+02  0.51100000000E-03 0.  1.
         11   -1    0    0    0    0 -0.00000000000E+00 -0.00000000000E+00 -0.45593999997E+02  0.45594000000E+02  0.51100000000E-03 0. -1.
    9900012    2    1    2    0    0 -0.85962896971E+00 -0.30780955675E+01 -0.43282900604E+02  0.47787272828E+02  0.20000008134E+02 0.  0.
        -12    1    1    2    0    0  0.85962896971E+00  0.30780955675E+01  0.43282900604E+02  0.43400727172E+02  0.00000000000E+00 0.  1.
         11    1    3    3    0    0  0.31433969601E+01  0.58541164579E+01 -0.10242459439E+02  0.12208996665E+02  0.51100000000E-03 0. -1.
        -11    1    3    3    0    0 -0.31133399805E+01 -0.63309688748E+01 -0.92697405664E+01  0.11649126283E+02  0.51100000000E-03 0.  1.
         12    1    3    3    0    0 -0.88968594937E+00 -0.26012431506E+01 -0.23770700599E+02  0.23929149880E+02  0.00000000000E+00 0. -1.
</event>
<event>
 7    1  0.2834226E-010  0.4778727E+02  0.7816164E-02  0.1312668E+00
        -11   -1    0    0    0    0  0.00000000000E+00  0.00000000000E+00  0.45593999997E+02  0.45594000000E+02  0.51100000000E-03 0.  1.
         11   -1    0    0    0    0 -0.00000000000E+00 -0.00000000000E+00 -0.45593999997E+02  0.45594000000E+02  0.51100000000E-03 0. -1.
    9900012    2    1    2    0    0 -0.16818597363E+02 -0.17566254010E+02 -0.35946971126E+02  0.47787271546E+02  0.20000002285E+02 0.  0.
        -12    1    1    2    0    0  0.16818597363E+02  0.17566254010E+02  0.35946971126E+02  0.43400728454E+02  0.00000000000E+00 0.  1.
         11    1    3    3    0    0 -0.13840949068E+02 -0.11038751940E+02 -0.21172974442E+02  0.27599289166E+02  0.51100000000E-03 0. -1.
        -11    1    3    3    0    0 -0.18413489065E+01  0.28489306864E+01 -0.76150854617E+01  0.83364560037E+01  0.51100000000E-03 0.  1.
        -12    1    3    3    0    0 -0.11362993889E+01 -0.93764327572E+01 -0.71589112224E+01  0.11851526376E+02  0.00000000000E+00 0.  1.
</event>
<event>
 7    1  0.2834226E-010  0.4778727E+02  0.7816164E-02  0.1312668E+00
        -11   -1    0    0    0    0  0.00000000000E+00  0.00000000000E+00  0.45593999997E+02  0.45594000000E+02  0.51100000000E-03 0.  1.
         11   -1    0    0    0    0 -0.00000000000E+00 -0.00000000000E+00 -0.45593999997E+02  0.45594000000E+02  0.51100000000E-03 0. -1.
    9900012    2    1    2    0    0 -0.13363204157E+02  0.12722140389E+02 -0.39283522985E+02  0.47787271210E+02  0.20000000755E+02 0.  0.
        -12    1    1    2    0    0  0.13363204157E+02 -0.12722140389E+02  0.39283522985E+02  0.43400728790E+02  0.00000000000E+00 0.  1.
         11    1    3    3    0    0  0.20131010696E+01  0.53810460566E+01 -0.99889140140E+01  0.11523308380E+02  0.51100000000E-03 0. -1.
        -11    1    3    3    0    0  0.10503690137E+01  0.60509557378E+00 -0.98854707359E+01  0.99595154325E+01  0.51100000000E-03 0.  1.
         12    1    3    3    0    0 -0.16426674240E+02  0.67359987584E+01 -0.19409138235E+02  0.26304447398E+02  0.00000000000E+00 0. -1.
</event>
<event>
 7    1  0.2834226E-010  0.4778727E+02  0.7816164E-02  0.1312668E+00
        -11   -1    0    0    0    0  0.00000000000E+00  0.00000000000E+00  0.45593999997E+02  0.45594000000E+02  0.51100000000E-03 0. -1.
         11   -1    0    0    0    0 -0.00000000000E+00 -0.00000000000E+00 -0.45593999997E+02  0.45594000000E+02  0.51100000000E-03 0.  1.
    9900012    2    1    2    0    0 -0.21212254139E+02  0.21048270970E+02  0.31474333381E+02  0.47787273067E+02  0.20000009223E+02 0.  0.
        -12    1    1    2    0    0  0.21212254139E+02 -0.21048270970E+02 -0.31474333381E+02  0.43400726933E+02  0.00000000000E+00 0.  1.
         11    1    3    3    0    0 -0.13856196128E+02  0.15608684422E+02  0.11423207698E+02  0.23793168660E+02  0.51100000000E-03 0. -1.
        -11    1    3    3    0    0 -0.59285143385E+00  0.59692408555E+01  0.65329288996E+01  0.88691865175E+01  0.51100000000E-03 0.  1.
         12    1    3    3    0    0 -0.67632065777E+01 -0.52965430747E+00  0.13518196783E+02  0.15124917889E+02  0.00000000000E+00 0. -1.
</event>
<event>
 7    1  0.2834226E-010  0.4778727E+02  0.7816164E-02  0.1312668E+00
        -11   -1    0    0    0    0  0.00000000000E+00  0.00000000000E+00  0.45593999997E+02  0.45594000000E+02  0.51100000000E-03 0. -1.
         11   -1    0    0    0    0 -0.00000000000E+00 -0.00000000000E+00 -0.45593999997E+02  0.45594000000E+02  0.51100000000E-03 0.  1.
    9900012    2    1    2    0    0  0.17755058168E+01  0.30800706466E+02  0.30525193431E+02  0.47787269894E+02  0.19999994755E+02 0.  0.
        -12    1    1    2    0    0 -0.17755058168E+01 -0.30800706466E+02 -0.30525193431E+02  0.43400730106E+02  0.00000000000E+00 0.  1.
         11    1    3    3    0    0  0.63269518980E+01  0.20371739906E+02  0.18520387399E+02  0.28249652330E+02  0.51100000000E-03 0. -1.
        -11    1    3    3    0    0 -0.70780749650E+01  0.32981384270E+01  0.53903482253E+01  0.94885571371E+01  0.51100000000E-03 0.  1.
        -12    1    3    3    0    0  0.25266288839E+01  0.71308281332E+01  0.66144578065E+01  0.10049060427E+02  0.00000000000E+00 0.  1.
</event>
<event>
 7    1  0.2834226E-010  0.4778727E+02  0.7816164E-02  0.1312668E+00
        -11   -1    0    0    0    0  0.00000000000E+00  0.00000000000E+00  0.45593999997E+02  0.45594000000E+02  0.51100000000E-03 0.  1.
         11   -1    0    0    0    0 -0.00000000000E+00 -0.00000000000E+00 -0.45593999997E+02  0.45594000000E+02  0.51100000000E-03 0. -1.
    9900012    2    1    2    0    0  0.43653421349E+01 -0.23138287472E+02 -0.36458013025E+02  0.47787271057E+02  0.20000000055E+02 0.  0.
        -12    1    1    2    0    0 -0.43653421349E+01  0.23138287472E+02  0.36458013025E+02  0.43400728943E+02  0.00000000000E+00 0.  1.
         11    1    3    3    0    0  0.36375110299E+01 -0.85798155375E+01 -0.16919259138E+02  0.19315953282E+02  0.51100000000E-03 0. -1.
        -11    1    3    3    0    0  0.57558615601E+01 -0.86149763933E+01 -0.17640660947E+02  0.20458266775E+02  0.51100000000E-03 0.  1.
        -12    1    3    3    0    0 -0.50280304551E+01 -0.59434955415E+01 -0.18980929404E+01  0.80130509994E+01  0.00000000000E+00 0.  1.
</event>
<event>
 7    1  0.2834226E-010  0.4778727E+02  0.7816164E-02  0.1312668E+00
        -11   -1    0    0    0    0  0.00000000000E+00  0.00000000000E+00  0.45593999997E+02  0.45594000000E+02  0.51100000000E-03 0. -1.
         11   -1    0    0    0    0 -0.00000000000E+00 -0.00000000000E+00 -0.45593999997E+02  0.45594000000E+02  0.51100000000E-03 0.  1.
    9900012    2    1    2    0    0 -0.33071871207E+01 -0.35049272409E+02 -0.25381770172E+02  0.47787271433E+02  0.20000001771E+02 0.  0.
        -12    1    1    2    0    0  0.33071871207E+01  0.35049272409E+02  0.25381770172E+02  0.43400728567E+02  0.00000000000E+00 0.  1.
         11    1    3    3    0    0  0.45405972682E+01 -0.15293488094E+02 -0.14168391529E+02  0.21336614549E+02  0.51100000000E-03 0. -1.
        -11    1    3    3    0    0 -0.97281355808E+01 -0.11511372441E+02 -0.47335954791E+01  0.15797317614E+02  0.51100000000E-03 0.  1.
        -12    1    3    3    0    0  0.18803511919E+01 -0.82444118742E+01 -0.64797831646E+01  0.10653339271E+02  0.00000000000E+00 0.  1.
</event>
<event>
 7    1  0.2834226E-010  0.4778729E+02  0.7816164E-02  0.1312668E+00
        -11   -1    0    0    0    0  0.00000000000E+00  0.00000000000E+00  0.45593999997E+02  0.45594000000E+02  0.51100000000E-03 0.  1.
         11   -1    0    0    0    0 -0.00000000000E+00 -0.00000000000E+00 -0.45593999997E+02  0.45594000000E+02  0.51100000000E-03 0. -1.
    9900012    2    1    2    0    0 -0.19390024530E+02  0.19194852586E+02 -0.33752123451E+02  0.47787294308E+02  0.20000106070E+02 0.  0.
        -12    1    1    2    0    0  0.19390024530E+02 -0.19194852586E+02  0.33752123451E+02  0.43400705692E+02  0.00000000000E+00 0.  1.
         11    1    3    3    0    0 -0.36119662435E+00  0.33723266616E+01 -0.54181349471E+01  0.63921230182E+01  0.51100000000E-03 0. -1.
        -11    1    3    3    0    0  0.24274603761E+01  0.25090612638E+01 -0.66551278489E-01  0.34917591035E+01  0.51100000000E-03 0.  1.
        -12    1    3    3    0    0 -0.21456288282E+02  0.13313464660E+02 -0.28267437225E+02  0.37903412187E+02  0.00000000000E+00 0.  1.
</event>
<event>
 7    1  0.2834226E-010  0.4778728E+02  0.7816164E-02  0.1312668E+00
        -11   -1    0    0    0    0  0.00000000000E+00  0.00000000000E+00  0.45593999997E+02  0.45594000000E+02  0.51100000000E-03 0.  1.
         11   -1    0    0    0    0 -0.00000000000E+00 -0.00000000000E+00 -0.45593999997E+02  0.45594000000E+02  0.51100000000E-03 0. -1.
    9900012    2    1    2    0    0  0.11807175748E+02  0.34384493975E+00 -0.41762365389E+02  0.47787276603E+02  0.20000025344E+02 0.  0.
        -12    1    1    2    0    0 -0.11807175748E+02 -0.34384493975E+00  0.41762365389E+02  0.43400723397E+02  0.00000000000E+00 0.  1.
         11    1    3    3    0    0  0.30398227210E+01  0.19599643488E+01 -0.22888997518E+02  0.23173005632E+02  0.51100000000E-03 0. -1.
        -11    1    3    3    0    0  0.42336924309E+01 -0.55405818058E+01 -0.28990306453E+01  0.75515943541E+01  0.51100000000E-03 0.  1.
         12    1    3    3    0    0  0.45336605957E+01  0.39244623967E+01 -0.15974337226E+02  0.17062676617E+02  0.00000000000E+00 0. -1.
</event>
<event>
 7    1  0.2834226E-010  0.4778728E+02  0.7816164E-02  0.1312668E+00
        -11   -1    0    0    0    0  0.00000000000E+00  0.00000000000E+00  0.45593999997E+02  0.45594000000E+02  0.51100000000E-03 0.  1.
         11   -1    0    0    0    0 -0.00000000000E+00 -0.00000000000E+00 -0.45593999997E+02  0.45594000000E+02  0.51100000000E-03 0. -1.
    9900012    2    1    2    0    0 -0.31241913780E+01  0.93473709739E+01 -0.42266870375E+02  0.47787282872E+02  0.20000053927E+02 0.  0.
        -12    1    1    2    0    0  0.31241913780E+01 -0.93473709739E+01  0.42266870375E+02  0.43400717128E+02  0.00000000000E+00 0.  1.
         11    1    3    3    0    0 -0.10645424524E+02  0.26220296202E+01 -0.28754220178E+02  0.30773450910E+02  0.51100000000E-03 0. -1.
        -11    1    3    3    0    0  0.45105415257E+01  0.28115879378E+01 -0.59106729263E+01  0.79489663661E+01  0.51100000000E-03 0.  1.
         12    1    3    3    0    0  0.30106916205E+01  0.39137534159E+01 -0.76019772715E+01  0.90648655959E+01  0.00000000000E+00 0. -1.
</event>
<event>
 7    1  0.2834226E-010  0.4778727E+02  0.7816164E-02  0.1312668E+00
        -11   -1    0    0    0    0  0.00000000000E+00  0.00000000000E+00  0.45593999997E+02  0.45594000000E+02  0.51100000000E-03 0.  1.
         11   -1    0    0    0    0 -0.00000000000E+00 -0.00000000000E+00 -0.45593999997E+02  0.45594000000E+02  0.51100000000E-03 0. -1.
    9900012    2    1    2    0    0 -0.45307785652E+01  0.19009567453E+02 -0.38752183557E+02  0.47787270287E+02  0.19999996549E+02 0.  0.
        -12    1    1    2    0    0  0.45307785652E+01 -0.19009567453E+02  0.38752183557E+02  0.43400729713E+02  0.00000000000E+00 0.  1.
         11    1    3    3    0    0 -0.34433884955E+01  0.19646996556E+02 -0.34447007831E+02  0.39805247729E+02  0.51100000000E-03 0. -1.
        -11    1    3    3    0    0 -0.36651810099E+01 -0.75948591591E+00 -0.11706591584E+01  0.39218380663E+01  0.51100000000E-03 0.  1.
         12    1    3    3    0    0  0.25777909402E+01  0.12205681233E+00 -0.31345165679E+01  0.40601844922E+01  0.00000000000E+00 0. -1.
</event>
<event>
 7    1  0.2834226E-010  0.4778728E+02  0.7816164E-02  0.1312668E+00
        -11   -1    0    0    0    0  0.00000000000E+00  0.00000000000E+00  0.45593999997E+02  0.45594000000E+02  0.51100000000E-03 0.  1.
         11   -1    0    0    0    0 -0.00000000000E+00 -0.00000000000E+00 -0.45593999997E+02  0.45594000000E+02  0.51100000000E-03 0. -1.
    9900012    2    1    2    0    0 -0.35236680842E+02 -0.19209605776E+02 -0.16522411678E+02  0.47787277443E+02  0.20000029173E+02 0.  0.
        -12    1    1    2    0    0  0.35236680842E+02  0.19209605776E+02  0.16522411678E+02  0.43400722557E+02  0.00000000000E+00 0.  1.
         11    1    3    3    0    0 -0.10479819159E+02 -0.64699874227E+01  0.27555687474E+01  0.12620638108E+02  0.51100000000E-03 0. -1.
        -11    1    3    3    0    0 -0.58117396283E+01  0.11297235304E+01 -0.42892761873E+01  0.73109837392E+01  0.51100000000E-03 0.  1.
         12    1    3    3    0    0 -0.18945122054E+02 -0.13869341884E+02 -0.14988704238E+02  0.27855655596E+02  0.00000000000E+00 0. -1.
</event>
<event>
 7    1  0.2834226E-010  0.4778727E+02  0.7816164E-02  0.1312668E+00
        -11   -1    0    0    0    0  0.00000000000E+00  0.00000000000E+00  0.45593999997E+02  0.45594000000E+02  0.51100000000E-03 0. -1.
         11   -1    0    0    0    0 -0.00000000000E+00 -0.00000000000E+00 -0.45593999997E+02  0.45594000000E+02  0.51100000000E-03 0.  1.
    9900012    2    1    2    0    0  0.41940655174E+02  0.26343362674E+01 -0.10847352470E+02  0.47787270287E+02  0.19999996549E+02 0.  0.
        -12    1    1    2    0    0 -0.41940655174E+02 -0.26343362674E+01  0.10847352470E+02  0.43400729713E+02  0.00000000000E+00 0.  1.
         11    1    3    3    0    0  0.31214174837E+02  0.62624628159E+01 -0.31877065200E+01  0.31995384424E+02  0.51100000000E-03 0. -1.
        -11    1    3    3    0    0  0.47774070270E+01  0.23656065773E+01 -0.35078007529E+01  0.63815655418E+01  0.51100000000E-03 0.  1.
         12    1    3    3    0    0  0.59490733093E+01 -0.59937331258E+01 -0.41518451969E+01  0.94103203220E+01  0.00000000000E+00 0. -1.
</event>
<event>
 7    1  0.2834226E-010  0.4778729E+02  0.7816164E-02  0.1312668E+00
        -11   -1    0    0    0    0  0.00000000000E+00  0.00000000000E+00  0.45593999997E+02  0.45594000000E+02  0.51100000000E-03 0. -1.
         11   -1    0    0    0    0 -0.00000000000E+00 -0.00000000000E+00 -0.45593999997E+02  0.45594000000E+02  0.51100000000E-03 0.  1.
    9900012    2    1    2    0    0 -0.32898728224E+02 -0.28296677719E+02 -0.77020659159E+00  0.47787291401E+02  0.20000092813E+02 0.  0.
        -12    1    1    2    0    0  0.32898728224E+02  0.28296677719E+02  0.77020659159E+00  0.43400708599E+02  0.00000000000E+00 0.  1.
         11    1    3    3    0    0 -0.12612957823E+01 -0.39101640821E+01 -0.16665466542E+01  0.44336923903E+01  0.51100000000E-03 0. -1.
        -11    1    3    3    0    0 -0.13509158167E+02 -0.73605502139E+01 -0.74860410094E+01  0.17108941057E+02  0.51100000000E-03 0.  1.
        -12    1    3    3    0    0 -0.18128274275E+02 -0.17025963423E+02  0.83823810720E+01  0.26244657954E+02  0.00000000000E+00 0.  1.
</event>
<event>
 7    1  0.2834226E-010  0.4778727E+02  0.7816164E-02  0.1312668E+00
        -11   -1    0    0    0    0  0.00000000000E+00  0.00000000000E+00  0.45593999997E+02  0.45594000000E+02  0.51100000000E-03 0.  1.
         11   -1    0    0    0    0 -0.00000000000E+00 -0.00000000000E+00 -0.45593999997E+02  0.45594000000E+02  0.51100000000E-03 0. -1.
    9900012    2    1    2    0    0  0.10832344858E+02  0.26110647032E+02 -0.32932014108E+02  0.47787272624E+02  0.20000007202E+02 0.  0.
        -12    1    1    2    0    0 -0.10832344858E+02 -0.26110647032E+02  0.32932014108E+02  0.43400727376E+02  0.00000000000E+00 0.  1.
         11    1    3    3    0    0  0.29696441682E+01  0.32305806073E+01 -0.52964081568E+00  0.44199499094E+01  0.51100000000E-03 0. -1.
        -11    1    3    3    0    0  0.12373714009E+02  0.18810241722E+02 -0.23106659887E+02  0.32262233702E+02  0.51100000000E-03 0.  1.
        -12    1    3    3    0    0 -0.45110133193E+01  0.40698247031E+01 -0.92957134049E+01  0.11105089013E+02  0.00000000000E+00 0.  1.
</event>
<event>
 7    1  0.2834226E-010  0.4778727E+02  0.7816164E-02  0.1312668E+00
        -11   -1    0    0    0    0  0.00000000000E+00  0.00000000000E+00  0.45593999997E+02  0.45594000000E+02  0.51100000000E-03 0.  1.
         11   -1    0    0    0    0 -0.00000000000E+00 -0.00000000000E+00 -0.45593999997E+02  0.45594000000E+02  0.51100000000E-03 0. -1.
    9900012    2    1    2    0    0 -0.29235160908E+01  0.22448398024E+01 -0.43243922594E+02  0.47787273124E+02  0.20000009481E+02 0.  0.
        -12    1    1    2    0    0  0.29235160908E+01 -0.22448398024E+01  0.43243922594E+02  0.43400726876E+02  0.00000000000E+00 0.  1.
         11    1    3    3    0    0  0.80744267105E+00 -0.39323552563E+01 -0.10767148525E+02  0.11491164830E+02  0.51100000000E-03 0. -1.
        -11    1    3    3    0    0 -0.87560430210E+01  0.19437654115E+01 -0.13446063812E+02  0.16163017839E+02  0.51100000000E-03 0.  1.
        -12    1    3    3    0    0  0.50250842591E+01  0.42334296472E+01 -0.19030710257E+02  0.20133090455E+02  0.00000000000E+00 0.  1.
</event>
<event>
 7    1  0.2834226E-010  0.4778727E+02  0.7816164E-02  0.1312668E+00
        -11   -1    0    0    0    0  0.00000000000E+00  0.00000000000E+00  0.45593999997E+02  0.45594000000E+02  0.51100000000E-03 0.  1.
         11   -1    0    0    0    0 -0.00000000000E+00 -0.00000000000E+00 -0.45593999997E+02  0.45594000000E+02  0.51100000000E-03 0. -1.
    9900012    2    1    2    0    0  0.30497054547E+02 -0.36584470335E+01 -0.30662167880E+02  0.47787272935E+02  0.20000008618E+02 0.  0.
        -12    1    1    2    0    0 -0.30497054547E+02  0.36584470335E+01  0.30662167880E+02  0.43400727065E+02  0.00000000000E+00 0.  1.
         11    1    3    3    0    0  0.19946684685E+02 -0.10879999531E+01 -0.30263472037E+02  0.36261987174E+02  0.51100000000E-03 0. -1.
        -11    1    3    3    0    0  0.43286185055E+01 -0.13148816287E+01  0.17110150401E+01  0.48366749521E+01  0.51100000000E-03 0.  1.
         12    1    3    3    0    0  0.62217513558E+01 -0.12555654517E+01 -0.21097108833E+01  0.66886108085E+01  0.00000000000E+00 0. -1.
</event>
<event>
 7    1  0.2834226E-010  0.4778727E+02  0.7816164E-02  0.1312668E+00
        -11   -1    0    0    0    0  0.00000000000E+00  0.00000000000E+00  0.45593999997E+02  0.45594000000E+02  0.51100000000E-03 0. -1.
         11   -1    0    0    0    0 -0.00000000000E+00 -0.00000000000E+00 -0.45593999997E+02  0.45594000000E+02  0.51100000000E-03 0.  1.
    9900012    2    1    2    0    0 -0.33829340115E+02 -0.27151231798E+02  0.14175110354E+01  0.47787274450E+02  0.20000015527E+02 0.  0.
        -12    1    1    2    0    0  0.33829340115E+02  0.27151231798E+02 -0.14175110354E+01  0.43400725550E+02  0.00000000000E+00 0.  1.
         11    1    3    3    0    0 -0.23168953345E+02 -0.22238741162E+02  0.49008979824E+01  0.32486625077E+02  0.51100000000E-03 0. -1.
        -11    1    3    3    0    0 -0.30045862506E+01 -0.64270311213E+01 -0.16470125297E+01  0.72833315251E+01  0.51100000000E-03 0.  1.
         12    1    3    3    0    0 -0.76558005194E+01  0.15145404860E+01 -0.18363744173E+01  0.80173178481E+01  0.00000000000E+00 0. -1.
</event>
<event>
 7    1  0.2834226E-010  0.4778727E+02  0.7816164E-02  0.1312668E+00
        -11   -1    0    0    0    0  0.00000000000E+00  0.00000000000E+00  0.45593999997E+02  0.45594000000E+02  0.51100000000E-03 0.  1.
         11   -1    0    0    0    0 -0.00000000000E+00 -0.00000000000E+00 -0.45593999997E+02  0.45594000000E+02  0.51100000000E-03 0. -1.
    9900012    2    1    2    0    0  0.31618214974E+02 -0.94643700258E+01 -0.28183990571E+02  0.47787272557E+02  0.20000006895E+02 0.  0.
        -12    1    1    2    0    0 -0.31618214974E+02  0.94643700258E+01  0.28183990571E+02  0.43400727443E+02  0.00000000000E+00 0.  1.
         11    1    3    3    0    0  0.71232999070E+01 -0.83940518771E+00 -0.16703533708E+02  0.18178394903E+02  0.51100000000E-03 0. -1.
        -11    1    3    3    0    0  0.45928570677E+01 -0.42698842999E+01 -0.98053218583E-01  0.62718308869E+01  0.51100000000E-03 0.  1.
         12    1    3    3    0    0  0.19902057999E+02 -0.43550805382E+01 -0.11382403644E+02  0.23337046767E+02  0.00000000000E+00 0. -1.
</event>
<event>
 7    1  0.2834226E-010  0.4778727E+02  0.7816164E-02  0.1312668E+00
        -11   -1    0    0    0    0  0.00000000000E+00  0.00000000000E+00  0.45593999997E+02  0.45594000000E+02  0.51100000000E-03 0. -1.
         11   -1    0    0    0    0 -0.00000000000E+00 -0.00000000000E+00 -0.45593999997E+02  0.45594000000E+02  0.51100000000E-03 0.  1.
    9900012    2    1    2    0    0  0.25387760344E+02 -0.14565618218E+02  0.32045717277E+02  0.47787267228E+02  0.19999982601E+02 0.  0.
        -12    1    1    2    0    0 -0.25387760344E+02  0.14565618218E+02 -0.32045717277E+02  0.43400732772E+02  0.00000000000E+00 0.  1.
         11    1    3    3    0    0  0.67876288929E+01 -0.21148510484E+01  0.12848188891E+02  0.14684020532E+02  0.51100000000E-03 0. -1.
        -11    1    3    3    0    0  0.15134188323E+02 -0.14683250002E+02  0.10672184298E+02  0.23633387501E+02  0.51100000000E-03 0.  1.
        -12    1    3    3    0    0  0.34659431275E+01  0.22324828325E+01  0.85253440876E+01  0.94698591950E+01  0.00000000000E+00 0.  1.
</event>
<event>
 7    1  0.2834226E-010  0.4778727E+02  0.7816164E-02  0.1312668E+00
        -11   -1    0    0    0    0  0.00000000000E+00  0.00000000000E+00  0.45593999997E+02  0.45594000000E+02  0.51100000000E-03 0.  1.
         11   -1    0    0    0    0 -0.00000000000E+00 -0.00000000000E+00 -0.45593999997E+02  0.45594000000E+02  0.51100000000E-03 0. -1.
    9900012    2    1    2    0    0  0.19062359858E+02 -0.34744627149E+02 -0.17693513837E+02  0.47787272921E+02  0.20000008558E+02 0.  0.
        -12    1    1    2    0    0 -0.19062359858E+02  0.34744627149E+02  0.17693513837E+02  0.43400727079E+02  0.00000000000E+00 0.  1.
         11    1    3    3    0    0  0.10338181275E+02 -0.19316196821E+02 -0.53559228964E+00  0.21915298562E+02  0.51100000000E-03 0.  1.
        -11    1    3    3    0    0  0.76696439352E+00 -0.60750756963E+01 -0.21716916670E+01  0.64970011585E+01  0.51100000000E-03 0. -1.
         12    1    3    3    0    0  0.79572141896E+01 -0.93533546316E+01 -0.14986229880E+02  0.19374973201E+02  0.00000000000E+00 0. -1.
</event>
<event>
 7    1  0.2834226E-010  0.4778727E+02  0.7816164E-02  0.1312668E+00
        -11   -1    0    0    0    0  0.00000000000E+00  0.00000000000E+00  0.45593999997E+02  0.45594000000E+02  0.51100000000E-03 0. -1.
         11   -1    0    0    0    0 -0.00000000000E+00 -0.00000000000E+00 -0.45593999997E+02  0.45594000000E+02  0.51100000000E-03 0.  1.
    9900012    2    1    2    0    0 -0.19740914832E+02 -0.16711149078E+02  0.34851929145E+02  0.47787272045E+02  0.20000004562E+02 0.  0.
        -12    1    1    2    0    0  0.19740914832E+02  0.16711149078E+02 -0.34851929145E+02  0.43400727955E+02  0.00000000000E+00 0.  1.
         11    1    3    3    0    0 -0.87150097310E+01 -0.14886722042E+02  0.18280295367E+02  0.25134340786E+02  0.51100000000E-03 0. -1.
        -11    1    3    3    0    0 -0.55985416312E+01 -0.79570174962E+00  0.16151712565E+02  0.17112995901E+02  0.51100000000E-03 0.  1.
        -12    1    3    3    0    0 -0.54273634696E+01 -0.10287252862E+01  0.41992121245E+00  0.55399353580E+01  0.00000000000E+00 0.  1.
</event>
<event>
 7    1  0.2834226E-010  0.4778727E+02  0.7816164E-02  0.1312668E+00
        -11   -1    0    0    0    0  0.00000000000E+00  0.00000000000E+00  0.45593999997E+02  0.45594000000E+02  0.51100000000E-03 0. -1.
         11   -1    0    0    0    0 -0.00000000000E+00 -0.00000000000E+00 -0.45593999997E+02  0.45594000000E+02  0.51100000000E-03 0.  1.
    9900012    2    1    2    0    0  0.24632417345E+02 -0.26216493160E+02 -0.24280920001E+02  0.47787267587E+02  0.19999984236E+02 0.  0.
        -12    1    1    2    0    0 -0.24632417345E+02  0.26216493160E+02  0.24280920001E+02  0.43400732413E+02  0.00000000000E+00 0.  1.
         11    1    3    3    0    0  0.92090553921E+01 -0.19957608071E+02 -0.68604957943E+01  0.23025621033E+02  0.51100000000E-03 0. -1.
        -11    1    3    3    0    0  0.59538305080E+01  0.46066049879E+00 -0.63948646591E+01  0.87495485645E+01  0.51100000000E-03 0.  1.
         12    1    3    3    0    0  0.94695314453E+01 -0.67195455874E+01 -0.11025559548E+02  0.16012097990E+02  0.00000000000E+00 0. -1.
</event>
<event>
 7    1  0.2834226E-010  0.4778727E+02  0.7816164E-02  0.1312668E+00
        -11   -1    0    0    0    0  0.00000000000E+00  0.00000000000E+00  0.45593999997E+02  0.45594000000E+02  0.51100000000E-03 0. -1.
         11   -1    0    0    0    0 -0.00000000000E+00 -0.00000000000E+00 -0.45593999997E+02  0.45594000000E+02  0.51100000000E-03 0.  1.
    9900012    2    1    2    0    0 -0.23324291888E+02  0.26717495643E+02 -0.25015517872E+02  0.47787270745E+02  0.19999998633E+02 0.  0.
        -12    1    1    2    0    0  0.23324291888E+02 -0.26717495643E+02  0.25015517872E+02  0.43400729255E+02  0.00000000000E+00 0.  1.
         11    1    3    3    0    0  0.28103974552E+01  0.13422243520E+01  0.20039138558E+00  0.31209064446E+01  0.51100000000E-03 0. -1.
        -11    1    3    3    0    0 -0.16991817005E+02  0.15561396468E+02 -0.19086136888E+02  0.29919216680E+02  0.51100000000E-03 0.  1.
         12    1    3    3    0    0 -0.91428723376E+01  0.98138748229E+01 -0.61297723695E+01  0.14747147620E+02  0.00000000000E+00 0. -1.
</event>
<event>
 7    1  0.2834226E-010  0.4778727E+02  0.7816164E-02  0.1312668E+00
        -11   -1    0    0    0    0  0.00000000000E+00  0.00000000000E+00  0.45593999997E+02  0.45594000000E+02  0.51100000000E-03 0. -1.
         11   -1    0    0    0    0 -0.00000000000E+00 -0.00000000000E+00 -0.45593999997E+02  0.45594000000E+02  0.51100000000E-03 0.  1.
    9900012    2    1    2    0    0  0.42706748536E+01 -0.28255800497E+02  0.32664878246E+02  0.47787271938E+02  0.20000004076E+02 0.  0.
        -12    1    1    2    0    0 -0.42706748536E+01  0.28255800497E+02 -0.32664878246E+02  0.43400728062E+02  0.00000000000E+00 0.  1.
         11    1    3    3    0    0  0.43476341583E+01 -0.18774441788E+02  0.27930958979E+02  0.33934054532E+02  0.51100000000E-03 0. -1.
        -11    1    3    3    0    0 -0.14629481492E+01 -0.13500424491E+01 -0.22792749636E+01  0.30262066225E+01  0.51100000000E-03 0.  1.
         12    1    3    3    0    0  0.13859888445E+01 -0.81313162603E+01  0.70131942308E+01  0.10827010784E+02  0.00000000000E+00 0. -1.
</event>
<event>
 7    1  0.2834226E-010  0.4778727E+02  0.7816164E-02  0.1312668E+00
        -11   -1    0    0    0    0  0.00000000000E+00  0.00000000000E+00  0.45593999997E+02  0.45594000000E+02  0.51100000000E-03 0.  1.
         11   -1    0    0    0    0 -0.00000000000E+00 -0.00000000000E+00 -0.45593999997E+02  0.45594000000E+02  0.51100000000E-03 0. -1.
    9900012    2    1    2    0    0  0.55111039849E+01  0.41147830662E+02 -0.12653359705E+02  0.47787265593E+02  0.19999975143E+02 0.  0.
        -12    1    1    2    0    0 -0.55111039849E+01 -0.41147830662E+02  0.12653359705E+02  0.43400734407E+02  0.00000000000E+00 0.  1.
         11    1    3    3    0    0  0.20072801089E+01  0.84226688858E+01 -0.27325276612E+01  0.90794951554E+01  0.51100000000E-03 0. -1.
        -11    1    3    3    0    0  0.95956069288E+01  0.24990345097E+02 -0.36060841220E+01  0.27011050764E+02  0.51100000000E-03 0.  1.
        -12    1    3    3    0    0 -0.60917830528E+01  0.77348166786E+01 -0.63147479214E+01  0.11696719674E+02  0.00000000000E+00 0.  1.
</event>
<event>
 7    1  0.2834226E-010  0.4778727E+02  0.7816164E-02  0.1312668E+00
        -11   -1    0    0    0    0  0.00000000000E+00  0.00000000000E+00  0.45593999997E+02  0.45594000000E+02  0.51100000000E-03 0.  1.
         11   -1    0    0    0    0 -0.00000000000E+00 -0.00000000000E+00 -0.45593999997E+02  0.45594000000E+02  0.51100000000E-03 0. -1.
    9900012    2    1    2    0    0  0.34653603828E+00  0.19195250015E+02 -0.38923584595E+02  0.47787272494E+02  0.20000006608E+02 0.  0.
        -12    1    1    2    0    0 -0.34653603828E+00 -0.19195250015E+02  0.38923584595E+02  0.43400727506E+02  0.00000000000E+00 0.  1.
         11    1    3    3    0    0  0.56529860346E+01  0.82831441470E+01 -0.51461976238E+01  0.11271649316E+02  0.51100000000E-03 0. -1.
        -11    1    3    3    0    0 -0.37962369593E+01  0.13890434926E+01 -0.12914590280E+02  0.13532460945E+02  0.51100000000E-03 0.  1.
         12    1    3    3    0    0 -0.15102130369E+01  0.95230623758E+01 -0.20862796691E+02  0.22983162232E+02  0.00000000000E+00 0. -1.
</event>
<event>
 7    1  0.2834226E-010  0.4778727E+02  0.7816164E-02  0.1312668E+00
        -11   -1    0    0    0    0  0.00000000000E+00  0.00000000000E+00  0.45593999997E+02  0.45594000000E+02  0.51100000000E-03 0.  1.
         11   -1    0    0    0    0 -0.00000000000E+00 -0.00000000000E+00 -0.45593999997E+02  0.45594000000E+02  0.51100000000E-03 0. -1.
    9900012    2    1    2    0    0  0.81722502196E+01  0.38419800597E+02 -0.18459593424E+02  0.47787270271E+02  0.19999996475E+02 0.  0.
        -12    1    1    2    0    0 -0.81722502196E+01 -0.38419800597E+02  0.18459593424E+02  0.43400729729E+02  0.00000000000E+00 0.  1.
         11    1    3    3    0    0  0.98414007923E+01  0.23557630494E+02 -0.14216168091E+02  0.29221816499E+02  0.51100000000E-03 0. -1.
        -11    1    3    3    0    0 -0.34401884633E+01  0.37765162883E+01 -0.52112992007E+01  0.72975757317E+01  0.51100000000E-03 0.  1.
        -12    1    3    3    0    0  0.17710378905E+01  0.11085653815E+02  0.96787386713E+00  0.11267878040E+02  0.00000000000E+00 0.  1.
</event>
<event>
 7    1  0.2834226E-010  0.4778728E+02  0.7816164E-02  0.1312668E+00
        -11   -1    0    0    0    0  0.00000000000E+00  0.00000000000E+00  0.45593999997E+02  0.45594000000E+02  0.51100000000E-03 0. -1.
         11   -1    0    0    0    0 -0.00000000000E+00 -0.00000000000E+00 -0.45593999997E+02  0.45594000000E+02  0.51100000000E-03 0.  1.
    9900012    2    1    2    0    0  0.40603266798E+02 -0.31409461613E+01  0.15004390298E+02  0.47787279434E+02  0.20000038250E+02 0.  0.
        -12    1    1    2    0    0 -0.40603266798E+02  0.31409461613E+01 -0.15004390298E+02  0.43400720566E+02  0.00000000000E+00 0.  1.
         11    1    3    3    0    0  0.19355399102E+02 -0.26101688514E+01  0.11970096817E+02  0.22906935061E+02  0.51100000000E-03 0. -1.
        -11    1    3    3    0    0  0.14629284166E+02 -0.17312220819E+01 -0.38801277167E+01  0.15233793896E+02  0.51100000000E-03 0.  1.
        -12    1    3    3    0    0  0.66185835298E+01  0.12004447720E+01  0.69144211979E+01  0.96465504764E+01  0.00000000000E+00 0.  1.
</event>
<event>
 7    1  0.2834226E-010  0.4778728E+02  0.7816164E-02  0.1312668E+00
        -11   -1    0    0    0    0  0.00000000000E+00  0.00000000000E+00  0.45593999997E+02  0.45594000000E+02  0.51100000000E-03 0.  1.
         11   -1    0    0    0    0 -0.00000000000E+00 -0.00000000000E+00 -0.45593999997E+02  0.45594000000E+02  0.51100000000E-03 0. -1.
    9900012    2    1    2    0    0 -0.28314065661E+02 -0.27976706694E+00 -0.32891613124E+02  0.47787276529E+02  0.20000025006E+02 0.  0.
        -12    1    1    2    0    0  0.28314065661E+02  0.27976706694E+00  0.32891613124E+02  0.43400723471E+02  0.00000000000E+00 0.  1.
         11    1    3    3    0    0 -0.15128504026E+02  0.66528809640E+01 -0.19653583441E+02  0.25678703268E+02  0.51100000000E-03 0. -1.
        -11    1    3    3    0    0 -0.10423264523E+02 -0.54079925928E+01 -0.40946353934E+01  0.12436111388E+02  0.51100000000E-03 0.  1.
         12    1    3    3    0    0 -0.27622971129E+01 -0.15246554382E+01 -0.91433942896E+01  0.96724618728E+01  0.00000000000E+00 0. -1.
</event>
<event>
 7    1  0.2834226E-010  0.4778727E+02  0.7816164E-02  0.1312668E+00
        -11   -1    0    0    0    0  0.00000000000E+00  0.00000000000E+00  0.45593999997E+02  0.45594000000E+02  0.51100000000E-03 0.  1.
         11   -1    0    0    0    0 -0.00000000000E+00 -0.00000000000E+00 -0.45593999997E+02  0.45594000000E+02  0.51100000000E-03 0. -1.
    9900012    2    1    2    0    0  0.30078847274E+00 -0.14925671286E+02 -0.40752384928E+02  0.47787274034E+02  0.20000013631E+02 0.  0.
        -12    1    1    2    0    0 -0.30078847274E+00  0.14925671286E+02  0.40752384928E+02  0.43400725966E+02  0.00000000000E+00 0.  1.
         11    1    3    3    0    0 -0.51513225872E+01 -0.36183491461E+01 -0.24157310105E+02  0.24964058298E+02  0.51100000000E-03 0.  1.
        -11    1    3    3    0    0  0.66086586665E+01 -0.10389571164E+02 -0.94349198213E+01  0.15512423106E+02  0.51100000000E-03 0. -1.
         12    1    3    3    0    0 -0.11565476066E+01 -0.91775097611E+00 -0.71601550015E+01  0.73107926291E+01  0.00000000000E+00 0. -1.
</event>
<event>
 7    1  0.2834226E-010  0.4778727E+02  0.7816164E-02  0.1312668E+00
        -11   -1    0    0    0    0  0.00000000000E+00  0.00000000000E+00  0.45593999997E+02  0.45594000000E+02  0.51100000000E-03 0.  1.
         11   -1    0    0    0    0 -0.00000000000E+00 -0.00000000000E+00 -0.45593999997E+02  0.45594000000E+02  0.51100000000E-03 0. -1.
    9900012    2    1    2    0    0  0.13863044757E+02  0.76029785308E+01 -0.40418238570E+02  0.47787270725E+02  0.19999998545E+02 0.  0.
        -12    1    1    2    0    0 -0.13863044757E+02 -0.76029785308E+01  0.40418238570E+02  0.43400729275E+02  0.00000000000E+00 0.  1.
         11    1    3    3    0    0  0.46216105641E+01 -0.92913938110E+00 -0.26238010998E+02  0.26658128321E+02  0.51100000000E-03 0. -1.
        -11    1    3    3    0    0  0.22108279921E+01  0.43707590286E+01 -0.15818013783E+00  0.49006444591E+01  0.51100000000E-03 0.  1.
         12    1    3    3    0    0  0.70306062006E+01  0.41613588833E+01 -0.14022047434E+02  0.16228497945E+02  0.00000000000E+00 0. -1.
</event>
<event>
 7    1  0.2834226E-010  0.4778727E+02  0.7816164E-02  0.1312668E+00
        -11   -1    0    0    0    0  0.00000000000E+00  0.00000000000E+00  0.45593999997E+02  0.45594000000E+02  0.51100000000E-03 0.  1.
         11   -1    0    0    0    0 -0.00000000000E+00 -0.00000000000E+00 -0.45593999997E+02  0.45594000000E+02  0.51100000000E-03 0. -1.
    9900012    2    1    2    0    0  0.15663315902E+02 -0.16310374649E+02 -0.37043967371E+02  0.47787270688E+02  0.19999998376E+02 0.  0.
        -12    1    1    2    0    0 -0.15663315902E+02  0.16310374649E+02  0.37043967371E+02  0.43400729312E+02  0.00000000000E+00 0.  1.
         11    1    3    3    0    0  0.97073657673E+01 -0.71596537015E+01 -0.27444885338E+02  0.29978581067E+02  0.51100000000E-03 0. -1.
        -11    1    3    3    0    0 -0.12380565386E+00 -0.26275529398E+01  0.19089804989E+01  0.32501644724E+01  0.51100000000E-03 0.  1.
        -12    1    3    3    0    0  0.60797557885E+01 -0.65231680075E+01 -0.11508062531E+02  0.14558525149E+02  0.00000000000E+00 0.  1.
</event>
<event>
 7    1  0.2834226E-010  0.4778730E+02  0.7816164E-02  0.1312668E+00
        -11   -1    0    0    0    0  0.00000000000E+00  0.00000000000E+00  0.45593999997E+02  0.45594000000E+02  0.51100000000E-03 0.  1.
         11   -1    0    0    0    0 -0.00000000000E+00 -0.00000000000E+00 -0.45593999997E+02  0.45594000000E+02  0.51100000000E-03 0. -1.
    9900012    2    1    2    0    0  0.16010086974E+02 -0.85838137394E+00 -0.40330646382E+02  0.47787300223E+02  0.20000133037E+02 0.  0.
        -12    1    1    2    0    0 -0.16010086974E+02  0.85838137394E+00  0.40330646382E+02  0.43400699777E+02  0.00000000000E+00 0.  1.
         11    1    3    3    0    0  0.15375977666E+02 -0.27924036542E+01 -0.21498223136E+02  0.26578032388E+02  0.51100000000E-03 0. -1.
        -11    1    3    3    0    0 -0.17463588182E+01 -0.34111882249E+01 -0.87409441831E+01  0.95441123055E+01  0.51100000000E-03 0.  1.
         12    1    3    3    0    0  0.23804681262E+01  0.53452105052E+01 -0.10091479063E+02  0.11665155530E+02  0.00000000000E+00 0. -1.
</event>
<event>
 7    1  0.2834226E-010  0.4778727E+02  0.7816164E-02  0.1312668E+00
        -11   -1    0    0    0    0  0.00000000000E+00  0.00000000000E+00  0.45593999997E+02  0.45594000000E+02  0.51100000000E-03 0.  1.
         11   -1    0    0    0    0 -0.00000000000E+00 -0.00000000000E+00 -0.45593999997E+02  0.45594000000E+02  0.51100000000E-03 0. -1.
    9900012    2    1    2    0    0  0.23149682048E+02 -0.77699674138E+01 -0.35879563104E+02  0.47787271653E+02  0.20000002772E+02 0.  0.
        -12    1    1    2    0    0 -0.23149682048E+02  0.77699674138E+01  0.35879563104E+02  0.43400728347E+02  0.00000000000E+00 0.  1.
         11    1    3    3    0    0  0.11620581400E+02  0.83309815972E+00 -0.13736664271E+02  0.18011882472E+02  0.51100000000E-03 0. -1.
        -11    1    3    3    0    0  0.72088343196E+01 -0.69320171380E+01 -0.22985699530E+02  0.25067160529E+02  0.51100000000E-03 0.  1.
        -12    1    3    3    0    0  0.43202663283E+01 -0.16710484355E+01  0.84280069664E+00  0.47082286516E+01  0.00000000000E+00 0.  1.
</event>
<event>
 7    1  0.2834226E-010  0.4778727E+02  0.7816164E-02  0.1312668E+00
        -11   -1    0    0    0    0  0.00000000000E+00  0.00000000000E+00  0.45593999997E+02  0.45594000000E+02  0.51100000000E-03 0.  1.
         11   -1    0    0    0    0 -0.00000000000E+00 -0.00000000000E+00 -0.45593999997E+02  0.45594000000E+02  0.51100000000E-03 0. -1.
    9900012    2    1    2    0    0  0.40822792625E+02 -0.14729393055E+02  0.40965552716E+00  0.47787271490E+02  0.20000002033E+02 0.  0.
        -12    1    1    2    0    0 -0.40822792625E+02  0.14729393055E+02 -0.40965552716E+00  0.43400728510E+02  0.00000000000E+00 0.  1.
         11    1    3    3    0    0  0.23978343737E+02 -0.32912946279E+01 -0.87502591351E+00  0.24218985514E+02  0.51100000000E-03 0. -1.
        -11    1    3    3    0    0  0.19048556327E+01 -0.14786616076E+01  0.47082119410E+01  0.52898180568E+01  0.51100000000E-03 0.  1.
        -12    1    3    3    0    0  0.14939593255E+02 -0.99594368198E+01 -0.34235305004E+01  0.18278467920E+02  0.00000000000E+00 0.  1.
</event>
<event>
 7    1  0.2834226E-010  0.4778728E+02  0.7816164E-02  0.1312668E+00
        -11   -1    0    0    0    0  0.00000000000E+00  0.00000000000E+00  0.45593999997E+02  0.45594000000E+02  0.51100000000E-03 0.  1.
         11   -1    0    0    0    0 -0.00000000000E+00 -0.00000000000E+00 -0.45593999997E+02  0.45594000000E+02  0.51100000000E-03 0. -1.
    9900012    2    1    2    0    0  0.19910098650E+02  0.26517874093E+02 -0.28000236145E+02  0.47787275365E+02  0.20000019700E+02 0.  0.
        -12    1    1    2    0    0 -0.19910098650E+02 -0.26517874093E+02  0.28000236145E+02  0.43400724635E+02  0.00000000000E+00 0.  1.
         11    1    3    3    0    0  0.20000759445E+00  0.96923696966E+01 -0.89488958767E+01  0.13193360870E+02  0.51100000000E-03 0. -1.
        -11    1    3    3    0    0  0.20161380231E+02  0.17371696289E+02 -0.15138610233E+02  0.30617553868E+02  0.51100000000E-03 0.  1.
        -12    1    3    3    0    0 -0.45128917609E+00 -0.54619189319E+00 -0.39127300359E+01  0.39763606274E+01  0.00000000000E+00 0.  1.
</event>
<event>
 7    1  0.2834226E-010  0.4778727E+02  0.7816164E-02  0.1312668E+00
        -11   -1    0    0    0    0  0.00000000000E+00  0.00000000000E+00  0.45593999997E+02  0.45594000000E+02  0.51100000000E-03 0.  1.
         11   -1    0    0    0    0 -0.00000000000E+00 -0.00000000000E+00 -0.45593999997E+02  0.45594000000E+02  0.51100000000E-03 0. -1.
    9900012    2    1    2    0    0 -0.25900231418E+02 -0.28128417783E+02 -0.20532749740E+02  0.47787266292E+02  0.19999978333E+02 0.  0.
        -12    1    1    2    0    0  0.25900231418E+02  0.28128417783E+02  0.20532749740E+02  0.43400733708E+02  0.00000000000E+00 0.  1.
         11    1    3    3    0    0 -0.76142233916E+01 -0.84668267070E+01 -0.73471521978E+01  0.13551538585E+02  0.51100000000E-03 0. -1.
        -11    1    3    3    0    0 -0.16518612139E+02 -0.22062931457E+02 -0.14302764750E+02  0.31051675820E+02  0.51100000000E-03 0.  1.
        -12    1    3    3    0    0 -0.17673958880E+01  0.24013403811E+01  0.11171672078E+01  0.31840518873E+01  0.00000000000E+00 0.  1.
</event>
<event>
 7    1  0.2834226E-010  0.4778727E+02  0.7816164E-02  0.1312668E+00
        -11   -1    0    0    0    0  0.00000000000E+00  0.00000000000E+00  0.45593999997E+02  0.45594000000E+02  0.51100000000E-03 0. -1.
         11   -1    0    0    0    0 -0.00000000000E+00 -0.00000000000E+00 -0.45593999997E+02  0.45594000000E+02  0.51100000000E-03 0.  1.
    9900012    2    1    2    0    0  0.19450078864E+01 -0.20152670377E+02  0.38388934415E+02  0.47787268848E+02  0.19999989985E+02 0.  0.
        -12    1    1    2    0    0 -0.19450078864E+01  0.20152670377E+02 -0.38388934415E+02  0.43400731152E+02  0.00000000000E+00 0.  1.
         11    1    3    3    0    0 -0.60863750689E+00 -0.16021660374E+02  0.12604582174E+02  0.20394595677E+02  0.51100000000E-03 0. -1.
        -11    1    3    3    0    0  0.31165884162E+01  0.55586085532E+00  0.18095694237E+02  0.18370526798E+02  0.51100000000E-03 0.  1.
        -12    1    3    3    0    0 -0.56294302293E+00 -0.46868708580E+01  0.76886580034E+01  0.90221463732E+01  0.00000000000E+00 0.  1.
</event>
<event>
 7    1  0.2834226E-010  0.4778724E+02  0.7816164E-02  0.1312668E+00
        -11   -1    0    0    0    0  0.00000000000E+00  0.00000000000E+00  0.45593999997E+02  0.45594000000E+02  0.51100000000E-03 0.  1.
         11   -1    0    0    0    0 -0.00000000000E+00 -0.00000000000E+00 -0.45593999997E+02  0.45594000000E+02  0.51100000000E-03 0. -1.
    9900012    2    1    2    0    0  0.57581701361E+01  0.40245955858E+02 -0.15189894806E+02  0.47787235140E+02  0.19999836297E+02 0.  0.
        -12    1    1    2    0    0 -0.57581701361E+01 -0.40245955858E+02  0.15189894806E+02  0.43400764860E+02  0.00000000000E+00 0.  1.
         11    1    3    3    0    0  0.52786948387E+01  0.95135518518E+01  0.16394184524E+01  0.11002726079E+02  0.51100000000E-03 0. -1.
        -11    1    3    3    0    0 -0.48378784511E+01  0.93071923223E+01 -0.70609953659E+01  0.12644625445E+02  0.51100000000E-03 0.  1.
         12    1    3    3    0    0  0.53173537485E+01  0.21425211683E+02 -0.97683178925E+01  0.24139883616E+02  0.00000000000E+00 0. -1.
</event>
<event>
 7    1  0.2834226E-010  0.4778727E+02  0.7816164E-02  0.1312668E+00
        -11   -1    0    0    0    0  0.00000000000E+00  0.00000000000E+00  0.45593999997E+02  0.45594000000E+02  0.51100000000E-03 0.  1.
         11   -1    0    0    0    0 -0.00000000000E+00 -0.00000000000E+00 -0.45593999997E+02  0.45594000000E+02  0.51100000000E-03 0. -1.
    9900012    2    1    2    0    0  0.27026331725E+02  0.13665325924E+02 -0.31087927965E+02  0.47787274150E+02  0.20000014162E+02 0.  0.
        -12    1    1    2    0    0 -0.27026331725E+02 -0.13665325924E+02  0.31087927965E+02  0.43400725850E+02  0.00000000000E+00 0.  1.
         11    1    3    3    0    0  0.11927828288E+01  0.53998071200E+01 -0.60862471305E+00  0.55633687738E+01  0.51100000000E-03 0.  1.
        -11    1    3    3    0    0  0.17259848211E+02  0.12022389312E+01 -0.13553051897E+02  0.21978010708E+02  0.51100000000E-03 0. -1.
        -12    1    3    3    0    0  0.85737006856E+01  0.70632798724E+01 -0.16926251355E+02  0.20245894668E+02  0.00000000000E+00 0.  1.
</event>
<event>
 7    1  0.2834226E-010  0.4778726E+02  0.7816164E-02  0.1312668E+00
        -11   -1    0    0    0    0  0.00000000000E+00  0.00000000000E+00  0.45593999997E+02  0.45594000000E+02  0.51100000000E-03 0.  1.
         11   -1    0    0    0    0 -0.00000000000E+00 -0.00000000000E+00 -0.45593999997E+02  0.45594000000E+02  0.51100000000E-03 0. -1.
    9900012    2    1    2    0    0 -0.27937560927E+02 -0.33151874324E+02  0.20173843992E+01  0.47787263582E+02  0.19999965977E+02 0.  0.
        -12    1    1    2    0    0  0.27937560927E+02  0.33151874324E+02 -0.20173843992E+01  0.43400736418E+02  0.00000000000E+00 0.  1.
         11    1    3    3    0    0 -0.61035167414E+01 -0.57893634492E+01  0.18011714029E+01  0.86031310837E+01  0.51100000000E-03 0. -1.
        -11    1    3    3    0    0 -0.21572750737E+02 -0.22871174964E+02 -0.54920353209E+01  0.31916087962E+02  0.51100000000E-03 0.  1.
        -12    1    3    3    0    0 -0.26129344920E+00 -0.44913359107E+01  0.57082483172E+01  0.72680445362E+01  0.00000000000E+00 0.  1.
</event>
<event>
 7    1  0.2834226E-010  0.4778727E+02  0.7816164E-02  0.1312668E+00
        -11   -1    0    0    0    0  0.00000000000E+00  0.00000000000E+00  0.45593999997E+02  0.45594000000E+02  0.51100000000E-03 0. -1.
         11   -1    0    0    0    0 -0.00000000000E+00 -0.00000000000E+00 -0.45593999997E+02  0.45594000000E+02  0.51100000000E-03 0.  1.
    9900012    2    1    2    0    0 -0.74261005577E+01 -0.41430696971E+02  0.10581754759E+02  0.47787272416E+02  0.20000006255E+02 0.  0.
        -12    1    1    2    0    0  0.74261005577E+01  0.41430696971E+02 -0.10581754759E+02  0.43400727584E+02  0.00000000000E+00 0.  1.
         11    1    3    3    0    0  0.10743508176E+00 -0.16849967656E+01  0.20607725147E+01  0.26641208710E+01  0.51100000000E-03 0. -1.
        -11    1    3    3    0    0 -0.13524347319E+02 -0.25729529558E+02  0.57377227223E+01  0.29628333128E+02  0.51100000000E-03 0.  1.
        -12    1    3    3    0    0  0.59908116795E+01 -0.14016170648E+02  0.27832595223E+01  0.15494818417E+02  0.00000000000E+00 0.  1.
</event>
<event>
 7    1  0.2834226E-010  0.4778728E+02  0.7816164E-02  0.1312668E+00
        -11   -1    0    0    0    0  0.00000000000E+00  0.00000000000E+00  0.45593999997E+02  0.45594000000E+02  0.51100000000E-03 0. -1.
         11   -1    0    0    0    0 -0.00000000000E+00 -0.00000000000E+00 -0.45593999997E+02  0.45594000000E+02  0.51100000000E-03 0.  1.
    9900012    2    1    2    0    0 -0.38430229656E+02  0.12289520149E+02  0.15990867698E+02  0.47787277579E+02  0.20000029792E+02 0.  0.
        -12    1    1    2    0    0  0.38430229656E+02 -0.12289520149E+02 -0.15990867698E+02  0.43400722421E+02  0.00000000000E+00 0.  1.
         11    1    3    3    0    0 -0.66592036871E+01 -0.11434448673E+01  0.52535180438E-01  0.67568646661E+01  0.51100000000E-03 0. -1.
        -11    1    3    3    0    0 -0.27820111661E+02  0.90509034456E+01  0.66101184472E+01  0.29992851351E+02  0.51100000000E-03 0.  1.
        -12    1    3    3    0    0 -0.39509143088E+01  0.43820615709E+01  0.93282140707E+01  0.11037561562E+02  0.00000000000E+00 0.  1.
</event>
<event>
 7    1  0.2834226E-010  0.4778727E+02  0.7816164E-02  0.1312668E+00
        -11   -1    0    0    0    0  0.00000000000E+00  0.00000000000E+00  0.45593999997E+02  0.45594000000E+02  0.51100000000E-03 0.  1.
         11   -1    0    0    0    0 -0.00000000000E+00 -0.00000000000E+00 -0.45593999997E+02  0.45594000000E+02  0.51100000000E-03 0. -1.
    9900012    2    1    2    0    0  0.21140540180E+02  0.33904112289E+02 -0.16947322068E+02  0.47787274263E+02  0.20000014676E+02 0.  0.
        -12    1    1    2    0    0 -0.21140540180E+02 -0.33904112289E+02  0.16947322068E+02  0.43400725737E+02  0.00000000000E+00 0.  1.
         11    1    3    3    0    0  0.18615966381E+02  0.14393530805E+02 -0.10461291800E+02  0.25752020498E+02  0.51100000000E-03 0. -1.
        -11    1    3    3    0    0  0.34411531343E+01  0.68108941072E+01  0.24115656832E+00  0.76346558655E+01  0.51100000000E-03 0.  1.
         12    1    3    3    0    0 -0.91657933522E+00  0.12699687377E+02 -0.67271868365E+01  0.14400597900E+02  0.00000000000E+00 0. -1.
</event>
<event>
 7    1  0.2834226E-010  0.4778727E+02  0.7816164E-02  0.1312668E+00
        -11   -1    0    0    0    0  0.00000000000E+00  0.00000000000E+00  0.45593999997E+02  0.45594000000E+02  0.51100000000E-03 0.  1.
         11   -1    0    0    0    0 -0.00000000000E+00 -0.00000000000E+00 -0.45593999997E+02  0.45594000000E+02  0.51100000000E-03 0. -1.
    9900012    2    1    2    0    0  0.41954014915E+02 -0.79820907624E+01  0.77311331355E+01  0.47787267748E+02  0.19999984970E+02 0.  0.
        -12    1    1    2    0    0 -0.41954014915E+02  0.79820907624E+01 -0.77311331355E+01  0.43400732252E+02  0.00000000000E+00 0.  1.
         11    1    3    3    0    0  0.13039703478E+02 -0.98066227361E+01  0.23512842552E+01  0.16484303267E+02  0.51100000000E-03 0. -1.
        -11    1    3    3    0    0  0.21297138791E+02  0.16839381639E+01  0.86029816193E+01  0.23030741660E+02  0.51100000000E-03 0.  1.
         12    1    3    3    0    0  0.76171726468E+01  0.14059380989E+00 -0.32231327390E+01  0.82722228212E+01  0.00000000000E+00 0. -1.
</event>
<event>
 7    1  0.2834226E-010  0.4778727E+02  0.7816164E-02  0.1312668E+00
        -11   -1    0    0    0    0  0.00000000000E+00  0.00000000000E+00  0.45593999997E+02  0.45594000000E+02  0.51100000000E-03 0. -1.
         11   -1    0    0    0    0 -0.00000000000E+00 -0.00000000000E+00 -0.45593999997E+02  0.45594000000E+02  0.51100000000E-03 0.  1.
    9900012    2    1    2    0    0 -0.32826398861E+02  0.25626813968E+02  0.12219547735E+02  0.47787269555E+02  0.19999993207E+02 0.  0.
        -12    1    1    2    0    0  0.32826398861E+02 -0.25626813968E+02 -0.12219547735E+02  0.43400730445E+02  0.00000000000E+00 0.  1.
         11    1    3    3    0    0 -0.11419060959E+02  0.15135536015E+02  0.14218127318E+01  0.19013178465E+02  0.51100000000E-03 0. -1.
        -11    1    3    3    0    0 -0.11660968237E+02 -0.60335410757E+00  0.66393209941E+01  0.13432155446E+02  0.51100000000E-03 0.  1.
        -12    1    3    3    0    0 -0.97463696656E+01  0.11094632060E+02  0.41584140088E+01  0.15341935643E+02  0.00000000000E+00 0.  1.
</event>
<event>
 7    1  0.2834226E-010  0.4778727E+02  0.7816164E-02  0.1312668E+00
        -11   -1    0    0    0    0  0.00000000000E+00  0.00000000000E+00  0.45593999997E+02  0.45594000000E+02  0.51100000000E-03 0.  1.
         11   -1    0    0    0    0 -0.00000000000E+00 -0.00000000000E+00 -0.45593999997E+02  0.45594000000E+02  0.51100000000E-03 0. -1.
    9900012    2    1    2    0    0  0.10688154429E+02 -0.39793430485E+02 -0.13633397909E+02  0.47787270819E+02  0.19999998973E+02 0.  0.
        -12    1    1    2    0    0 -0.10688154429E+02  0.39793430485E+02  0.13633397909E+02  0.43400729181E+02  0.00000000000E+00 0.  1.
         11    1    3    3    0    0  0.14117086431E+01 -0.10756829554E+02 -0.25814386132E+01  0.11151956282E+02  0.51100000000E-03 0. -1.
        -11    1    3    3    0    0 -0.24377195499E+01 -0.14633735721E+02  0.36625394583E+00  0.14839907007E+02  0.51100000000E-03 0.  1.
        -12    1    3    3    0    0  0.11714165335E+02 -0.14402865211E+02 -0.11418213241E+02  0.21795407530E+02  0.00000000000E+00 0.  1.
</event>
<event>
 7    1  0.2834226E-010  0.4778727E+02  0.7816164E-02  0.1312668E+00
        -11   -1    0    0    0    0  0.00000000000E+00  0.00000000000E+00  0.45593999997E+02  0.45594000000E+02  0.51100000000E-03 0.  1.
         11   -1    0    0    0    0 -0.00000000000E+00 -0.00000000000E+00 -0.45593999997E+02  0.45594000000E+02  0.51100000000E-03 0. -1.
    9900012    2    1    2    0    0 -0.12656886078E+02 -0.39097645644E+02 -0.13957104943E+02  0.47787269148E+02  0.19999991351E+02 0.  0.
        -12    1    1    2    0    0  0.12656886078E+02  0.39097645644E+02  0.13957104943E+02  0.43400730852E+02  0.00000000000E+00 0.  1.
         11    1    3    3    0    0 -0.18959010005E+01  0.14831862687E+01 -0.32328129958E+01  0.40305535896E+01  0.51100000000E-03 0.  1.
        -11    1    3    3    0    0 -0.53298122201E+01 -0.27426257821E+02 -0.48348883952E+01  0.28354588031E+02  0.51100000000E-03 0. -1.
        -12    1    3    3    0    0 -0.54311728572E+01 -0.13154574092E+02 -0.58894035523E+01  0.15402127527E+02  0.00000000000E+00 0.  1.
</event>
<event>
 7    1  0.2834226E-010  0.4778727E+02  0.7816164E-02  0.1312668E+00
        -11   -1    0    0    0    0  0.00000000000E+00  0.00000000000E+00  0.45593999997E+02  0.45594000000E+02  0.51100000000E-03 0.  1.
         11   -1    0    0    0    0 -0.00000000000E+00 -0.00000000000E+00 -0.45593999997E+02  0.45594000000E+02  0.51100000000E-03 0. -1.
    9900012    2    1    2    0    0  0.64905476251E+01 -0.15293864799E+02 -0.40094810487E+02  0.47787270318E+02  0.19999996687E+02 0.  0.
        -12    1    1    2    0    0 -0.64905476251E+01  0.15293864799E+02  0.40094810487E+02  0.43400729682E+02  0.00000000000E+00 0.  1.
         11    1    3    3    0    0  0.95112458895E+00  0.29730616497E+01 -0.13992397875E+02  0.14336350028E+02  0.51100000000E-03 0.  1.
        -11    1    3    3    0    0  0.84497314519E+00 -0.11471192445E+02 -0.95416597780E+01  0.14944748486E+02  0.51100000000E-03 0. -1.
        -12    1    3    3    0    0  0.46944498909E+01 -0.67957340032E+01 -0.16560752834E+02  0.18506171804E+02  0.00000000000E+00 0.  1.
</event>
<event>
 7    1  0.2834226E-010  0.4778726E+02  0.7816164E-02  0.1312668E+00
        -11   -1    0    0    0    0  0.00000000000E+00  0.00000000000E+00  0.45593999997E+02  0.45594000000E+02  0.51100000000E-03 0. -1.
         11   -1    0    0    0    0 -0.00000000000E+00 -0.00000000000E+00 -0.45593999997E+02  0.45594000000E+02  0.51100000000E-03 0.  1.
    9900012    2    1    2    0    0 -0.36748279431E+02 -0.10376605660E+02  0.20627994950E+02  0.47787260815E+02  0.19999953358E+02 0.  0.
        -12    1    1    2    0    0  0.36748279431E+02  0.10376605660E+02 -0.20627994950E+02  0.43400739185E+02  0.00000000000E+00 0.  1.
         11    1    3    3    0    0 -0.41295564542E+01  0.74345763692E+00  0.76372885500E+01  0.87140198774E+01  0.51100000000E-03 0. -1.
        -11    1    3    3    0    0 -0.21718743153E+02 -0.36064693215E+01  0.24524888725E+01  0.22152316517E+02  0.51100000000E-03 0.  1.
         12    1    3    3    0    0 -0.10899979824E+02 -0.75135939755E+01  0.10538217527E+02  0.16920924420E+02  0.00000000000E+00 0. -1.
</event>
<event>
 7    1  0.2834226E-010  0.4778727E+02  0.7816164E-02  0.1312668E+00
        -11   -1    0    0    0    0  0.00000000000E+00  0.00000000000E+00  0.45593999997E+02  0.45594000000E+02  0.51100000000E-03 0.  1.
         11   -1    0    0    0    0 -0.00000000000E+00 -0.00000000000E+00 -0.45593999997E+02  0.45594000000E+02  0.51100000000E-03 0. -1.
    9900012    2    1    2    0    0 -0.39285355558E+02  0.49340606203E+01 -0.17774670676E+02  0.47787273817E+02  0.20000012641E+02 0.  0.
        -12    1    1    2    0    0  0.39285355558E+02 -0.49340606203E+01  0.17774670676E+02  0.43400726183E+02  0.00000000000E+00 0.  1.
         11    1    3    3    0    0 -0.18209534011E+02 -0.13393259088E+01 -0.11677481619E+02  0.21673589920E+02  0.51100000000E-03 0. -1.
        -11    1    3    3    0    0 -0.20699535176E+01 -0.79883658722E+00  0.31279314630E+01  0.38349449744E+01  0.51100000000E-03 0.  1.
        -12    1    3    3    0    0 -0.19005868030E+02  0.70722231163E+01 -0.92251205202E+01  0.22278738923E+02  0.00000000000E+00 0.  1.
</event>
<event>
 7    1  0.2834226E-010  0.4778727E+02  0.7816164E-02  0.1312668E+00
        -11   -1    0    0    0    0  0.00000000000E+00  0.00000000000E+00  0.45593999997E+02  0.45594000000E+02  0.51100000000E-03 0. -1.
         11   -1    0    0    0    0 -0.00000000000E+00 -0.00000000000E+00 -0.45593999997E+02  0.45594000000E+02  0.51100000000E-03 0.  1.
    9900012    2    1    2    0    0 -0.38476262490E+02 -0.10565906017E+02  0.17075185127E+02  0.47787273136E+02  0.20000009538E+02 0.  0.
        -12    1    1    2    0    0  0.38476262490E+02  0.10565906017E+02 -0.17075185127E+02  0.43400726864E+02  0.00000000000E+00 0.  1.
         11    1    3    3    0    0 -0.14172695152E+02 -0.34177141356E+01  0.79985436142E+01  0.16628973449E+02  0.51100000000E-03 0. -1.
        -11    1    3    3    0    0 -0.21465507189E+02 -0.11584120276E+02  0.86291754759E+01  0.25873200635E+02  0.51100000000E-03 0.  1.
        -12    1    3    3    0    0 -0.28380601499E+01  0.44359283946E+01  0.44746603653E+00  0.52850990521E+01  0.00000000000E+00 0.  1.
</event>
<event>
 7    1  0.2834226E-010  0.4778727E+02  0.7816164E-02  0.1312668E+00
        -11   -1    0    0    0    0  0.00000000000E+00  0.00000000000E+00  0.45593999997E+02  0.45594000000E+02  0.51100000000E-03 0. -1.
         11   -1    0    0    0    0 -0.00000000000E+00 -0.00000000000E+00 -0.45593999997E+02  0.45594000000E+02  0.51100000000E-03 0.  1.
    9900012    2    1    2    0    0 -0.28644647012E+02 -0.72788799815E+01  0.31782477890E+02  0.47787265017E+02  0.19999972517E+02 0.  0.
        -12    1    1    2    0    0  0.28644647012E+02  0.72788799815E+01 -0.31782477890E+02  0.43400734983E+02  0.00000000000E+00 0.  1.
         11    1    3    3    0    0 -0.17637731414E+02  0.85188084031E+00  0.17809644376E+02  0.25079846559E+02  0.51100000000E-03 0. -1.
        -11    1    3    3    0    0 -0.19216662305E+01 -0.85658666248E+01  0.74616517308E+01  0.11521420006E+02  0.51100000000E-03 0.  1.
        -12    1    3    3    0    0 -0.90852493682E+01  0.43510580301E+00  0.65111817835E+01  0.11185998452E+02  0.00000000000E+00 0.  1.
</event>
<event>
 7    1  0.2834226E-010  0.4778726E+02  0.7816164E-02  0.1312668E+00
        -11   -1    0    0    0    0  0.00000000000E+00  0.00000000000E+00  0.45593999997E+02  0.45594000000E+02  0.51100000000E-03 0. -1.
         11   -1    0    0    0    0 -0.00000000000E+00 -0.00000000000E+00 -0.45593999997E+02  0.45594000000E+02  0.51100000000E-03 0.  1.
    9900012    2    1    2    0    0 -0.23265938327E+02  0.24459483638E+02  0.27277360754E+02  0.47787255354E+02  0.19999928462E+02 0.  0.
        -12    1    1    2    0    0  0.23265938327E+02 -0.24459483638E+02 -0.27277360754E+02  0.43400744646E+02  0.00000000000E+00 0.  1.
         11    1    3    3    0    0 -0.12513138381E+02  0.20606111094E+02  0.19864094047E+02  0.31237360310E+02  0.51100000000E-03 0. -1.
        -11    1    3    3    0    0 -0.87812351599E+01 -0.16526394859E+01  0.48178648632E+01  0.10151508770E+02  0.51100000000E-03 0.  1.
        -12    1    3    3    0    0 -0.19715647865E+01  0.55060120304E+01  0.25954018439E+01  0.63983862745E+01  0.00000000000E+00 0.  1.
</event>
<event>
 7    1  0.2834226E-010  0.4778728E+02  0.7816164E-02  0.1312668E+00
        -11   -1    0    0    0    0  0.00000000000E+00  0.00000000000E+00  0.45593999997E+02  0.45594000000E+02  0.51100000000E-03 0. -1.
         11   -1    0    0    0    0 -0.00000000000E+00 -0.00000000000E+00 -0.45593999997E+02  0.45594000000E+02  0.51100000000E-03 0.  1.
    9900012    2    1    2    0    0 -0.21563306097E+02  0.29789730337E+01  0.37546935847E+02  0.47787276024E+02  0.20000022703E+02 0.  0.
        -12    1    1    2    0    0  0.21563306097E+02 -0.29789730337E+01 -0.37546935847E+02  0.43400723976E+02  0.00000000000E+00 0.  1.
         11    1    3    3    0    0 -0.51291238585E+01 -0.70199993317E+01  0.14839380752E+02  0.17198707031E+02  0.51100000000E-03 0. -1.
        -11    1    3    3    0    0 -0.10693496721E+02  0.98397015969E+01  0.18189295916E+02  0.23281346306E+02  0.51100000000E-03 0.  1.
        -12    1    3    3    0    0 -0.57406855176E+01  0.15927076852E+00  0.45182591794E+01  0.73072226873E+01  0.00000000000E+00 0.  1.
</event>
<event>
 7    1  0.2834226E-010  0.4778727E+02  0.7816164E-02  0.1312668E+00
        -11   -1    0    0    0    0  0.00000000000E+00  0.00000000000E+00  0.45593999997E+02  0.45594000000E+02  0.51100000000E-03 0.  1.
         11   -1    0    0    0    0 -0.00000000000E+00 -0.00000000000E+00 -0.45593999997E+02  0.45594000000E+02  0.51100000000E-03 0. -1.
    9900012    2    1    2    0    0  0.26117420263E+02 -0.23649673565E+02 -0.25341602038E+02  0.47787268500E+02  0.19999988398E+02 0.  0.
        -12    1    1    2    0    0 -0.26117420263E+02  0.23649673565E+02  0.25341602038E+02  0.43400731500E+02  0.00000000000E+00 0.  1.
         11    1    3    3    0    0  0.19764560685E+01  0.10800502078E+01  0.17748196801E+01  0.28675550911E+01  0.51100000000E-03 0. -1.
        -11    1    3    3    0    0  0.11644902533E+02 -0.97250845621E+01 -0.64451624141E+01  0.16483966257E+02  0.51100000000E-03 0.  1.
         12    1    3    3    0    0  0.12496061661E+02 -0.15004639211E+02 -0.20671259304E+02  0.28435747152E+02  0.00000000000E+00 0. -1.
</event>
<event>
 7    1  0.2834226E-010  0.4778726E+02  0.7816164E-02  0.1312668E+00
        -11   -1    0    0    0    0  0.00000000000E+00  0.00000000000E+00  0.45593999997E+02  0.45594000000E+02  0.51100000000E-03 0.  1.
         11   -1    0    0    0    0 -0.00000000000E+00 -0.00000000000E+00 -0.45593999997E+02  0.45594000000E+02  0.51100000000E-03 0. -1.
    9900012    2    1    2    0    0  0.23059838384E+02  0.32266238645E+02  0.17628316986E+02  0.47787264265E+02  0.19999969089E+02 0.  0.
        -12    1    1    2    0    0 -0.23059838384E+02 -0.32266238645E+02 -0.17628316986E+02  0.43400735735E+02  0.00000000000E+00 0.  1.
         11    1    3    3    0    0  0.73930786466E+00  0.13713009558E+02  0.69197902097E+01  0.15377799065E+02  0.51100000000E-03 0. -1.
        -11    1    3    3    0    0 -0.39243446019E+00 -0.22574614217E+00 -0.67816013985E+00  0.81539411492E+00  0.51100000000E-03 0.  1.
         12    1    3    3    0    0  0.22712964979E+02  0.18778975229E+02  0.11386686916E+02  0.31594071085E+02  0.00000000000E+00 0. -1.
</event>
<event>
 7    1  0.2834226E-010  0.4778727E+02  0.7816164E-02  0.1312668E+00
        -11   -1    0    0    0    0  0.00000000000E+00  0.00000000000E+00  0.45593999997E+02  0.45594000000E+02  0.51100000000E-03 0.  1.
         11   -1    0    0    0    0 -0.00000000000E+00 -0.00000000000E+00 -0.45593999997E+02  0.45594000000E+02  0.51100000000E-03 0. -1.
    9900012    2    1    2    0    0  0.45355754649E+01  0.48261563486E+01 -0.42892424083E+02  0.47787271048E+02  0.20000000014E+02 0.  0.
        -12    1    1    2    0    0 -0.45355754649E+01 -0.48261563486E+01  0.42892424083E+02  0.43400728952E+02  0.00000000000E+00 0.  1.
         11    1    3    3    0    0  0.80135187794E+01  0.68336110732E+01 -0.34601981097E+02  0.36169210935E+02  0.51100000000E-03 0. -1.
        -11    1    3    3    0    0 -0.12658688849E+01  0.87481234303E+00  0.86699792114E+00  0.17661841143E+01  0.51100000000E-03 0.  1.
         12    1    3    3    0    0 -0.22120744296E+01 -0.28822670676E+01 -0.91574409068E+01  0.98518759986E+01  0.00000000000E+00 0. -1.
</event>
<event>
 7    1  0.2834226E-010  0.4778728E+02  0.7816164E-02  0.1312668E+00
        -11   -1    0    0    0    0  0.00000000000E+00  0.00000000000E+00  0.45593999997E+02  0.45594000000E+02  0.51100000000E-03 0.  1.
         11   -1    0    0    0    0 -0.00000000000E+00 -0.00000000000E+00 -0.45593999997E+02  0.45594000000E+02  0.51100000000E-03 0. -1.
    9900012    2    1    2    0    0 -0.17464227139E+02 -0.18054621857E+02 -0.35392855393E+02  0.47787276356E+02  0.20000024217E+02 0.  0.
        -12    1    1    2    0    0  0.17464227139E+02  0.18054621857E+02  0.35392855393E+02  0.43400723644E+02  0.00000000000E+00 0.  1.
         11    1    3    3    0    0 -0.16699270863E+02 -0.18079610428E+02 -0.18814184747E+02  0.30979210909E+02  0.51100000000E-03 0. -1.
        -11    1    3    3    0    0 -0.45241907081E-01 -0.37938589724E+00 -0.24572540042E+00  0.45427053912E+00  0.51100000000E-03 0.  1.
         12    1    3    3    0    0 -0.71971436906E+00  0.40437446828E+00 -0.16332945246E+02  0.16353794908E+02  0.00000000000E+00 0. -1.
</event>
<event>
 7    1  0.2834226E-010  0.4778727E+02  0.7816164E-02  0.1312668E+00
        -11   -1    0    0    0    0  0.00000000000E+00  0.00000000000E+00  0.45593999997E+02  0.45594000000E+02  0.51100000000E-03 0. -1.
         11   -1    0    0    0    0 -0.00000000000E+00 -0.00000000000E+00 -0.45593999997E+02  0.45594000000E+02  0.51100000000E-03 0.  1.
    9900012    2    1    2    0    0 -0.52994597286E+01 -0.39036467762E+02  0.18212454113E+02  0.47787267592E+02  0.19999984260E+02 0.  0.
        -12    1    1    2    0    0  0.52994597286E+01  0.39036467762E+02 -0.18212454113E+02  0.43400732408E+02  0.00000000000E+00 0.  1.
         11    1    3    3    0    0 -0.34022745532E+01 -0.49456277216E+01  0.37305237095E+01  0.70676384390E+01  0.51100000000E-03 0. -1.
        -11    1    3    3    0    0 -0.52793344599E+01 -0.32407675278E+02  0.16147922503E+02  0.36590766468E+02  0.51100000000E-03 0.  1.
        -12    1    3    3    0    0  0.33821492846E+01 -0.16831647615E+01 -0.16659920995E+01  0.41288626852E+01  0.00000000000E+00 0.  1.
</event>
<event>
 7    1  0.2834226E-010  0.4778727E+02  0.7816164E-02  0.1312668E+00
        -11   -1    0    0    0    0  0.00000000000E+00  0.00000000000E+00  0.45593999997E+02  0.45594000000E+02  0.51100000000E-03 0. -1.
         11   -1    0    0    0    0 -0.00000000000E+00 -0.00000000000E+00 -0.45593999997E+02  0.45594000000E+02  0.51100000000E-03 0.  1.
    9900012    2    1    2    0    0  0.20134708755E+02 -0.31181176280E+02  0.22493354373E+02  0.47787271414E+02  0.20000001685E+02 0.  0.
        -12    1    1    2    0    0 -0.20134708755E+02  0.31181176280E+02 -0.22493354373E+02  0.43400728586E+02  0.00000000000E+00 0.  1.
         11    1    3    3    0    0  0.14534752276E+02 -0.24588193223E+02  0.16769817861E+02  0.33121972481E+02  0.51100000000E-03 0. -1.
        -11    1    3    3    0    0  0.22387665789E+01 -0.11048137564E+00  0.69126920824E+01  0.72670209864E+01  0.51100000000E-03 0.  1.
        -12    1    3    3    0    0  0.33611899000E+01 -0.64825016815E+01 -0.11891555711E+01  0.73982779461E+01  0.00000000000E+00 0.  1.
</event>
<event>
 7    1  0.2834226E-010  0.4778727E+02  0.7816164E-02  0.1312668E+00
        -11   -1    0    0    0    0  0.00000000000E+00  0.00000000000E+00  0.45593999997E+02  0.45594000000E+02  0.51100000000E-03 0. -1.
         11   -1    0    0    0    0 -0.00000000000E+00 -0.00000000000E+00 -0.45593999997E+02  0.45594000000E+02  0.51100000000E-03 0.  1.
    9900012    2    1    2    0    0 -0.42876250226E+02  0.59104427884E+01  0.32120135910E+01  0.47787271910E+02  0.20000003947E+02 0.  0.
        -12    1    1    2    0    0  0.42876250226E+02 -0.59104427884E+01 -0.32120135910E+01  0.43400728090E+02  0.00000000000E+00 0.  1.
         11    1    3    3    0    0 -0.28934804845E+02  0.10197472715E+02  0.38844661819E+01  0.30924108054E+02  0.51100000000E-03 0. -1.
        -11    1    3    3    0    0 -0.75612755966E+01 -0.37906799121E+01 -0.43195635910E+01  0.94974087372E+01  0.51100000000E-03 0.  1.
        -12    1    3    3    0    0 -0.63801697849E+01 -0.49635001475E+00  0.36471110001E+01  0.73657551187E+01  0.00000000000E+00 0.  1.
</event>
<event>
 7    1  0.2834226E-010  0.4778727E+02  0.7816164E-02  0.1312668E+00
        -11   -1    0    0    0    0  0.00000000000E+00  0.00000000000E+00  0.45593999997E+02  0.45594000000E+02  0.51100000000E-03 0. -1.
         11   -1    0    0    0    0 -0.00000000000E+00 -0.00000000000E+00 -0.45593999997E+02  0.45594000000E+02  0.51100000000E-03 0.  1.
    9900012    2    1    2    0    0 -0.76678713775E+01 -0.38264938897E+02  0.18990038339E+02  0.47787270094E+02  0.19999995665E+02 0.  0.
        -12    1    1    2    0    0  0.76678713775E+01  0.38264938897E+02 -0.18990038339E+02  0.43400729906E+02  0.00000000000E+00 0.  1.
         11    1    3    3    0    0  0.58149190533E+01 -0.18331605265E+02  0.10108322149E+02  0.21726463405E+02  0.51100000000E-03 0. -1.
        -11    1    3    3    0    0 -0.76041330171E+01 -0.75240083654E+01  0.48825222802E+01  0.11758935534E+02  0.51100000000E-03 0.  1.
         12    1    3    3    0    0 -0.58786574137E+01 -0.12409325267E+02  0.39991939100E+01  0.14301871154E+02  0.00000000000E+00 0. -1.
</event>
<event>
 7    1  0.2834226E-010  0.4778726E+02  0.7816164E-02  0.1312668E+00
        -11   -1    0    0    0    0  0.00000000000E+00  0.00000000000E+00  0.45593999997E+02  0.45594000000E+02  0.51100000000E-03 0.  1.
         11   -1    0    0    0    0 -0.00000000000E+00 -0.00000000000E+00 -0.45593999997E+02  0.45594000000E+02  0.51100000000E-03 0. -1.
    9900012    2    1    2    0    0  0.10322660864E+02 -0.17313143797E+02 -0.38435943321E+02  0.47787262513E+02  0.19999961100E+02 0.  0.
        -12    1    1    2    0    0 -0.10322660864E+02  0.17313143797E+02  0.38435943321E+02  0.43400737487E+02  0.00000000000E+00 0.  1.
         11    1    3    3    0    0  0.74770730851E+01 -0.73813545752E+01 -0.22037797497E+02  0.24414248628E+02  0.51100000000E-03 0. -1.
        -11    1    3    3    0    0  0.55420012967E+01 -0.27516469707E+01 -0.11343863473E+01  0.62906416263E+01  0.51100000000E-03 0.  1.
        -12    1    3    3    0    0 -0.26964135179E+01 -0.71801422508E+01 -0.15263759478E+02  0.17082372259E+02  0.00000000000E+00 0.  1.
</event>
<event>
 7    1  0.2834226E-010  0.4778731E+02  0.7816164E-02  0.1312668E+00
        -11   -1    0    0    0    0  0.00000000000E+00  0.00000000000E+00  0.45593999997E+02  0.45594000000E+02  0.51100000000E-03 0.  1.
         11   -1    0    0    0    0 -0.00000000000E+00 -0.00000000000E+00 -0.45593999997E+02  0.45594000000E+02  0.51100000000E-03 0. -1.
    9900012    2    1    2    0    0  0.37006287859E+01  0.43228429072E+02 -0.11083789354E+01  0.47787306028E+02  0.20000159503E+02 0.  0.
        -12    1    1    2    0    0 -0.37006287859E+01 -0.43228429072E+02  0.11083789354E+01  0.43400693972E+02  0.00000000000E+00 0.  1.
         11    1    3    3    0    0  0.55698584881E+01  0.31165335979E+02 -0.24808529398E+01  0.31756198164E+02  0.51100000000E-03 0. -1.
        -11    1    3    3    0    0  0.22648381503E+00  0.15614963755E+01  0.45866680566E+01  0.48504731699E+01  0.51100000000E-03 0.  1.
         12    1    3    3    0    0 -0.20957135172E+01  0.10501596717E+02 -0.32141940522E+01  0.11180634694E+02  0.00000000000E+00 0. -1.
</event>
<event>
 7    1  0.2834226E-010  0.4778728E+02  0.7816164E-02  0.1312668E+00
        -11   -1    0    0    0    0  0.00000000000E+00  0.00000000000E+00  0.45593999997E+02  0.45594000000E+02  0.51100000000E-03 0.  1.
         11   -1    0    0    0    0 -0.00000000000E+00 -0.00000000000E+00 -0.45593999997E+02  0.45594000000E+02  0.51100000000E-03 0. -1.
    9900012    2    1    2    0    0  0.32758541343E+02 -0.21361426908E+02 -0.18819938853E+02  0.47787277783E+02  0.20000030726E+02 0.  0.
        -12    1    1    2    0    0 -0.32758541343E+02  0.21361426908E+02  0.18819938853E+02  0.43400722217E+02  0.00000000000E+00 0.  1.
         11    1    3    3    0    0  0.98011008342E+01 -0.10727234359E+02 -0.76711537233E+01  0.16431120907E+02  0.51100000000E-03 0. -1.
        -11    1    3    3    0    0  0.12626510159E+02  0.20868461120E+01 -0.34770997673E+01  0.13261746059E+02  0.51100000000E-03 0.  1.
        -12    1    3    3    0    0  0.10330930350E+02 -0.12721038661E+02 -0.76716853622E+01  0.18094410817E+02  0.00000000000E+00 0.  1.
</event>
<event>
 7    1  0.2834226E-010  0.4778727E+02  0.7816164E-02  0.1312668E+00
        -11   -1    0    0    0    0  0.00000000000E+00  0.00000000000E+00  0.45593999997E+02  0.45594000000E+02  0.51100000000E-03 0.  1.
         11   -1    0    0    0    0 -0.00000000000E+00 -0.00000000000E+00 -0.45593999997E+02  0.45594000000E+02  0.51100000000E-03 0. -1.
    9900012    2    1    2    0    0 -0.36259892686E+02  0.17372067759E+02  0.16341808515E+02  0.47787271189E+02  0.20000000658E+02 0.  0.
        -12    1    1    2    0    0  0.36259892686E+02 -0.17372067759E+02 -0.16341808515E+02  0.43400728811E+02  0.00000000000E+00 0.  1.
         11    1    3    3    0    0 -0.26471419083E+02  0.51400961093E+01  0.11805911019E+02  0.29436986115E+02  0.51100000000E-03 0. -1.
        -11    1    3    3    0    0 -0.17571954138E+00  0.66752829340E+01  0.17163315530E+01  0.68946409527E+01  0.51100000000E-03 0.  1.
        -12    1    3    3    0    0 -0.96127540610E+01  0.55566887152E+01  0.28195659432E+01  0.11455644121E+02  0.00000000000E+00 0.  1.
</event>
<event>
 7    1  0.2834226E-010  0.4778727E+02  0.7816164E-02  0.1312668E+00
        -11   -1    0    0    0    0  0.00000000000E+00  0.00000000000E+00  0.45593999997E+02  0.45594000000E+02  0.51100000000E-03 0. -1.
         11   -1    0    0    0    0 -0.00000000000E+00 -0.00000000000E+00 -0.45593999997E+02  0.45594000000E+02  0.51100000000E-03 0.  1.
    9900012    2    1    2    0    0 -0.31082766584E+02 -0.24267125721E+02  0.18127095533E+02  0.47787270033E+02  0.19999995387E+02 0.  0.
        -12    1    1    2    0    0  0.31082766584E+02  0.24267125721E+02 -0.18127095533E+02  0.43400729967E+02  0.00000000000E+00 0.  1.
         11    1    3    3    0    0 -0.17771072963E+02 -0.13006447185E+02  0.54964210310E+01  0.22697782866E+02  0.51100000000E-03 0. -1.
        -11    1    3    3    0    0  0.83464306919E+00 -0.60438836416E+01  0.61975932674E+01  0.86968569665E+01  0.51100000000E-03 0.  1.
        -12    1    3    3    0    0 -0.14146336690E+02 -0.52167948945E+01  0.64330812347E+01  0.16392630200E+02  0.00000000000E+00 0.  1.
</event>
<event>
 7    1  0.2834226E-010  0.4778725E+02  0.7816164E-02  0.1312668E+00
        -11   -1    0    0    0    0  0.00000000000E+00  0.00000000000E+00  0.45593999997E+02  0.45594000000E+02  0.51100000000E-03 0.  1.
         11   -1    0    0    0    0 -0.00000000000E+00 -0.00000000000E+00 -0.45593999997E+02  0.45594000000E+02  0.51100000000E-03 0. -1.
    9900012    2    1    2    0    0 -0.27321796333E+02 -0.24489351484E+02 -0.23182242861E+02  0.47787247990E+02  0.19999894886E+02 0.  0.
        -12    1    1    2    0    0  0.27321796333E+02  0.24489351484E+02  0.23182242861E+02  0.43400752010E+02  0.00000000000E+00 0.  1.
         11    1    3    3    0    0 -0.97572283578E+01 -0.86753424680E+01 -0.11667449618E+02  0.17509838749E+02  0.51100000000E-03 0. -1.
        -11    1    3    3    0    0 -0.10957619429E+02 -0.94743731080E+01  0.12818214857E+01  0.14542222523E+02  0.51100000000E-03 0.  1.
        -12    1    3    3    0    0 -0.66069485462E+01 -0.63396359080E+01 -0.12796614728E+02  0.15735186718E+02  0.00000000000E+00 0.  1.
</event>
<event>
 7    1  0.2834226E-010  0.4778727E+02  0.7816164E-02  0.1312668E+00
        -11   -1    0    0    0    0  0.00000000000E+00  0.00000000000E+00  0.45593999997E+02  0.45594000000E+02  0.51100000000E-03 0. -1.
         11   -1    0    0    0    0 -0.00000000000E+00 -0.00000000000E+00 -0.45593999997E+02  0.45594000000E+02  0.51100000000E-03 0.  1.
    9900012    2    1    2    0    0  0.16955285039E+02 -0.29671096056E+02  0.26753834507E+02  0.47787270827E+02  0.19999999008E+02 0.  0.
        -12    1    1    2    0    0 -0.16955285039E+02  0.29671096056E+02 -0.26753834507E+02  0.43400729173E+02  0.00000000000E+00 0.  1.
         11    1    3    3    0    0  0.17998121875E+02 -0.19245643304E+02  0.13804111948E+02  0.29746944115E+02  0.51100000000E-03 0. -1.
        -11    1    3    3    0    0  0.78381599923E+00 -0.18452741993E+01 -0.42111660791E+00  0.20485955799E+01  0.51100000000E-03 0.  1.
         12    1    3    3    0    0 -0.18266528356E+01 -0.85801785530E+01  0.13370839167E+02  0.15991731132E+02  0.00000000000E+00 0. -1.
</event>
<event>
 7    1  0.2834226E-010  0.4778727E+02  0.7816164E-02  0.1312668E+00
        -11   -1    0    0    0    0  0.00000000000E+00  0.00000000000E+00  0.45593999997E+02  0.45594000000E+02  0.51100000000E-03 0.  1.
         11   -1    0    0    0    0 -0.00000000000E+00 -0.00000000000E+00 -0.45593999997E+02  0.45594000000E+02  0.51100000000E-03 0. -1.
    9900012    2    1    2    0    0  0.24166399314E+02 -0.23817021490E+02 -0.27062112252E+02  0.47787270882E+02  0.19999999259E+02 0.  0.
        -12    1    1    2    0    0 -0.24166399314E+02  0.23817021490E+02  0.27062112252E+02  0.43400729118E+02  0.00000000000E+00 0.  1.
         11    1    3    3    0    0  0.11184865611E+02 -0.27370847889E+01 -0.13024626314E+02  0.17384871088E+02  0.51100000000E-03 0.  1.
        -11    1    3    3    0    0  0.12860830608E+02 -0.21113028455E+02 -0.15339748239E+02  0.29094137052E+02  0.51100000000E-03 0. -1.
        -12    1    3    3    0    0  0.12070309469E+00  0.33091754102E-01  0.13022623012E+01  0.13082627421E+01  0.00000000000E+00 0.  1.
</event>
<event>
 7    1  0.2834226E-010  0.4778727E+02  0.7816164E-02  0.1312668E+00
        -11   -1    0    0    0    0  0.00000000000E+00  0.00000000000E+00  0.45593999997E+02  0.45594000000E+02  0.51100000000E-03 0. -1.
         11   -1    0    0    0    0 -0.00000000000E+00 -0.00000000000E+00 -0.45593999997E+02  0.45594000000E+02  0.51100000000E-03 0.  1.
    9900012    2    1    2    0    0 -0.40550000177E+02 -0.79509789999E+01  0.13270379263E+02  0.47787267896E+02  0.19999985645E+02 0.  0.
        -12    1    1    2    0    0  0.40550000177E+02  0.79509789999E+01 -0.13270379263E+02  0.43400732104E+02  0.00000000000E+00 0.  1.
         11    1    3    3    0    0 -0.72449853643E+01 -0.17486172518E+01  0.80197139775E+01  0.10948209341E+02  0.51100000000E-03 0. -1.
        -11    1    3    3    0    0 -0.31668711664E+02 -0.26212620532E+01  0.21904635147E+01  0.31852416610E+02  0.51100000000E-03 0.  1.
        -12    1    3    3    0    0 -0.16363031486E+01 -0.35810996948E+01  0.30602017707E+01  0.49866419458E+01  0.00000000000E+00 0.  1.
</event>
<event>
 7    1  0.2834226E-010  0.4778727E+02  0.7816164E-02  0.1312668E+00
        -11   -1    0    0    0    0  0.00000000000E+00  0.00000000000E+00  0.45593999997E+02  0.45594000000E+02  0.51100000000E-03 0.  1.
         11   -1    0    0    0    0 -0.00000000000E+00 -0.00000000000E+00 -0.45593999997E+02  0.45594000000E+02  0.51100000000E-03 0. -1.
    9900012    2    1    2    0    0 -0.93559749969E+00  0.12209707504E+02 -0.41637378582E+02  0.47787267343E+02  0.19999983124E+02 0.  0.
        -12    1    1    2    0    0  0.93559749969E+00 -0.12209707504E+02  0.41637378582E+02  0.43400732657E+02  0.00000000000E+00 0.  1.
         11    1    3    3    0    0  0.79351432182E+01  0.45918388483E+01 -0.26433566426E+02  0.27978293660E+02  0.51100000000E-03 0. -1.
        -11    1    3    3    0    0 -0.71376097070E+01  0.50883633021E+01 -0.13993904181E+02  0.16512609361E+02  0.51100000000E-03 0.  1.
        -12    1    3    3    0    0 -0.17331310108E+01  0.25295053536E+01 -0.12099079750E+01  0.32963643219E+01  0.00000000000E+00 0.  1.
</event>
<event>
 7    1  0.2834226E-010  0.4778727E+02  0.7816164E-02  0.1312668E+00
        -11   -1    0    0    0    0  0.00000000000E+00  0.00000000000E+00  0.45593999997E+02  0.45594000000E+02  0.51100000000E-03 0.  1.
         11   -1    0    0    0    0 -0.00000000000E+00 -0.00000000000E+00 -0.45593999997E+02  0.45594000000E+02  0.51100000000E-03 0. -1.
    9900012    2    1    2    0    0 -0.23212191159E+02  0.19195865764E+02 -0.31246384596E+02  0.47787266928E+02  0.19999981232E+02 0.  0.
        -12    1    1    2    0    0  0.23212191159E+02 -0.19195865764E+02  0.31246384596E+02  0.43400733072E+02  0.00000000000E+00 0.  1.
         11    1    3    3    0    0 -0.80487804208E+01  0.45119292850E+01 -0.16506416910E+02  0.18910372064E+02  0.51100000000E-03 0. -1.
        -11    1    3    3    0    0 -0.17400024023E+02  0.12172895487E+02 -0.11253162893E+02  0.24032767129E+02  0.51100000000E-03 0.  1.
        -12    1    3    3    0    0  0.22366132842E+01  0.25110409913E+01 -0.34868047936E+01  0.48441277349E+01  0.00000000000E+00 0.  1.
</event>
<event>
 7    1  0.2834226E-010  0.4778727E+02  0.7816164E-02  0.1312668E+00
        -11   -1    0    0    0    0  0.00000000000E+00  0.00000000000E+00  0.45593999997E+02  0.45594000000E+02  0.51100000000E-03 0.  1.
         11   -1    0    0    0    0 -0.00000000000E+00 -0.00000000000E+00 -0.45593999997E+02  0.45594000000E+02  0.51100000000E-03 0. -1.
    9900012    2    1    2    0    0 -0.19123675310E+02  0.48755167765E+01 -0.38654077696E+02  0.47787270240E+02  0.19999996332E+02 0.  0.
        -12    1    1    2    0    0  0.19123675310E+02 -0.48755167765E+01  0.38654077696E+02  0.43400729760E+02  0.00000000000E+00 0.  1.
         11    1    3    3    0    0 -0.12854148901E+01  0.12758421063E+01 -0.59160799828E+01  0.61870887455E+01  0.51100000000E-03 0. -1.
        -11    1    3    3    0    0 -0.14513594969E+02  0.10090346919E+02 -0.18405493302E+02  0.25519046295E+02  0.51100000000E-03 0.  1.
        -12    1    3    3    0    0 -0.33246654509E+01 -0.64906722490E+01 -0.14332504411E+02  0.16081135199E+02  0.00000000000E+00 0.  1.
</event>
<event>
 7    1  0.2834226E-010  0.4778728E+02  0.7816164E-02  0.1312668E+00
        -11   -1    0    0    0    0  0.00000000000E+00  0.00000000000E+00  0.45593999997E+02  0.45594000000E+02  0.51100000000E-03 0.  1.
         11   -1    0    0    0    0 -0.00000000000E+00 -0.00000000000E+00 -0.45593999997E+02  0.45594000000E+02  0.51100000000E-03 0. -1.
    9900012    2    1    2    0    0 -0.22132992219E+02 -0.32480583566E+02 -0.18405576869E+02  0.47787275199E+02  0.20000018941E+02 0.  0.
        -12    1    1    2    0    0  0.22132992219E+02  0.32480583566E+02  0.18405576869E+02  0.43400724801E+02  0.00000000000E+00 0.  1.
         11    1    3    3    0    0 -0.91880250186E+01 -0.25443132044E+02 -0.12171209261E+02  0.29663295621E+02  0.51100000000E-03 0. -1.
        -11    1    3    3    0    0 -0.43374062395E+01  0.11585694614E+00  0.14193973982E+01  0.45652168572E+01  0.51100000000E-03 0.  1.
         12    1    3    3    0    0 -0.86075609611E+01 -0.71533084684E+01 -0.76537650059E+01  0.13558762720E+02  0.00000000000E+00 0. -1.
</event>
<event>
 7    1  0.2834226E-010  0.4778727E+02  0.7816164E-02  0.1312668E+00
        -11   -1    0    0    0    0  0.00000000000E+00  0.00000000000E+00  0.45593999997E+02  0.45594000000E+02  0.51100000000E-03 0.  1.
         11   -1    0    0    0    0 -0.00000000000E+00 -0.00000000000E+00 -0.45593999997E+02  0.45594000000E+02  0.51100000000E-03 0. -1.
    9900012    2    1    2    0    0  0.13872869010E+02  0.28068938330E+02 -0.30054982454E+02  0.47787265400E+02  0.19999974265E+02 0.  0.
        -12    1    1    2    0    0 -0.13872869010E+02 -0.28068938330E+02  0.30054982454E+02  0.43400734600E+02  0.00000000000E+00 0.  1.
         11    1    3    3    0    0  0.55161342438E+01  0.44873894764E+01 -0.61097149869E+01  0.93751276680E+01  0.51100000000E-03 0. -1.
        -11    1    3    3    0    0  0.51288698041E+01  0.19412729143E+02 -0.25915427199E+02  0.32783665527E+02  0.51100000000E-03 0.  1.
        -12    1    3    3    0    0  0.32278649621E+01  0.41688197106E+01  0.19701597320E+01  0.56284722050E+01  0.00000000000E+00 0.  1.
</event>
<event>
 7    1  0.2834226E-010  0.4778727E+02  0.7816164E-02  0.1312668E+00
        -11   -1    0    0    0    0  0.00000000000E+00  0.00000000000E+00  0.45593999997E+02  0.45594000000E+02  0.51100000000E-03 0. -1.
         11   -1    0    0    0    0 -0.00000000000E+00 -0.00000000000E+00 -0.45593999997E+02  0.45594000000E+02  0.51100000000E-03 0.  1.
    9900012    2    1    2    0    0  0.66150040585E+01 -0.24227492011E+02  0.35396237242E+02  0.47787271219E+02  0.20000000794E+02 0.  0.
        -12    1    1    2    0    0 -0.66150040585E+01  0.24227492011E+02 -0.35396237242E+02  0.43400728781E+02  0.00000000000E+00 0.  1.
         11    1    3    3    0    0  0.68215445802E+01 -0.14191143022E+02  0.30186778164E+02  0.34046491551E+02  0.51100000000E-03 0. -1.
        -11    1    3    3    0    0  0.19990976514E+01 -0.85143276442E+01  0.10720535053E+01  0.88113259860E+01  0.51100000000E-03 0.  1.
         12    1    3    3    0    0 -0.22056381731E+01 -0.15220213446E+01  0.41374055728E+01  0.49294536815E+01  0.00000000000E+00 0. -1.
</event>
<event>
 7    1  0.2834226E-010  0.4778727E+02  0.7816164E-02  0.1312668E+00
        -11   -1    0    0    0    0  0.00000000000E+00  0.00000000000E+00  0.45593999997E+02  0.45594000000E+02  0.51100000000E-03 0. -1.
         11   -1    0    0    0    0 -0.00000000000E+00 -0.00000000000E+00 -0.45593999997E+02  0.45594000000E+02  0.51100000000E-03 0.  1.
    9900012    2    1    2    0    0  0.33703308365E+02 -0.11469248177E+02  0.24822698586E+02  0.47787274043E+02  0.20000013673E+02 0.  0.
        -12    1    1    2    0    0 -0.33703308365E+02  0.11469248177E+02 -0.24822698586E+02  0.43400725957E+02  0.00000000000E+00 0.  1.
         11    1    3    3    0    0  0.31317755232E+02 -0.13235016677E+02  0.20966841061E+02  0.39944660263E+02  0.51100000000E-03 0. -1.
        -11    1    3    3    0    0  0.18454684254E+01  0.14863735257E+01 -0.12647620673E+01  0.26860162537E+01  0.51100000000E-03 0.  1.
         12    1    3    3    0    0  0.54008470747E+00  0.27939497420E+00  0.51206195919E+01  0.51565975263E+01  0.00000000000E+00 0. -1.
</event>
<event>
 7    1  0.2834226E-010  0.4778727E+02  0.7816164E-02  0.1312668E+00
        -11   -1    0    0    0    0  0.00000000000E+00  0.00000000000E+00  0.45593999997E+02  0.45594000000E+02  0.51100000000E-03 0.  1.
         11   -1    0    0    0    0 -0.00000000000E+00 -0.00000000000E+00 -0.45593999997E+02  0.45594000000E+02  0.51100000000E-03 0. -1.
    9900012    2    1    2    0    0  0.32206652866E+01  0.43128851205E+02 -0.36266427106E+01  0.47787273871E+02  0.20000012887E+02 0.  0.
        -12    1    1    2    0    0 -0.32206652866E+01 -0.43128851205E+02  0.36266427106E+01  0.43400726129E+02  0.00000000000E+00 0.  1.
         11    1    3    3    0    0 -0.37107771467E+01  0.51254975572E+01  0.14732312738E+01  0.64969995297E+01  0.51100000000E-03 0. -1.
        -11    1    3    3    0    0  0.86373513030E+01  0.31932705101E+02  0.15710560572E+00  0.33080601189E+02  0.51100000000E-03 0.  1.
        -12    1    3    3    0    0 -0.17059088697E+01  0.60706485467E+01 -0.52569795901E+01  0.82096731519E+01  0.00000000000E+00 0.  1.
</event>
<event>
 7    1  0.2834226E-010  0.4778727E+02  0.7816164E-02  0.1312668E+00
        -11   -1    0    0    0    0  0.00000000000E+00  0.00000000000E+00  0.45593999997E+02  0.45594000000E+02  0.51100000000E-03 0. -1.
         11   -1    0    0    0    0 -0.00000000000E+00 -0.00000000000E+00 -0.45593999997E+02  0.45594000000E+02  0.51100000000E-03 0.  1.
    9900012    2    1    2    0    0  0.33844015401E+02  0.14763544564E+02  0.22808853321E+02  0.47787269403E+02  0.19999992516E+02 0.  0.
        -12    1    1    2    0    0 -0.33844015401E+02 -0.14763544564E+02 -0.22808853321E+02  0.43400730597E+02  0.00000000000E+00 0.  1.
         11    1    3    3    0    0  0.69563356186E+01  0.11437143948E+02  0.79085606918E+01  0.15548125270E+02  0.51100000000E-03 0. -1.
        -11    1    3    3    0    0  0.14564770773E+02  0.55569399519E+01  0.53196473500E+01  0.16471514122E+02  0.51100000000E-03 0.  1.
         12    1    3    3    0    0  0.12322909009E+02 -0.22305393363E+01  0.95806452794E+01  0.15767630011E+02  0.00000000000E+00 0. -1.
</event>
<event>
 7    1  0.2834226E-010  0.4778728E+02  0.7816164E-02  0.1312668E+00
        -11   -1    0    0    0    0  0.00000000000E+00  0.00000000000E+00  0.45593999997E+02  0.45594000000E+02  0.51100000000E-03 0.  1.
         11   -1    0    0    0    0 -0.00000000000E+00 -0.00000000000E+00 -0.45593999997E+02  0.45594000000E+02  0.51100000000E-03 0. -1.
    9900012    2    1    2    0    0  0.14455433646E+02  0.12315871885E+02 -0.39025404341E+02  0.47787280580E+02  0.20000043479E+02 0.  0.
        -12    1    1    2    0    0 -0.14455433646E+02 -0.12315871885E+02  0.39025404341E+02  0.43400719420E+02  0.00000000000E+00 0.  1.
         11    1    3    3    0    0 -0.28040752293E+00  0.10032150189E+02 -0.11492212908E+02  0.15257575940E+02  0.51100000000E-03 0. -1.
        -11    1    3    3    0    0  0.79679351409E+01  0.25885092261E+01 -0.22730540367E+02  0.24225313952E+02  0.51100000000E-03 0.  1.
         12    1    3    3    0    0  0.67679060280E+01 -0.30478753028E+00 -0.48026510650E+01  0.83043906878E+01  0.00000000000E+00 0. -1.
</event>
<event>
 7    1  0.2834226E-010  0.4778727E+02  0.7816164E-02  0.1312668E+00
        -11   -1    0    0    0    0  0.00000000000E+00  0.00000000000E+00  0.45593999997E+02  0.45594000000E+02  0.51100000000E-03 0.  1.
         11   -1    0    0    0    0 -0.00000000000E+00 -0.00000000000E+00 -0.45593999997E+02  0.45594000000E+02  0.51100000000E-03 0. -1.
    9900012    2    1    2    0    0  0.42404864237E+02 -0.49575537403E+01 -0.78021328143E+01  0.47787272742E+02  0.20000007740E+02 0.  0.
        -12    1    1    2    0    0 -0.42404864237E+02  0.49575537403E+01  0.78021328143E+01  0.43400727258E+02  0.00000000000E+00 0.  1.
         11    1    3    3    0    0  0.23705105879E+02 -0.93420749512E+01  0.35751315697E+00  0.25482037302E+02  0.51100000000E-03 0. -1.
        -11    1    3    3    0    0  0.38366913677E+01  0.42034633178E+01 -0.36933861652E+01  0.67845711833E+01  0.51100000000E-03 0.  1.
         12    1    3    3    0    0  0.14863066990E+02  0.18105789306E+00 -0.44662598061E+01  0.15520664257E+02  0.00000000000E+00 0. -1.
</event>
<event>
 7    1  0.2834226E-010  0.4778727E+02  0.7816164E-02  0.1312668E+00
        -11   -1    0    0    0    0  0.00000000000E+00  0.00000000000E+00  0.45593999997E+02  0.45594000000E+02  0.51100000000E-03 0.  1.
         11   -1    0    0    0    0 -0.00000000000E+00 -0.00000000000E+00 -0.45593999997E+02  0.45594000000E+02  0.51100000000E-03 0. -1.
    9900012    2    1    2    0    0 -0.44810346319E+00  0.39532720280E+02 -0.17904933140E+02  0.47787269589E+02  0.19999993365E+02 0.  0.
        -12    1    1    2    0    0  0.44810346319E+00 -0.39532720280E+02  0.17904933140E+02  0.43400730411E+02  0.00000000000E+00 0.  1.
         11    1    3    3    0    0  0.50358075496E+01  0.14994214237E+02 -0.65698812008E+01  0.17127438732E+02  0.51100000000E-03 0. -1.
        -11    1    3    3    0    0 -0.84455261993E+01  0.78424946581E+01 -0.42871350899E+01  0.12296794818E+02  0.51100000000E-03 0.  1.
        -12    1    3    3    0    0  0.29616151865E+01  0.16696011385E+02 -0.70479168493E+01  0.18363036040E+02  0.00000000000E+00 0.  1.
</event>
<event>
 7    1  0.2834226E-010  0.4778727E+02  0.7816164E-02  0.1312668E+00
        -11   -1    0    0    0    0  0.00000000000E+00  0.00000000000E+00  0.45593999997E+02  0.45594000000E+02  0.51100000000E-03 0. -1.
         11   -1    0    0    0    0 -0.00000000000E+00 -0.00000000000E+00 -0.45593999997E+02  0.45594000000E+02  0.51100000000E-03 0.  1.
    9900012    2    1    2    0    0 -0.17925723452E+02  0.39045403717E+02  0.61439740046E+01  0.47787268102E+02  0.19999986585E+02 0.  0.
        -12    1    1    2    0    0  0.17925723452E+02 -0.39045403717E+02 -0.61439740046E+01  0.43400731898E+02  0.00000000000E+00 0.  1.
         11    1    3    3    0    0 -0.30787426497E+00  0.36421179543E+00  0.22532105005E+01  0.23031271384E+01  0.51100000000E-03 0. -1.
        -11    1    3    3    0    0 -0.14427742403E+02  0.19997443788E+02  0.83104300088E+01  0.26021544076E+02  0.51100000000E-03 0.  1.
        -12    1    3    3    0    0 -0.31901067843E+01  0.18683748133E+02 -0.44196665046E+01  0.19462596888E+02  0.00000000000E+00 0.  1.
</event>
<event>
 7    1  0.2834226E-010  0.4778729E+02  0.7816164E-02  0.1312668E+00
        -11   -1    0    0    0    0  0.00000000000E+00  0.00000000000E+00  0.45593999997E+02  0.45594000000E+02  0.51100000000E-03 0.  1.
         11   -1    0    0    0    0 -0.00000000000E+00 -0.00000000000E+00 -0.45593999997E+02  0.45594000000E+02  0.51100000000E-03 0. -1.
    9900012    2    1    2    0    0 -0.18686296910E+02 -0.34550809639E+02  0.18457661172E+02  0.47787292692E+02  0.20000098698E+02 0.  0.
        -12    1    1    2    0    0  0.18686296910E+02  0.34550809639E+02 -0.18457661172E+02  0.43400707308E+02  0.00000000000E+00 0.  1.
         11    1    3    3    0    0 -0.48977222413E+01 -0.14687798693E+02  0.54098685114E+01  0.16400786298E+02  0.51100000000E-03 0. -1.
        -11    1    3    3    0    0 -0.16627820303E+02 -0.13999023112E+02  0.80640592760E+01  0.23183746643E+02  0.51100000000E-03 0.  1.
        -12    1    3    3    0    0  0.28392456347E+01 -0.58639878336E+01  0.49837333846E+01  0.82027597512E+01  0.00000000000E+00 0.  1.
</event>
<event>
 7    1  0.2834226E-010  0.4778731E+02  0.7816164E-02  0.1312668E+00
        -11   -1    0    0    0    0  0.00000000000E+00  0.00000000000E+00  0.45593999997E+02  0.45594000000E+02  0.51100000000E-03 0.  1.
         11   -1    0    0    0    0 -0.00000000000E+00 -0.00000000000E+00 -0.45593999997E+02  0.45594000000E+02  0.51100000000E-03 0. -1.
    9900012    2    1    2    0    0 -0.37778222774E+02  0.11446609779E+02 -0.18038868928E+02  0.47787311254E+02  0.20000183330E+02 0.  0.
        -12    1    1    2    0    0  0.37778222774E+02 -0.11446609779E+02  0.18038868928E+02  0.43400688746E+02  0.00000000000E+00 0.  1.
         11    1    3    3    0    0 -0.16039845934E+02 -0.41421965240E+01 -0.56727674727E+01  0.17510418061E+02  0.51100000000E-03 0. -1.
        -11    1    3    3    0    0 -0.17681802240E+02  0.15057371486E+02 -0.12073571098E+02  0.26175211286E+02  0.51100000000E-03 0.  1.
         12    1    3    3    0    0 -0.40565746007E+01  0.53143481641E+00 -0.29253035762E+00  0.41016819068E+01  0.00000000000E+00 0. -1.
</event>
<event>
 7    1  0.2834226E-010  0.4778728E+02  0.7816164E-02  0.1312668E+00
        -11   -1    0    0    0    0  0.00000000000E+00  0.00000000000E+00  0.45593999997E+02  0.45594000000E+02  0.51100000000E-03 0.  1.
         11   -1    0    0    0    0 -0.00000000000E+00 -0.00000000000E+00 -0.45593999997E+02  0.45594000000E+02  0.51100000000E-03 0. -1.
    9900012    2    1    2    0    0 -0.32274915451E+02 -0.25861650163E+02 -0.13157795444E+02  0.47787277685E+02  0.20000030278E+02 0.  0.
        -12    1    1    2    0    0  0.32274915451E+02  0.25861650163E+02  0.13157795444E+02  0.43400722315E+02  0.00000000000E+00 0.  1.
         11    1    3    3    0    0 -0.19166204260E+02 -0.14051317719E+02 -0.10648427144E+02  0.26041734126E+02  0.51100000000E-03 0. -1.
        -11    1    3    3    0    0 -0.11368476996E+01  0.23650484996E+01  0.10965043755E+01  0.28439759499E+01  0.51100000000E-03 0.  1.
        -12    1    3    3    0    0 -0.11971863491E+02 -0.14175380944E+02 -0.36058726753E+01  0.18901567610E+02  0.00000000000E+00 0.  1.
</event>
<event>
 7    1  0.2834226E-010  0.4778728E+02  0.7816164E-02  0.1312668E+00
        -11   -1    0    0    0    0  0.00000000000E+00  0.00000000000E+00  0.45593999997E+02  0.45594000000E+02  0.51100000000E-03 0.  1.
         11   -1    0    0    0    0 -0.00000000000E+00 -0.00000000000E+00 -0.45593999997E+02  0.45594000000E+02  0.51100000000E-03 0. -1.
    9900012    2    1    2    0    0  0.21516463347E+02  0.27384921904E+02 -0.25898468385E+02  0.47787276419E+02  0.20000024507E+02 0.  0.
        -12    1    1    2    0    0 -0.21516463347E+02 -0.27384921904E+02  0.25898468385E+02  0.43400723581E+02  0.00000000000E+00 0.  1.
         11    1    3    3    0    0  0.20787455969E+02  0.21673864001E+02 -0.13947959728E+02  0.33112237726E+02  0.51100000000E-03 0. -1.
        -11    1    3    3    0    0 -0.18141910006E+01  0.33862792720E+01 -0.10007027396E+02  0.10719084562E+02  0.51100000000E-03 0.  1.
        -12    1    3    3    0    0  0.25431983782E+01  0.23247786301E+01 -0.19434812617E+01  0.39559541307E+01  0.00000000000E+00 0.  1.
</event>
<event>
 7    1  0.2834226E-010  0.4778727E+02  0.7816164E-02  0.1312668E+00
        -11   -1    0    0    0    0  0.00000000000E+00  0.00000000000E+00  0.45593999997E+02  0.45594000000E+02  0.51100000000E-03 0. -1.
         11   -1    0    0    0    0 -0.00000000000E+00 -0.00000000000E+00 -0.45593999997E+02  0.45594000000E+02  0.51100000000E-03 0.  1.
    9900012    2    1    2    0    0  0.30716126785E+02 -0.22910787403E+02  0.20377409103E+02  0.47787269294E+02  0.19999992019E+02 0.  0.
        -12    1    1    2    0    0 -0.30716126785E+02  0.22910787403E+02 -0.20377409103E+02  0.43400730706E+02  0.00000000000E+00 0.  1.
         11    1    3    3    0    0  0.10219855783E+02 -0.10762931741E+02  0.60535337944E+01  0.16029080558E+02  0.51100000000E-03 0. -1.
        -11    1    3    3    0    0  0.11540974958E+02  0.18886527807E+01  0.58869086176E+01  0.13092624093E+02  0.51100000000E-03 0.  1.
        -12    1    3    3    0    0  0.89552960441E+01 -0.14036508443E+02  0.84369666905E+01  0.18665564643E+02  0.00000000000E+00 0.  1.
</event>
<event>
 7    1  0.2834226E-010  0.4778727E+02  0.7816164E-02  0.1312668E+00
        -11   -1    0    0    0    0  0.00000000000E+00  0.00000000000E+00  0.45593999997E+02  0.45594000000E+02  0.51100000000E-03 0. -1.
         11   -1    0    0    0    0 -0.00000000000E+00 -0.00000000000E+00 -0.45593999997E+02  0.45594000000E+02  0.51100000000E-03 0.  1.
    9900012    2    1    2    0    0 -0.74842754161E+01  0.42730388604E+02  0.13125479291E+01  0.47787271080E+02  0.20000000160E+02 0.  0.
        -12    1    1    2    0    0  0.74842754161E+01 -0.42730388604E+02 -0.13125479291E+01  0.43400728920E+02  0.00000000000E+00 0.  1.
         11    1    3    3    0    0  0.12990108779E+01  0.16642770626E+02 -0.52274636464E+01  0.17492730484E+02  0.51100000000E-03 0. -1.
        -11    1    3    3    0    0 -0.26506136502E+01  0.34141121794E+01  0.52088514094E+01  0.67686075350E+01  0.51100000000E-03 0.  1.
         12    1    3    3    0    0 -0.61326726438E+01  0.22673505799E+02  0.13311601660E+01  0.23525933060E+02  0.00000000000E+00 0. -1.
</event>
<event>
 7    1  0.2834226E-010  0.4778728E+02  0.7816164E-02  0.1312668E+00
        -11   -1    0    0    0    0  0.00000000000E+00  0.00000000000E+00  0.45593999997E+02  0.45594000000E+02  0.51100000000E-03 0.  1.
         11   -1    0    0    0    0 -0.00000000000E+00 -0.00000000000E+00 -0.45593999997E+02  0.45594000000E+02  0.51100000000E-03 0. -1.
    9900012    2    1    2    0    0  0.22319101636E+02  0.36535066666E+02  0.71182484765E+01  0.47787275864E+02  0.20000021975E+02 0.  0.
        -12    1    1    2    0    0 -0.22319101636E+02 -0.36535066666E+02 -0.71182484765E+01  0.43400724136E+02  0.00000000000E+00 0.  1.
         11    1    3    3    0    0  0.50991899357E+00 -0.86572879983E+00  0.32832890967E+01  0.34335828647E+01  0.51100000000E-03 0. -1.
        -11    1    3    3    0    0  0.16802738419E+01  0.67925781195E+01  0.32499352142E+01  0.77152133380E+01  0.51100000000E-03 0.  1.
         12    1    3    3    0    0  0.20128908801E+02  0.30608217346E+02  0.58502416558E+00  0.36638479661E+02  0.00000000000E+00 0. -1.
</event>
<event>
 7    1  0.2834226E-010  0.4778726E+02  0.7816164E-02  0.1312668E+00
        -11   -1    0    0    0    0  0.00000000000E+00  0.00000000000E+00  0.45593999997E+02  0.45594000000E+02  0.51100000000E-03 0.  1.
         11   -1    0    0    0    0 -0.00000000000E+00 -0.00000000000E+00 -0.45593999997E+02  0.45594000000E+02  0.51100000000E-03 0. -1.
    9900012    2    1    2    0    0  0.12403551615E+02 -0.17280169133E+02 -0.37830827124E+02  0.47787264767E+02  0.19999971378E+02 0.  0.
        -12    1    1    2    0    0 -0.12403551615E+02  0.17280169133E+02  0.37830827124E+02  0.43400735233E+02  0.00000000000E+00 0.  1.
         11    1    3    3    0    0  0.34633020749E+01 -0.34019206391E+01 -0.58452969438E+01  0.75983565275E+01  0.51100000000E-03 0. -1.
        -11    1    3    3    0    0  0.36485233190E+00 -0.14195236996E+02 -0.26319722072E+02  0.29905946580E+02  0.51100000000E-03 0.  1.
        -12    1    3    3    0    0  0.85753972079E+01  0.31698850293E+00 -0.56658081079E+01  0.10282961660E+02  0.00000000000E+00 0.  1.
</event>
<event>
 7    1  0.2834226E-010  0.4778727E+02  0.7816164E-02  0.1312668E+00
        -11   -1    0    0    0    0  0.00000000000E+00  0.00000000000E+00  0.45593999997E+02  0.45594000000E+02  0.51100000000E-03 0.  1.
         11   -1    0    0    0    0 -0.00000000000E+00 -0.00000000000E+00 -0.45593999997E+02  0.45594000000E+02  0.51100000000E-03 0. -1.
    9900012    2    1    2    0    0 -0.42917800226E+02 -0.50428256111E+01 -0.40318202402E+01  0.47787271425E+02  0.20000001733E+02 0.  0.
        -12    1    1    2    0    0  0.42917800226E+02  0.50428256111E+01  0.40318202402E+01  0.43400728575E+02  0.00000000000E+00 0.  1.
         11    1    3    3    0    0 -0.20908337863E+02  0.28391458299E+01 -0.20278578033E+01  0.21197442034E+02  0.51100000000E-03 0. -1.
        -11    1    3    3    0    0 -0.20465067689E+02 -0.10159532724E+02  0.52259805591E+00  0.22854063307E+02  0.51100000000E-03 0.  1.
        -12    1    3    3    0    0 -0.15443946746E+01  0.22775612826E+01 -0.25265604928E+01  0.37357660835E+01  0.00000000000E+00 0.  1.
</event>
<event>
 7    1  0.2834226E-010  0.4778727E+02  0.7816164E-02  0.1312668E+00
        -11   -1    0    0    0    0  0.00000000000E+00  0.00000000000E+00  0.45593999997E+02  0.45594000000E+02  0.51100000000E-03 0.  1.
         11   -1    0    0    0    0 -0.00000000000E+00 -0.00000000000E+00 -0.45593999997E+02  0.45594000000E+02  0.51100000000E-03 0. -1.
    9900012    2    1    2    0    0  0.33288209355E+02  0.23272944812E+02 -0.15293412640E+02  0.47787270601E+02  0.19999997976E+02 0.  0.
        -12    1    1    2    0    0 -0.33288209355E+02 -0.23272944812E+02  0.15293412640E+02  0.43400729399E+02  0.00000000000E+00 0.  1.
         11    1    3    3    0    0  0.10612718425E+02  0.11172806430E+02 -0.77583797460E+01  0.17252647694E+02  0.51100000000E-03 0. -1.
        -11    1    3    3    0    0  0.18345431056E+02  0.56490925801E+01  0.70609158123E+00  0.19208478680E+02  0.51100000000E-03 0.  1.
        -12    1    3    3    0    0  0.43300598730E+01  0.64510458017E+01 -0.82411244751E+01  0.11326144227E+02  0.00000000000E+00 0.  1.
</event>
<event>
 7    1  0.2834226E-010  0.4778727E+02  0.7816164E-02  0.1312668E+00
        -11   -1    0    0    0    0  0.00000000000E+00  0.00000000000E+00  0.45593999997E+02  0.45594000000E+02  0.51100000000E-03 0.  1.
         11   -1    0    0    0    0 -0.00000000000E+00 -0.00000000000E+00 -0.45593999997E+02  0.45594000000E+02  0.51100000000E-03 0. -1.
    9900012    2    1    2    0    0  0.59036470403E+01  0.35945678181E+02 -0.23594034398E+02  0.47787270889E+02  0.19999999290E+02 0.  0.
        -12    1    1    2    0    0 -0.59036470403E+01 -0.35945678181E+02  0.23594034398E+02  0.43400729111E+02  0.00000000000E+00 0.  1.
         11    1    3    3    0    0  0.10482915021E+02  0.20794235520E+02 -0.99204093158E+01  0.25312176110E+02  0.51100000000E-03 0. -1.
        -11    1    3    3    0    0  0.76425241301E+00 -0.35060201852E+00  0.33853962780E+00  0.90642863309E+00  0.51100000000E-03 0.  1.
         12    1    3    3    0    0 -0.53435203933E+01  0.15502044679E+02 -0.14012164710E+02  0.21568666145E+02  0.00000000000E+00 0. -1.
</event>
<event>
 7    1  0.2834226E-010  0.4778727E+02  0.7816164E-02  0.1312668E+00
        -11   -1    0    0    0    0  0.00000000000E+00  0.00000000000E+00  0.45593999997E+02  0.45594000000E+02  0.51100000000E-03 0. -1.
         11   -1    0    0    0    0 -0.00000000000E+00 -0.00000000000E+00 -0.45593999997E+02  0.45594000000E+02  0.51100000000E-03 0.  1.
    9900012    2    1    2    0    0  0.34880354169E+02  0.24002931606E+02  0.95311914811E+01  0.47787269088E+02  0.19999991079E+02 0.  0.
        -12    1    1    2    0    0 -0.34880354169E+02 -0.24002931606E+02 -0.95311914811E+01  0.43400730912E+02  0.00000000000E+00 0.  1.
         11    1    3    3    0    0  0.19747022458E+02  0.21243718376E+02  0.10055756518E+02  0.30697861584E+02  0.51100000000E-03 0. -1.
        -11    1    3    3    0    0  0.15225903635E+02  0.37856636224E+01  0.41476701042E+00  0.15694948949E+02  0.51100000000E-03 0.  1.
        -12    1    3    3    0    0 -0.92571924173E-01 -0.10264503917E+01 -0.93933204753E+00  0.13944585556E+01  0.00000000000E+00 0.  1.
</event>
<event>
 7    1  0.2834226E-010  0.4778727E+02  0.7816164E-02  0.1312668E+00
        -11   -1    0    0    0    0  0.00000000000E+00  0.00000000000E+00  0.45593999997E+02  0.45594000000E+02  0.51100000000E-03 0. -1.
         11   -1    0    0    0    0 -0.00000000000E+00 -0.00000000000E+00 -0.45593999997E+02  0.45594000000E+02  0.51100000000E-03 0.  1.
    9900012    2    1    2    0    0  0.21894493401E+02 -0.33792074998E+02  0.16197224028E+02  0.47787271433E+02  0.20000001770E+02 0.  0.
        -12    1    1    2    0    0 -0.21894493401E+02  0.33792074998E+02 -0.16197224028E+02  0.43400728567E+02  0.00000000000E+00 0.  1.
         11    1    3    3    0    0  0.52737663712E+01 -0.20002546871E+02  0.80251454108E+01  0.22188227784E+02  0.51100000000E-03 0. -1.
        -11    1    3    3    0    0 -0.54420446824E+00 -0.13878678423E+01  0.36536138759E+01  0.39460398207E+01  0.51100000000E-03 0.  1.
         12    1    3    3    0    0  0.17164931498E+02 -0.12401660284E+02  0.45184647412E+01  0.21653003828E+02  0.00000000000E+00 0. -1.
</event>
<event>
 7    1  0.2834226E-010  0.4778726E+02  0.7816164E-02  0.1312668E+00
        -11   -1    0    0    0    0  0.00000000000E+00  0.00000000000E+00  0.45593999997E+02  0.45594000000E+02  0.51100000000E-03 0. -1.
         11   -1    0    0    0    0 -0.00000000000E+00 -0.00000000000E+00 -0.45593999997E+02  0.45594000000E+02  0.51100000000E-03 0.  1.
    9900012    2    1    2    0    0 -0.32578269401E+02 -0.27623645063E+02  0.76951390031E+01  0.47787256135E+02  0.19999932023E+02 0.  0.
        -12    1    1    2    0    0  0.32578269401E+02  0.27623645063E+02 -0.76951390031E+01  0.43400743865E+02  0.00000000000E+00 0.  1.
         11    1    3    3    0    0  0.15296193979E+01 -0.15788139398E+01  0.19923634317E+01  0.29667998355E+01  0.51100000000E-03 0. -1.
        -11    1    3    3    0    0 -0.22294494751E+02 -0.98319344797E+01  0.23119856382E+01  0.24475635020E+02  0.51100000000E-03 0.  1.
         12    1    3    3    0    0 -0.11813394048E+02 -0.16212896644E+02  0.33907899332E+01  0.20344821279E+02  0.00000000000E+00 0. -1.
</event>
<event>
 7    1  0.2834226E-010  0.4778727E+02  0.7816164E-02  0.1312668E+00
        -11   -1    0    0    0    0  0.00000000000E+00  0.00000000000E+00  0.45593999997E+02  0.45594000000E+02  0.51100000000E-03 0. -1.
         11   -1    0    0    0    0 -0.00000000000E+00 -0.00000000000E+00 -0.45593999997E+02  0.45594000000E+02  0.51100000000E-03 0.  1.
    9900012    2    1    2    0    0 -0.73771409927E+01  0.21550057847E+02  0.36943147331E+02  0.47787270315E+02  0.19999996676E+02 0.  0.
        -12    1    1    2    0    0  0.73771409927E+01 -0.21550057847E+02 -0.36943147331E+02  0.43400729685E+02  0.00000000000E+00 0.  1.
         11    1    3    3    0    0  0.61808760813E+00  0.42911809313E+01  0.21694317429E+02  0.22123283550E+02  0.51100000000E-03 0.  1.
        -11    1    3    3    0    0 -0.77922745630E+01  0.14791355366E+02  0.15933691444E+02  0.23095156629E+02  0.51100000000E-03 0. -1.
         12    1    3    3    0    0 -0.20295403776E+00  0.24675215493E+01 -0.68486154163E+00  0.25688301363E+01  0.00000000000E+00 0. -1.
</event>
<event>
 7    1  0.2834226E-010  0.4778727E+02  0.7816164E-02  0.1312668E+00
        -11   -1    0    0    0    0  0.00000000000E+00  0.00000000000E+00  0.45593999997E+02  0.45594000000E+02  0.51100000000E-03 0. -1.
         11   -1    0    0    0    0 -0.00000000000E+00 -0.00000000000E+00 -0.45593999997E+02  0.45594000000E+02  0.51100000000E-03 0.  1.
    9900012    2    1    2    0    0  0.28997701730E+02 -0.25671505473E+02  0.19589040750E+02  0.47787269402E+02  0.19999992512E+02 0.  0.
        -12    1    1    2    0    0 -0.28997701730E+02  0.25671505473E+02 -0.19589040750E+02  0.43400730598E+02  0.00000000000E+00 0.  1.
         11    1    3    3    0    0  0.80314664753E+01 -0.40176146944E+01  0.75838836902E+01  0.11754189622E+02  0.51100000000E-03 0. -1.
        -11    1    3    3    0    0  0.11298686327E+02 -0.64929547539E+01 -0.20745258193E+01  0.13195545907E+02  0.51100000000E-03 0.  1.
        -12    1    3    3    0    0  0.96675489280E+01 -0.15160936025E+02  0.14079682879E+02  0.22837533873E+02  0.00000000000E+00 0.  1.
</event>
<event>
 7    1  0.2834226E-010  0.4778727E+02  0.7816164E-02  0.1312668E+00
        -11   -1    0    0    0    0  0.00000000000E+00  0.00000000000E+00  0.45593999997E+02  0.45594000000E+02  0.51100000000E-03 0. -1.
         11   -1    0    0    0    0 -0.00000000000E+00 -0.00000000000E+00 -0.45593999997E+02  0.45594000000E+02  0.51100000000E-03 0.  1.
    9900012    2    1    2    0    0  0.43276914833E+02  0.32728453516E+01  0.14182275700E+00  0.47787274339E+02  0.20000015023E+02 0.  0.
        -12    1    1    2    0    0 -0.43276914833E+02 -0.32728453516E+01 -0.14182275700E+00  0.43400725661E+02  0.00000000000E+00 0.  1.
         11    1    3    3    0    0  0.22904205488E+02 -0.42943167856E+01  0.21653419005E+01  0.23403685426E+02  0.51100000000E-03 0. -1.
        -11    1    3    3    0    0  0.74531304246E+01  0.67389624514E+01  0.30164739263E+01  0.10491038235E+02  0.51100000000E-03 0.  1.
        -12    1    3    3    0    0  0.12919578921E+02  0.82819968584E+00 -0.50399930698E+01  0.13892550678E+02  0.00000000000E+00 0.  1.
</event>
<event>
 7    1  0.2834226E-010  0.4778727E+02  0.7816164E-02  0.1312668E+00
        -11   -1    0    0    0    0  0.00000000000E+00  0.00000000000E+00  0.45593999997E+02  0.45594000000E+02  0.51100000000E-03 0. -1.
         11   -1    0    0    0    0 -0.00000000000E+00 -0.00000000000E+00 -0.45593999997E+02  0.45594000000E+02  0.51100000000E-03 0.  1.
    9900012    2    1    2    0    0 -0.31139275945E+02  0.30139917127E+02 -0.23567472054E+01  0.47787269957E+02  0.19999995044E+02 0.  0.
        -12    1    1    2    0    0  0.31139275945E+02 -0.30139917127E+02  0.23567472054E+01  0.43400730043E+02  0.00000000000E+00 0.  1.
         11    1    3    3    0    0 -0.11186048600E+01  0.10764059298E+02 -0.10831180658E+01  0.10876092792E+02  0.51100000000E-03 0. -1.
        -11    1    3    3    0    0 -0.27290855255E+02  0.15789138804E+02 -0.37781501033E+01  0.31754717810E+02  0.51100000000E-03 0.  1.
         12    1    3    3    0    0 -0.27298158308E+01  0.35867190248E+01  0.25045209637E+01  0.51564593560E+01  0.00000000000E+00 0. -1.
</event>
<event>
 7    1  0.2834226E-010  0.4778726E+02  0.7816164E-02  0.1312668E+00
        -11   -1    0    0    0    0  0.00000000000E+00  0.00000000000E+00  0.45593999997E+02  0.45594000000E+02  0.51100000000E-03 0. -1.
         11   -1    0    0    0    0 -0.00000000000E+00 -0.00000000000E+00 -0.45593999997E+02  0.45594000000E+02  0.51100000000E-03 0.  1.
    9900012    2    1    2    0    0 -0.27182787667E+02 -0.33610652969E+02  0.38786805951E+01  0.47787261510E+02  0.19999956529E+02 0.  0.
        -12    1    1    2    0    0  0.27182787667E+02  0.33610652969E+02 -0.38786805951E+01  0.43400738490E+02  0.00000000000E+00 0.  1.
         11    1    3    3    0    0 -0.13132787547E+01 -0.17706185346E+01  0.19759634316E+01  0.29604430119E+01  0.51100000000E-03 0. -1.
        -11    1    3    3    0    0 -0.17825834466E+02 -0.22675916485E+02  0.96091077351E+01  0.30402179438E+02  0.51100000000E-03 0.  1.
        -12    1    3    3    0    0 -0.80436744465E+01 -0.91641179491E+01 -0.77063905716E+01  0.14424639061E+02  0.00000000000E+00 0.  1.
</event>
<event>
 7    1  0.2834226E-010  0.4778727E+02  0.7816164E-02  0.1312668E+00
        -11   -1    0    0    0    0  0.00000000000E+00  0.00000000000E+00  0.45593999997E+02  0.45594000000E+02  0.51100000000E-03 0.  1.
         11   -1    0    0    0    0 -0.00000000000E+00 -0.00000000000E+00 -0.45593999997E+02  0.45594000000E+02  0.51100000000E-03 0. -1.
    9900012    2    1    2    0    0 -0.38843703136E+02  0.50860569092E+01 -0.18679453014E+02  0.47787271745E+02  0.20000003194E+02 0.  0.
        -12    1    1    2    0    0  0.38843703136E+02 -0.50860569092E+01  0.18679453014E+02  0.43400728255E+02  0.00000000000E+00 0.  1.
         11    1    3    3    0    0 -0.18071439407E+02  0.12236969170E+01 -0.14512618481E+02  0.23209705983E+02  0.51100000000E-03 0. -1.
        -11    1    3    3    0    0 -0.27059188622E+00  0.10893114742E+01  0.25826782836E+01  0.28160338838E+01  0.51100000000E-03 0.  1.
         12    1    3    3    0    0 -0.20501671842E+02  0.27730485180E+01 -0.67495128164E+01  0.21761531878E+02  0.00000000000E+00 0. -1.
</event>
<event>
 7    1  0.2834226E-010  0.4778727E+02  0.7816164E-02  0.1312668E+00
        -11   -1    0    0    0    0  0.00000000000E+00  0.00000000000E+00  0.45593999997E+02  0.45594000000E+02  0.51100000000E-03 0. -1.
         11   -1    0    0    0    0 -0.00000000000E+00 -0.00000000000E+00 -0.45593999997E+02  0.45594000000E+02  0.51100000000E-03 0.  1.
    9900012    2    1    2    0    0  0.21522484056E+02  0.13830653438E+02 -0.35058792172E+02  0.47787271860E+02  0.20000003720E+02 0.  0.
        -12    1    1    2    0    0 -0.21522484056E+02 -0.13830653438E+02  0.35058792172E+02  0.43400728140E+02  0.00000000000E+00 0.  1.
         11    1    3    3    0    0  0.56177887247E+01  0.44488031808E+01 -0.15578199697E+02  0.17147352739E+02  0.51100000000E-03 0. -1.
        -11    1    3    3    0    0  0.26304394744E+01 -0.27393797792E+01 -0.91504781191E+01  0.99073035419E+01  0.51100000000E-03 0.  1.
        -12    1    3    3    0    0  0.13274255857E+02  0.12121230037E+02 -0.10330114356E+02  0.20732615580E+02  0.00000000000E+00 0.  1.
</event>
<event>
 7    1  0.2834226E-010  0.4778725E+02  0.7816164E-02  0.1312668E+00
        -11   -1    0    0    0    0  0.00000000000E+00  0.00000000000E+00  0.45593999997E+02  0.45594000000E+02  0.51100000000E-03 0.  1.
         11   -1    0    0    0    0 -0.00000000000E+00 -0.00000000000E+00 -0.45593999997E+02  0.45594000000E+02  0.51100000000E-03 0. -1.
    9900012    2    1    2    0    0 -0.10603835498E+02 -0.28141670329E+02 -0.31292648378E+02  0.47787253709E+02  0.19999920959E+02 0.  0.
        -12    1    1    2    0    0  0.10603835498E+02  0.28141670329E+02  0.31292648378E+02  0.43400746291E+02  0.00000000000E+00 0.  1.
         11    1    3    3    0    0 -0.11157741992E+02 -0.13848009778E+02 -0.25506243874E+02  0.31093907088E+02  0.51100000000E-03 0. -1.
        -11    1    3    3    0    0  0.28779724658E+01 -0.73550383391E+01 -0.49670809711E+01  0.93301236925E+01  0.51100000000E-03 0.  1.
         12    1    3    3    0    0 -0.23240659720E+01 -0.69386222117E+01 -0.81932353250E+00  0.73632229282E+01  0.00000000000E+00 0. -1.
</event>
<event>
 7    1  0.2834226E-010  0.4778727E+02  0.7816164E-02  0.1312668E+00
        -11   -1    0    0    0    0  0.00000000000E+00  0.00000000000E+00  0.45593999997E+02  0.45594000000E+02  0.51100000000E-03 0.  1.
         11   -1    0    0    0    0 -0.00000000000E+00 -0.00000000000E+00 -0.45593999997E+02  0.45594000000E+02  0.51100000000E-03 0. -1.
    9900012    2    1    2    0    0 -0.11415360116E+02  0.36883117035E+02 -0.19822925874E+02  0.47787272368E+02  0.20000006036E+02 0.  0.
        -12    1    1    2    0    0  0.11415360116E+02 -0.36883117035E+02  0.19822925874E+02  0.43400727632E+02  0.00000000000E+00 0.  1.
         11    1    3    3    0    0 -0.14871484187E+01  0.27243308490E+02 -0.15606108537E+02  0.31431832460E+02  0.51100000000E-03 0. -1.
        -11    1    3    3    0    0 -0.10874688788E+02  0.98744271196E+01 -0.33853212586E+01  0.15073936694E+02  0.51100000000E-03 0.  1.
         12    1    3    3    0    0  0.94647709070E+00 -0.23461857483E+00 -0.83149607820E+00  0.12815032138E+01  0.00000000000E+00 0. -1.
</event>
<event>
 7    1  0.2834226E-010  0.4778727E+02  0.7816164E-02  0.1312668E+00
        -11   -1    0    0    0    0  0.00000000000E+00  0.00000000000E+00  0.45593999997E+02  0.45594000000E+02  0.51100000000E-03 0.  1.
         11   -1    0    0    0    0 -0.00000000000E+00 -0.00000000000E+00 -0.45593999997E+02  0.45594000000E+02  0.51100000000E-03 0. -1.
    9900012    2    1    2    0    0  0.42987245127E+02  0.59618337393E+01  0.41998353511E+00  0.47787273147E+02  0.20000009589E+02 0.  0.
        -12    1    1    2    0    0 -0.42987245127E+02 -0.59618337393E+01 -0.41998353511E+00  0.43400726853E+02  0.00000000000E+00 0.  1.
         11    1    3    3    0    0  0.43674396719E+02  0.58379660051E+01 -0.18751898735E+01  0.44102733625E+02  0.51100000000E-03 0. -1.
        -11    1    3    3    0    0  0.69609661315E+00  0.67385311050E-01 -0.28597758394E+00  0.75556251536E+00  0.51100000000E-03 0.  1.
         12    1    3    3    0    0 -0.13832482053E+01  0.56482423181E-01  0.25811509926E+01  0.29289770071E+01  0.00000000000E+00 0. -1.
</event>
<event>
 7    1  0.2834226E-010  0.4778727E+02  0.7816164E-02  0.1312668E+00
        -11   -1    0    0    0    0  0.00000000000E+00  0.00000000000E+00  0.45593999997E+02  0.45594000000E+02  0.51100000000E-03 0.  1.
         11   -1    0    0    0    0 -0.00000000000E+00 -0.00000000000E+00 -0.45593999997E+02  0.45594000000E+02  0.51100000000E-03 0. -1.
    9900012    2    1    2    0    0 -0.18565196586E+02  0.35456716843E+02 -0.16786254210E+02  0.47787267012E+02  0.19999981613E+02 0.  0.
        -12    1    1    2    0    0  0.18565196586E+02 -0.35456716843E+02  0.16786254210E+02  0.43400732988E+02  0.00000000000E+00 0.  1.
         11    1    3    3    0    0 -0.60683343770E+01  0.22142236664E+02 -0.14531992836E+02  0.27171347825E+02  0.51100000000E-03 0. -1.
        -11    1    3    3    0    0 -0.10507218749E+01  0.23764592124E+01  0.29680943772E+01  0.39447635340E+01  0.51100000000E-03 0.  1.
        -12    1    3    3    0    0 -0.11446140334E+02  0.10938020967E+02 -0.52223557507E+01  0.16671155653E+02  0.00000000000E+00 0.  1.
</event>
<event>
 7    1  0.2834226E-010  0.4778727E+02  0.7816164E-02  0.1312668E+00
        -11   -1    0    0    0    0  0.00000000000E+00  0.00000000000E+00  0.45593999997E+02  0.45594000000E+02  0.51100000000E-03 0. -1.
         11   -1    0    0    0    0 -0.00000000000E+00 -0.00000000000E+00 -0.45593999997E+02  0.45594000000E+02  0.51100000000E-03 0.  1.
    9900012    2    1    2    0    0 -0.16534574149E+02  0.16326893519E+02  0.36656019513E+02  0.47787270044E+02  0.19999995437E+02 0.  0.
        -12    1    1    2    0    0  0.16534574149E+02 -0.16326893519E+02 -0.36656019513E+02  0.43400729956E+02  0.00000000000E+00 0.  1.
         11    1    3    3    0    0 -0.77724091591E+01  0.87827806361E+01  0.10730227441E+02  0.15896080053E+02  0.51100000000E-03 0. -1.
        -11    1    3    3    0    0 -0.11077872349E+02  0.79519489446E+00  0.18608907945E+02  0.21671249292E+02  0.51100000000E-03 0.  1.
        -12    1    3    3    0    0  0.23157073590E+01  0.67489179880E+01  0.73168841260E+01  0.10219940699E+02  0.00000000000E+00 0.  1.
</event>
<event>
 7    1  0.2834226E-010  0.4778728E+02  0.7816164E-02  0.1312668E+00
        -11   -1    0    0    0    0  0.00000000000E+00  0.00000000000E+00  0.45593999997E+02  0.45594000000E+02  0.51100000000E-03 0.  1.
         11   -1    0    0    0    0 -0.00000000000E+00 -0.00000000000E+00 -0.45593999997E+02  0.45594000000E+02  0.51100000000E-03 0. -1.
    9900012    2    1    2    0    0  0.10839791888E+01  0.24761743271E+02 -0.35627287663E+02  0.47787279189E+02  0.20000037136E+02 0.  0.
        -12    1    1    2    0    0 -0.10839791888E+01 -0.24761743271E+02  0.35627287663E+02  0.43400720811E+02  0.00000000000E+00 0.  1.
         11    1    3    3    0    0 -0.60596872878E+01  0.11227121171E+02 -0.26118504382E+02  0.29067926160E+02  0.51100000000E-03 0. -1.
        -11    1    3    3    0    0  0.22852268773E+01  0.46844720098E+01 -0.58513973471E+00  0.52448954863E+01  0.51100000000E-03 0.  1.
         12    1    3    3    0    0  0.48584395992E+01  0.88501500898E+01 -0.89236435462E+01  0.13474457543E+02  0.00000000000E+00 0. -1.
</event>
<event>
 7    1  0.2834226E-010  0.4778728E+02  0.7816164E-02  0.1312668E+00
        -11   -1    0    0    0    0  0.00000000000E+00  0.00000000000E+00  0.45593999997E+02  0.45594000000E+02  0.51100000000E-03 0. -1.
         11   -1    0    0    0    0 -0.00000000000E+00 -0.00000000000E+00 -0.45593999997E+02  0.45594000000E+02  0.51100000000E-03 0.  1.
    9900012    2    1    2    0    0  0.30136918190E+02 -0.31222679576E+02  0.73020932731E+00  0.47787276923E+02  0.20000026804E+02 0.  0.
        -12    1    1    2    0    0 -0.30136918190E+02  0.31222679576E+02 -0.73020932731E+00  0.43400723077E+02  0.00000000000E+00 0.  1.
         11    1    3    3    0    0  0.10942128116E+01 -0.92083917104E+00  0.52043121164E+01  0.53972318203E+01  0.51100000000E-03 0. -1.
        -11    1    3    3    0    0  0.15002001405E+02 -0.18382657664E+02 -0.20985632211E+01  0.23819868110E+02  0.51100000000E-03 0.  1.
         12    1    3    3    0    0  0.14040703974E+02 -0.11919182741E+02 -0.23755395680E+01  0.18570176993E+02  0.00000000000E+00 0. -1.
</event>
<event>
 7    1  0.2834226E-010  0.4778728E+02  0.7816164E-02  0.1312668E+00
        -11   -1    0    0    0    0  0.00000000000E+00  0.00000000000E+00  0.45593999997E+02  0.45594000000E+02  0.51100000000E-03 0.  1.
         11   -1    0    0    0    0 -0.00000000000E+00 -0.00000000000E+00 -0.45593999997E+02  0.45594000000E+02  0.51100000000E-03 0. -1.
    9900012    2    1    2    0    0 -0.36709122608E+02  0.84424926772E+01  0.21558922101E+02  0.47787280104E+02  0.20000041308E+02 0.  0.
        -12    1    1    2    0    0  0.36709122608E+02 -0.84424926772E+01 -0.21558922101E+02  0.43400719896E+02  0.00000000000E+00 0.  1.
         11    1    3    3    0    0 -0.24974884382E+02  0.13851514836E+02  0.18635459881E+02  0.34101168285E+02  0.51100000000E-03 0. -1.
        -11    1    3    3    0    0 -0.25654197460E+01 -0.16086367714E+01 -0.72138288566E+00  0.31127936431E+01  0.51100000000E-03 0.  1.
         12    1    3    3    0    0 -0.91688184800E+01 -0.38003853872E+01  0.36448451058E+01  0.10573318176E+02  0.00000000000E+00 0. -1.
</event>
<event>
 7    1  0.2834226E-010  0.4778727E+02  0.7816164E-02  0.1312668E+00
        -11   -1    0    0    0    0  0.00000000000E+00  0.00000000000E+00  0.45593999997E+02  0.45594000000E+02  0.51100000000E-03 0.  1.
         11   -1    0    0    0    0 -0.00000000000E+00 -0.00000000000E+00 -0.45593999997E+02  0.45594000000E+02  0.51100000000E-03 0. -1.
    9900012    2    1    2    0    0  0.46415993374E+01 -0.29302696023E+01 -0.43052205950E+02  0.47787270035E+02  0.19999995396E+02 0.  0.
        -12    1    1    2    0    0 -0.46415993374E+01  0.29302696023E+01  0.43052205950E+02  0.43400729965E+02  0.00000000000E+00 0.  1.
         11    1    3    3    0    0  0.69272983293E+01 -0.45493306693E+01 -0.38893709424E+02  0.39766876979E+02  0.51100000000E-03 0. -1.
        -11    1    3    3    0    0 -0.58118242169E-02 -0.15312155604E+01  0.79301716719E+00  0.17243930406E+01  0.51100000000E-03 0.  1.
         12    1    3    3    0    0 -0.22798871677E+01  0.31502766275E+01 -0.49515136935E+01  0.62960000146E+01  0.00000000000E+00 0. -1.
</event>
<event>
 7    1  0.2834226E-010  0.4778727E+02  0.7816164E-02  0.1312668E+00
        -11   -1    0    0    0    0  0.00000000000E+00  0.00000000000E+00  0.45593999997E+02  0.45594000000E+02  0.51100000000E-03 0. -1.
         11   -1    0    0    0    0 -0.00000000000E+00 -0.00000000000E+00 -0.45593999997E+02  0.45594000000E+02  0.51100000000E-03 0.  1.
    9900012    2    1    2    0    0  0.13428979869E+02  0.41023620985E+02  0.45108747604E+01  0.47787274544E+02  0.20000015956E+02 0.  0.
        -12    1    1    2    0    0 -0.13428979869E+02 -0.41023620985E+02 -0.45108747604E+01  0.43400725456E+02  0.00000000000E+00 0.  1.
         11    1    3    3    0    0  0.11888641582E+02  0.29840229659E+02  0.36479676174E+01  0.32327801855E+02  0.51100000000E-03 0. -1.
        -11    1    3    3    0    0  0.45666346837E+00 -0.12540636814E+01 -0.22287409801E+01  0.25977882627E+01  0.51100000000E-03 0.  1.
        -12    1    3    3    0    0  0.10836748180E+01  0.12437455007E+02  0.30916481230E+01  0.12861684426E+02  0.00000000000E+00 0.  1.
</event>
<event>
 7    1  0.2834226E-010  0.4778727E+02  0.7816164E-02  0.1312668E+00
        -11   -1    0    0    0    0  0.00000000000E+00  0.00000000000E+00  0.45593999997E+02  0.45594000000E+02  0.51100000000E-03 0.  1.
         11   -1    0    0    0    0 -0.00000000000E+00 -0.00000000000E+00 -0.45593999997E+02  0.45594000000E+02  0.51100000000E-03 0. -1.
    9900012    2    1    2    0    0  0.38538322369E+02 -0.27962763104E+01 -0.19763649952E+02  0.47787270610E+02  0.19999998018E+02 0.  0.
        -12    1    1    2    0    0 -0.38538322369E+02  0.27962763104E+01  0.19763649952E+02  0.43400729390E+02  0.00000000000E+00 0.  1.
         11    1    3    3    0    0  0.38814541700E+01 -0.22477279150E+01 -0.30683733901E+01  0.54344165074E+01  0.51100000000E-03 0. -1.
        -11    1    3    3    0    0  0.16424338015E+02 -0.82292184191E+01 -0.38658645764E+01  0.18772954594E+02  0.51100000000E-03 0.  1.
        -12    1    3    3    0    0  0.18232530184E+02  0.76806700237E+01 -0.12829411985E+02  0.23579899508E+02  0.00000000000E+00 0.  1.
</event>
<event>
 7    1  0.2834226E-010  0.4778727E+02  0.7816164E-02  0.1312668E+00
        -11   -1    0    0    0    0  0.00000000000E+00  0.00000000000E+00  0.45593999997E+02  0.45594000000E+02  0.51100000000E-03 0.  1.
         11   -1    0    0    0    0 -0.00000000000E+00 -0.00000000000E+00 -0.45593999997E+02  0.45594000000E+02  0.51100000000E-03 0. -1.
    9900012    2    1    2    0    0 -0.27310242899E+02  0.25892482253E+02 -0.21618352412E+02  0.47787272294E+02  0.20000005696E+02 0.  0.
        -12    1    1    2    0    0  0.27310242899E+02 -0.25892482253E+02  0.21618352412E+02  0.43400727706E+02  0.00000000000E+00 0.  1.
         11    1    3    3    0    0 -0.31396038076E+01  0.67092140546E+01 -0.55481018751E+01  0.92548419747E+01  0.51100000000E-03 0. -1.
        -11    1    3    3    0    0 -0.14050371188E+02  0.15506185735E+02 -0.22983247120E+01  0.21050820015E+02  0.51100000000E-03 0.  1.
        -12    1    3    3    0    0 -0.10120267903E+02  0.36770824633E+01 -0.13771925825E+02  0.17481610303E+02  0.00000000000E+00 0.  1.
</event>
<event>
 7    1  0.2834226E-010  0.4778727E+02  0.7816164E-02  0.1312668E+00
        -11   -1    0    0    0    0  0.00000000000E+00  0.00000000000E+00  0.45593999997E+02  0.45594000000E+02  0.51100000000E-03 0. -1.
         11   -1    0    0    0    0 -0.00000000000E+00 -0.00000000000E+00 -0.45593999997E+02  0.45594000000E+02  0.51100000000E-03 0.  1.
    9900012    2    1    2    0    0  0.36499854900E+02 -0.22737730531E+02  0.58633742975E+01  0.47787274711E+02  0.20000016719E+02 0.  0.
        -12    1    1    2    0    0 -0.36499854900E+02  0.22737730531E+02 -0.58633742975E+01  0.43400725289E+02  0.00000000000E+00 0.  1.
         11    1    3    3    0    0  0.13443465736E+02 -0.83948986657E+01  0.61052296962E+01  0.16984549582E+02  0.51100000000E-03 0. -1.
        -11    1    3    3    0    0  0.34032552350E+01  0.30051938265E+01  0.56891509687E+00  0.45756967532E+01  0.51100000000E-03 0.  1.
        -12    1    3    3    0    0  0.19653133929E+02 -0.17348025692E+02 -0.81077049556E+00  0.26227028376E+02  0.00000000000E+00 0.  1.
</event>
<event>
 7    1  0.2834226E-010  0.4778727E+02  0.7816164E-02  0.1312668E+00
        -11   -1    0    0    0    0  0.00000000000E+00  0.00000000000E+00  0.45593999997E+02  0.45594000000E+02  0.51100000000E-03 0.  1.
         11   -1    0    0    0    0 -0.00000000000E+00 -0.00000000000E+00 -0.45593999997E+02  0.45594000000E+02  0.51100000000E-03 0. -1.
    9900012    2    1    2    0    0 -0.21183879531E+01 -0.36709706707E+02 -0.23055004837E+02  0.47787269798E+02  0.19999994317E+02 0.  0.
        -12    1    1    2    0    0  0.21183879531E+01  0.36709706707E+02  0.23055004837E+02  0.43400730202E+02  0.00000000000E+00 0.  1.
         11    1    3    3    0    0 -0.53354933682E+01 -0.24609609530E+01 -0.48886893045E+01  0.76435006163E+01  0.51100000000E-03 0. -1.
        -11    1    3    3    0    0  0.67123148923E+01 -0.19506780308E+02 -0.11104315963E+02  0.23428091737E+02  0.51100000000E-03 0.  1.
         12    1    3    3    0    0 -0.34952094772E+01 -0.14741965446E+02 -0.70619995693E+01  0.16715677445E+02  0.00000000000E+00 0. -1.
</event>
<event>
 7    1  0.2834226E-010  0.4778727E+02  0.7816164E-02  0.1312668E+00
        -11   -1    0    0    0    0  0.00000000000E+00  0.00000000000E+00  0.45593999997E+02  0.45594000000E+02  0.51100000000E-03 0. -1.
         11   -1    0    0    0    0 -0.00000000000E+00 -0.00000000000E+00 -0.45593999997E+02  0.45594000000E+02  0.51100000000E-03 0.  1.
    9900012    2    1    2    0    0 -0.98190770397E+01  0.41162517574E+02  0.96361765927E+01  0.47787273897E+02  0.20000013006E+02 0.  0.
        -12    1    1    2    0    0  0.98190770397E+01 -0.41162517574E+02 -0.96361765927E+01  0.43400726103E+02  0.00000000000E+00 0.  1.
         11    1    3    3    0    0  0.23454051107E+01  0.16292244199E+02  0.75998357816E+01  0.18129965536E+02  0.51100000000E-03 0. -1.
        -11    1    3    3    0    0 -0.11651413192E+02  0.16908921454E+02  0.50208895126E+01  0.21139450935E+02  0.51100000000E-03 0.  1.
        -12    1    3    3    0    0 -0.51306895890E+00  0.79613519214E+01 -0.29845487014E+01  0.85178574257E+01  0.00000000000E+00 0.  1.
</event>
<event>
 7    1  0.2834226E-010  0.4778727E+02  0.7816164E-02  0.1312668E+00
        -11   -1    0    0    0    0  0.00000000000E+00  0.00000000000E+00  0.45593999997E+02  0.45594000000E+02  0.51100000000E-03 0.  1.
         11   -1    0    0    0    0 -0.00000000000E+00 -0.00000000000E+00 -0.45593999997E+02  0.45594000000E+02  0.51100000000E-03 0. -1.
    9900012    2    1    2    0    0 -0.20862120801E+02  0.11816338553E+02 -0.36176913845E+02  0.47787273780E+02  0.20000012471E+02 0.  0.
        -12    1    1    2    0    0  0.20862120801E+02 -0.11816338553E+02  0.36176913845E+02  0.43400726220E+02  0.00000000000E+00 0.  1.
         11    1    3    3    0    0 -0.58588074091E+01  0.28064065741E+01 -0.32857573386E+01  0.72799549219E+01  0.51100000000E-03 0. -1.
        -11    1    3    3    0    0 -0.82286408165E+01  0.13202521374E+02 -0.19771710576E+02  0.25158251920E+02  0.51100000000E-03 0.  1.
        -12    1    3    3    0    0 -0.67746725752E+01 -0.41925893945E+01 -0.13119445930E+02  0.15349066937E+02  0.00000000000E+00 0.  1.
</event>
<event>
 7    1  0.2834226E-010  0.4778727E+02  0.7816164E-02  0.1312668E+00
        -11   -1    0    0    0    0  0.00000000000E+00  0.00000000000E+00  0.45593999997E+02  0.45594000000E+02  0.51100000000E-03 0.  1.
         11   -1    0    0    0    0 -0.00000000000E+00 -0.00000000000E+00 -0.45593999997E+02  0.45594000000E+02  0.51100000000E-03 0. -1.
    9900012    2    1    2    0    0  0.17576000502E+02 -0.13415008824E+02 -0.37346283733E+02  0.47787272310E+02  0.20000005770E+02 0.  0.
        -12    1    1    2    0    0 -0.17576000502E+02  0.13415008824E+02  0.37346283733E+02  0.43400727690E+02  0.00000000000E+00 0.  1.
         11    1    3    3    0    0 -0.39136236513E+01 -0.29013220778E+01 -0.83597900114E+01  0.96757536749E+01  0.51100000000E-03 0. -1.
        -11    1    3    3    0    0  0.16380290944E+02 -0.81149872927E+01 -0.17467678994E+02  0.25284120706E+02  0.51100000000E-03 0.  1.
         12    1    3    3    0    0  0.51093332095E+01 -0.23986994530E+01 -0.11518814728E+02  0.12827397929E+02  0.00000000000E+00 0. -1.
</event>
<event>
 7    1  0.2834226E-010  0.4778727E+02  0.7816164E-02  0.1312668E+00
        -11   -1    0    0    0    0  0.00000000000E+00  0.00000000000E+00  0.45593999997E+02  0.45594000000E+02  0.51100000000E-03 0.  1.
         11   -1    0    0    0    0 -0.00000000000E+00 -0.00000000000E+00 -0.45593999997E+02  0.45594000000E+02  0.51100000000E-03 0. -1.
    9900012    2    1    2    0    0  0.12333296966E+02 -0.33536575707E+02  0.24633533216E+02  0.47787273244E+02  0.20000010031E+02 0.  0.
        -12    1    1    2    0    0 -0.12333296966E+02  0.33536575707E+02 -0.24633533216E+02  0.43400726756E+02  0.00000000000E+00 0.  1.
         11    1    3    3    0    0  0.99386846083E+01 -0.17396423152E+02  0.75237013391E+01  0.21401380150E+02  0.51100000000E-03 0. -1.
        -11    1    3    3    0    0 -0.18977499219E+01 -0.41822395743E+01  0.11714831344E+02  0.12582919228E+02  0.51100000000E-03 0.  1.
        -12    1    3    3    0    0  0.42923622798E+01 -0.11957912981E+02  0.53950005323E+01  0.13802973866E+02  0.00000000000E+00 0.  1.
</event>
<event>
 7    1  0.2834226E-010  0.4778727E+02  0.7816164E-02  0.1312668E+00
        -11   -1    0    0    0    0  0.00000000000E+00  0.00000000000E+00  0.45593999997E+02  0.45594000000E+02  0.51100000000E-03 0.  1.
         11   -1    0    0    0    0 -0.00000000000E+00 -0.00000000000E+00 -0.45593999997E+02  0.45594000000E+02  0.51100000000E-03 0. -1.
    9900012    2    1    2    0    0  0.24503578871E+02  0.13563205516E+01 -0.35796067076E+02  0.47787269580E+02  0.19999993322E+02 0.  0.
        -12    1    1    2    0    0 -0.24503578871E+02 -0.13563205516E+01  0.35796067076E+02  0.43400730420E+02  0.00000000000E+00 0.  1.
         11    1    3    3    0    0  0.85934509251E+01 -0.59902310810E+00 -0.23503976934E+02  0.25032841618E+02  0.51100000000E-03 0. -1.
        -11    1    3    3    0    0  0.55661209584E+01  0.42981790291E+01 -0.94401337293E+01  0.11771668131E+02  0.51100000000E-03 0.  1.
         12    1    3    3    0    0  0.10344006988E+02 -0.23428353694E+01 -0.28519564121E+01  0.10982759831E+02  0.00000000000E+00 0. -1.
</event>
<event>
 7    1  0.2834226E-010  0.4778726E+02  0.7816164E-02  0.1312668E+00
        -11   -1    0    0    0    0  0.00000000000E+00  0.00000000000E+00  0.45593999997E+02  0.45594000000E+02  0.51100000000E-03 0.  1.
         11   -1    0    0    0    0 -0.00000000000E+00 -0.00000000000E+00 -0.45593999997E+02  0.45594000000E+02  0.51100000000E-03 0. -1.
    9900012    2    1    2    0    0 -0.23174452155E+02  0.25794684179E+02 -0.26099865289E+02  0.47787263455E+02  0.19999965397E+02 0.  0.
        -12    1    1    2    0    0  0.23174452155E+02 -0.25794684179E+02  0.26099865289E+02  0.43400736545E+02  0.00000000000E+00 0.  1.
         11    1    3    3    0    0  0.59209075996E+00  0.88291912289E+01 -0.10461107007E+02  0.13701822846E+02  0.51100000000E-03 0. -1.
        -11    1    3    3    0    0 -0.41201833704E+01  0.18047568215E+01  0.43434733008E+00  0.45190392845E+01  0.51100000000E-03 0.  1.
         12    1    3    3    0    0 -0.19646359544E+02  0.15160736128E+02 -0.16073105612E+02  0.29566401325E+02  0.00000000000E+00 0. -1.
</event>
<event>
 7    1  0.2834226E-010  0.4778727E+02  0.7816164E-02  0.1312668E+00
        -11   -1    0    0    0    0  0.00000000000E+00  0.00000000000E+00  0.45593999997E+02  0.45594000000E+02  0.51100000000E-03 0.  1.
         11   -1    0    0    0    0 -0.00000000000E+00 -0.00000000000E+00 -0.45593999997E+02  0.45594000000E+02  0.51100000000E-03 0. -1.
    9900012    2    1    2    0    0 -0.31677915102E+02  0.73886711853E+01 -0.28732217275E+02  0.47787273317E+02  0.20000010361E+02 0.  0.
        -12    1    1    2    0    0  0.31677915102E+02 -0.73886711853E+01  0.28732217275E+02  0.43400726683E+02  0.00000000000E+00 0.  1.
         11    1    3    3    0    0 -0.28247191939E+02  0.14543439749E+01 -0.27079754950E+02  0.39157784632E+02  0.51100000000E-03 0. -1.
        -11    1    3    3    0    0 -0.13681239935E+01  0.74986270124E+00  0.15473897177E+01  0.21973785590E+01  0.51100000000E-03 0.  1.
         12    1    3    3    0    0 -0.20625991693E+01  0.51844645091E+01 -0.31998520427E+01  0.64321101261E+01  0.00000000000E+00 0. -1.
</event>
<event>
 7    1  0.2834226E-010  0.4778727E+02  0.7816164E-02  0.1312668E+00
        -11   -1    0    0    0    0  0.00000000000E+00  0.00000000000E+00  0.45593999997E+02  0.45594000000E+02  0.51100000000E-03 0.  1.
         11   -1    0    0    0    0 -0.00000000000E+00 -0.00000000000E+00 -0.45593999997E+02  0.45594000000E+02  0.51100000000E-03 0. -1.
    9900012    2    1    2    0    0 -0.17415558237E+02 -0.59001828863E+01 -0.39312963631E+02  0.47787274934E+02  0.20000017732E+02 0.  0.
        -12    1    1    2    0    0  0.17415558237E+02  0.59001828863E+01  0.39312963631E+02  0.43400725066E+02  0.00000000000E+00 0.  1.
         11    1    3    3    0    0 -0.68236061907E+00 -0.46880863381E+00 -0.17591180451E+02  0.17610650967E+02  0.51100000000E-03 0. -1.
        -11    1    3    3    0    0 -0.12587848052E+02 -0.90006050127E+01 -0.16252545848E+02  0.22441257897E+02  0.51100000000E-03 0.  1.
        -12    1    3    3    0    0 -0.41453495663E+01  0.35692307603E+01 -0.54692373323E+01  0.77353660704E+01  0.00000000000E+00 0.  1.
</event>
<event>
 7    1  0.2834226E-010  0.4778727E+02  0.7816164E-02  0.1312668E+00
        -11   -1    0    0    0    0  0.00000000000E+00  0.00000000000E+00  0.45593999997E+02  0.45594000000E+02  0.51100000000E-03 0.  1.
         11   -1    0    0    0    0 -0.00000000000E+00 -0.00000000000E+00 -0.45593999997E+02  0.45594000000E+02  0.51100000000E-03 0. -1.
    9900012    2    1    2    0    0 -0.27298726266E+02  0.24396777021E+02 -0.23306651490E+02  0.47787272029E+02  0.20000004489E+02 0.  0.
        -12    1    1    2    0    0  0.27298726266E+02 -0.24396777021E+02  0.23306651490E+02  0.43400727971E+02  0.00000000000E+00 0.  1.
         11    1    3    3    0    0 -0.20879037751E+01 -0.41494392336E+00 -0.86643234911E+00  0.22983093591E+01  0.51100000000E-03 0. -1.
        -11    1    3    3    0    0 -0.16420396227E+02  0.15323599236E+02 -0.37667656484E+01  0.22773463274E+02  0.51100000000E-03 0.  1.
        -12    1    3    3    0    0 -0.87904262633E+01  0.94881217085E+01 -0.18673453493E+02  0.22715499395E+02  0.00000000000E+00 0.  1.
</event>
<event>
 7    1  0.2834226E-010  0.4778727E+02  0.7816164E-02  0.1312668E+00
        -11   -1    0    0    0    0  0.00000000000E+00  0.00000000000E+00  0.45593999997E+02  0.45594000000E+02  0.51100000000E-03 0. -1.
         11   -1    0    0    0    0 -0.00000000000E+00 -0.00000000000E+00 -0.45593999997E+02  0.45594000000E+02  0.51100000000E-03 0.  1.
    9900012    2    1    2    0    0  0.36265728825E+02 -0.21098810004E+02 -0.11102273209E+02  0.47787270269E+02  0.19999996465E+02 0.  0.
        -12    1    1    2    0    0 -0.36265728825E+02  0.21098810004E+02  0.11102273209E+02  0.43400729731E+02  0.00000000000E+00 0.  1.
         11    1    3    3    0    0  0.23454830429E+02 -0.80854223574E+01  0.24327771234E+01  0.24928327861E+02  0.51100000000E-03 0. -1.
        -11    1    3    3    0    0  0.64029786004E+01 -0.82077200949E+01 -0.75078486001E+01  0.12834819632E+02  0.51100000000E-03 0.  1.
        -12    1    3    3    0    0  0.64079197959E+01 -0.48056675514E+01 -0.60272017323E+01  0.10024122777E+02  0.00000000000E+00 0.  1.
</event>
<event>
 7    1  0.2834226E-010  0.4778728E+02  0.7816164E-02  0.1312668E+00
        -11   -1    0    0    0    0  0.00000000000E+00  0.00000000000E+00  0.45593999997E+02  0.45594000000E+02  0.51100000000E-03 0.  1.
         11   -1    0    0    0    0 -0.00000000000E+00 -0.00000000000E+00 -0.45593999997E+02  0.45594000000E+02  0.51100000000E-03 0. -1.
    9900012    2    1    2    0    0 -0.61967499137E+01  0.23073047532E+02 -0.36233374208E+02  0.47787278365E+02  0.20000033379E+02 0.  0.
        -12    1    1    2    0    0  0.61967499137E+01 -0.23073047532E+02  0.36233374208E+02  0.43400721635E+02  0.00000000000E+00 0.  1.
         11    1    3    3    0    0 -0.33336500649E+01  0.86930224350E+01 -0.20735323714E+02  0.22729617498E+02  0.51100000000E-03 0. -1.
        -11    1    3    3    0    0 -0.30156042916E+01  0.10468443245E+02 -0.20938192049E+01  0.11093522991E+02  0.51100000000E-03 0.  1.
        -12    1    3    3    0    0  0.15250444284E+00  0.39115818518E+01 -0.13404231289E+02  0.13964137877E+02  0.00000000000E+00 0.  1.
</event>
<event>
 7    1  0.2834226E-010  0.4778727E+02  0.7816164E-02  0.1312668E+00
        -11   -1    0    0    0    0  0.00000000000E+00  0.00000000000E+00  0.45593999997E+02  0.45594000000E+02  0.51100000000E-03 0.  1.
         11   -1    0    0    0    0 -0.00000000000E+00 -0.00000000000E+00 -0.45593999997E+02  0.45594000000E+02  0.51100000000E-03 0. -1.
    9900012    2    1    2    0    0  0.24271021787E+02 -0.98005100495E+01 -0.34619222526E+02  0.47787273461E+02  0.20000011020E+02 0.  0.
        -12    1    1    2    0    0 -0.24271021787E+02  0.98005100495E+01  0.34619222526E+02  0.43400726539E+02  0.00000000000E+00 0.  1.
         11    1    3    3    0    0  0.55271811207E+01 -0.92994945094E+00 -0.19135263419E+02  0.19939228759E+02  0.51100000000E-03 0. -1.
        -11    1    3    3    0    0  0.15167209463E+02 -0.10792495307E+02 -0.14684341263E+02  0.23709746444E+02  0.51100000000E-03 0.  1.
         12    1    3    3    0    0  0.35766312026E+01  0.19219347082E+01 -0.79961784427E+00  0.41382982588E+01  0.00000000000E+00 0. -1.
</event>
<event>
 7    1  0.2834226E-010  0.4778727E+02  0.7816164E-02  0.1312668E+00
        -11   -1    0    0    0    0  0.00000000000E+00  0.00000000000E+00  0.45593999997E+02  0.45594000000E+02  0.51100000000E-03 0. -1.
         11   -1    0    0    0    0 -0.00000000000E+00 -0.00000000000E+00 -0.45593999997E+02  0.45594000000E+02  0.51100000000E-03 0.  1.
    9900012    2    1    2    0    0  0.27379591229E+02 -0.31648523015E+02  0.11504448008E+02  0.47787270180E+02  0.19999996059E+02 0.  0.
        -12    1    1    2    0    0 -0.27379591229E+02  0.31648523015E+02 -0.11504448008E+02  0.43400729820E+02  0.00000000000E+00 0.  1.
         11    1    3    3    0    0  0.22391347606E+02 -0.19892215070E+02  0.32071266096E+01  0.30122389171E+02  0.51100000000E-03 0. -1.
        -11    1    3    3    0    0 -0.10220123064E-01 -0.98472190289E+01  0.72107691145E+01  0.12205040702E+02  0.51100000000E-03 0.  1.
         12    1    3    3    0    0  0.49984637467E+01 -0.19090889161E+01  0.10865522838E+01  0.54598403074E+01  0.00000000000E+00 0. -1.
</event>
<event>
 7    1  0.2834226E-010  0.4778726E+02  0.7816164E-02  0.1312668E+00
        -11   -1    0    0    0    0  0.00000000000E+00  0.00000000000E+00  0.45593999997E+02  0.45594000000E+02  0.51100000000E-03 0.  1.
         11   -1    0    0    0    0 -0.00000000000E+00 -0.00000000000E+00 -0.45593999997E+02  0.45594000000E+02  0.51100000000E-03 0. -1.
    9900012    2    1    2    0    0 -0.26880743978E+02 -0.28805419119E+02 -0.18201588640E+02  0.47787258112E+02  0.19999941037E+02 0.  0.
        -12    1    1    2    0    0  0.26880743978E+02  0.28805419119E+02  0.18201588640E+02  0.43400741888E+02  0.00000000000E+00 0.  1.
         11    1    3    3    0    0 -0.16008345145E+02 -0.13179012895E+02 -0.18397179433E+02  0.27720203941E+02  0.51100000000E-03 0. -1.
        -11    1    3    3    0    0 -0.64827162909E+01 -0.13244098686E+02 -0.14298844661E+01  0.14814733557E+02  0.51100000000E-03 0.  1.
         12    1    3    3    0    0 -0.43896825420E+01 -0.23823075375E+01  0.16254752591E+01  0.52523206148E+01  0.00000000000E+00 0. -1.
</event>
<event>
 7    1  0.2834226E-010  0.4778727E+02  0.7816164E-02  0.1312668E+00
        -11   -1    0    0    0    0  0.00000000000E+00  0.00000000000E+00  0.45593999997E+02  0.45594000000E+02  0.51100000000E-03 0.  1.
         11   -1    0    0    0    0 -0.00000000000E+00 -0.00000000000E+00 -0.45593999997E+02  0.45594000000E+02  0.51100000000E-03 0. -1.
    9900012    2    1    2    0    0  0.27102149771E+02  0.21050576139E+02 -0.26570092432E+02  0.47787273165E+02  0.20000009666E+02 0.  0.
        -12    1    1    2    0    0 -0.27102149771E+02 -0.21050576139E+02  0.26570092432E+02  0.43400726835E+02  0.00000000000E+00 0.  1.
         11    1    3    3    0    0 -0.29846459734E+00 -0.86044179292E+00 -0.75074607815E+01  0.75625001713E+01  0.51100000000E-03 0. -1.
        -11    1    3    3    0    0  0.24233648755E+02  0.19414724652E+02 -0.14943122293E+02  0.34460095319E+02  0.51100000000E-03 0.  1.
        -12    1    3    3    0    0  0.31669656136E+01  0.24962932800E+01 -0.41195093578E+01  0.57646776741E+01  0.00000000000E+00 0.  1.
</event>
<event>
 7    1  0.2834226E-010  0.4778727E+02  0.7816164E-02  0.1312668E+00
        -11   -1    0    0    0    0  0.00000000000E+00  0.00000000000E+00  0.45593999997E+02  0.45594000000E+02  0.51100000000E-03 0.  1.
         11   -1    0    0    0    0 -0.00000000000E+00 -0.00000000000E+00 -0.45593999997E+02  0.45594000000E+02  0.51100000000E-03 0. -1.
    9900012    2    1    2    0    0 -0.18762698179E+02 -0.22729645730E+02 -0.31858240757E+02  0.47787272562E+02  0.20000006921E+02 0.  0.
        -12    1    1    2    0    0  0.18762698179E+02  0.22729645730E+02  0.31858240757E+02  0.43400727438E+02  0.00000000000E+00 0.  1.
         11    1    3    3    0    0 -0.72699701345E+01 -0.47620825505E+01 -0.99700321867E+01  0.13226164903E+02  0.51100000000E-03 0. -1.
        -11    1    3    3    0    0  0.62167208679E+00  0.15011671427E+01 -0.70823872438E+01  0.72663738072E+01  0.51100000000E-03 0.  1.
        -12    1    3    3    0    0 -0.12114400131E+02 -0.19468730323E+02 -0.14805821326E+02  0.27294733852E+02  0.00000000000E+00 0.  1.
</event>
<event>
 7    1  0.2834226E-010  0.4778727E+02  0.7816164E-02  0.1312668E+00
        -11   -1    0    0    0    0  0.00000000000E+00  0.00000000000E+00  0.45593999997E+02  0.45594000000E+02  0.51100000000E-03 0.  1.
         11   -1    0    0    0    0 -0.00000000000E+00 -0.00000000000E+00 -0.45593999997E+02  0.45594000000E+02  0.51100000000E-03 0. -1.
    9900012    2    1    2    0    0  0.32351498194E+02 -0.17701768575E+02 -0.22883426376E+02  0.47787271334E+02  0.20000001319E+02 0.  0.
        -12    1    1    2    0    0 -0.32351498194E+02  0.17701768575E+02  0.22883426376E+02  0.43400728666E+02  0.00000000000E+00 0.  1.
         11    1    3    3    0    0  0.16745346776E+02 -0.16186142745E+02 -0.80305038487E+01  0.24635073532E+02  0.51100000000E-03 0. -1.
        -11    1    3    3    0    0  0.80648447351E+00  0.19319741048E+01 -0.38795104960E+01  0.44083492486E+01  0.51100000000E-03 0.  1.
        -12    1    3    3    0    0  0.14799666945E+02 -0.34475999346E+01 -0.10973412031E+02  0.18743848553E+02  0.00000000000E+00 0.  1.
</event>
<event>
 7    1  0.2834226E-010  0.4778727E+02  0.7816164E-02  0.1312668E+00
        -11   -1    0    0    0    0  0.00000000000E+00  0.00000000000E+00  0.45593999997E+02  0.45594000000E+02  0.51100000000E-03 0.  1.
         11   -1    0    0    0    0 -0.00000000000E+00 -0.00000000000E+00 -0.45593999997E+02  0.45594000000E+02  0.51100000000E-03 0. -1.
    9900012    2    1    2    0    0  0.21378415132E+02  0.21803285269E+02 -0.30841583798E+02  0.47787272203E+02  0.20000005284E+02 0.  0.
        -12    1    1    2    0    0 -0.21378415132E+02 -0.21803285269E+02  0.30841583798E+02  0.43400727797E+02  0.00000000000E+00 0.  1.
         11    1    3    3    0    0  0.12210266953E+02  0.21067209712E+02 -0.22415725011E+02  0.33096565867E+02  0.51100000000E-03 0. -1.
        -11    1    3    3    0    0  0.10263054029E+01  0.20308571883E+01 -0.54840897897E+01  0.59374173495E+01  0.51100000000E-03 0.  1.
         12    1    3    3    0    0  0.81418427762E+01 -0.12947816311E+01 -0.29417689969E+01  0.87532889874E+01  0.00000000000E+00 0. -1.
</event>
<event>
 7    1  0.2834226E-010  0.4778727E+02  0.7816164E-02  0.1312668E+00
        -11   -1    0    0    0    0  0.00000000000E+00  0.00000000000E+00  0.45593999997E+02  0.45594000000E+02  0.51100000000E-03 0.  1.
         11   -1    0    0    0    0 -0.00000000000E+00 -0.00000000000E+00 -0.45593999997E+02  0.45594000000E+02  0.51100000000E-03 0. -1.
    9900012    2    1    2    0    0  0.24045813029E+02  0.36068084935E+02 -0.21249636524E+01  0.47787270218E+02  0.19999996234E+02 0.  0.
        -12    1    1    2    0    0 -0.24045813029E+02 -0.36068084935E+02  0.21249636524E+01  0.43400729782E+02  0.00000000000E+00 0.  1.
         11    1    3    3    0    0  0.79777889799E+01  0.10203056788E+02 -0.23730324898E+01  0.13167337175E+02  0.51100000000E-03 0. -1.
        -11    1    3    3    0    0 -0.52322093557E-01  0.12007005295E+02 -0.45267947093E+01  0.12832099765E+02  0.51100000000E-03 0.  1.
        -12    1    3    3    0    0  0.16120346142E+02  0.13858022851E+02  0.47748635467E+01  0.21787833279E+02  0.00000000000E+00 0.  1.
</event>
<event>
 7    1  0.2834226E-010  0.4778727E+02  0.7816164E-02  0.1312668E+00
        -11   -1    0    0    0    0  0.00000000000E+00  0.00000000000E+00  0.45593999997E+02  0.45594000000E+02  0.51100000000E-03 0. -1.
         11   -1    0    0    0    0 -0.00000000000E+00 -0.00000000000E+00 -0.45593999997E+02  0.45594000000E+02  0.51100000000E-03 0.  1.
    9900012    2    1    2    0    0  0.15222179255E+02  0.20151325191E+02  0.35296354384E+02  0.47787270962E+02  0.19999999625E+02 0.  0.
        -12    1    1    2    0    0 -0.15222179255E+02 -0.20151325191E+02 -0.35296354384E+02  0.43400729038E+02  0.00000000000E+00 0.  1.
         11    1    3    3    0    0  0.15817045008E+02  0.20435154996E+02  0.30002953497E+02  0.39597369753E+02  0.51100000000E-03 0. -1.
        -11    1    3    3    0    0 -0.93401062455E+00  0.15108654316E+01 -0.71143707331E+00  0.19134349139E+01  0.51100000000E-03 0.  1.
         12    1    3    3    0    0  0.33914487151E+00 -0.17946952370E+01  0.60048379599E+01  0.62764662958E+01  0.00000000000E+00 0. -1.
</event>
<event>
 7    1  0.2834226E-010  0.4778727E+02  0.7816164E-02  0.1312668E+00
        -11   -1    0    0    0    0  0.00000000000E+00  0.00000000000E+00  0.45593999997E+02  0.45594000000E+02  0.51100000000E-03 0. -1.
         11   -1    0    0    0    0 -0.00000000000E+00 -0.00000000000E+00 -0.45593999997E+02  0.45594000000E+02  0.51100000000E-03 0.  1.
    9900012    2    1    2    0    0 -0.30388140003E+02  0.21803930372E+02  0.22017556205E+02  0.47787271737E+02  0.20000003158E+02 0.  0.
        -12    1    1    2    0    0  0.30388140003E+02 -0.21803930372E+02 -0.22017556205E+02  0.43400728263E+02  0.00000000000E+00 0.  1.
         11    1    3    3    0    0 -0.15176181184E+02  0.14701672755E+02  0.28783446738E+01  0.21324645963E+02  0.51100000000E-03 0. -1.
        -11    1    3    3    0    0 -0.28830105506E+01 -0.68146870602E+00  0.86828583009E+00  0.30870811418E+01  0.51100000000E-03 0.  1.
         12    1    3    3    0    0 -0.12328948269E+02  0.77837263227E+01  0.18270925701E+02  0.23375544632E+02  0.00000000000E+00 0. -1.
</event>
<event>
 7    1  0.2834226E-010  0.4778728E+02  0.7816164E-02  0.1312668E+00
        -11   -1    0    0    0    0  0.00000000000E+00  0.00000000000E+00  0.45593999997E+02  0.45594000000E+02  0.51100000000E-03 0.  1.
         11   -1    0    0    0    0 -0.00000000000E+00 -0.00000000000E+00 -0.45593999997E+02  0.45594000000E+02  0.51100000000E-03 0. -1.
    9900012    2    1    2    0    0  0.17254336783E+01 -0.26563084978E+02 -0.34278977849E+02  0.47787275038E+02  0.20000018206E+02 0.  0.
        -12    1    1    2    0    0 -0.17254336783E+01  0.26563084978E+02  0.34278977849E+02  0.43400724962E+02  0.00000000000E+00 0.  1.
         11    1    3    3    0    0  0.89126249311E+00 -0.30865896231E+01 -0.18033155065E+02  0.18317097646E+02  0.51100000000E-03 0. -1.
        -11    1    3    3    0    0  0.25102273673E+01 -0.54638651632E+01 -0.67471001188E+01  0.90376116442E+01  0.51100000000E-03 0.  1.
         12    1    3    3    0    0 -0.16760561820E+01 -0.18012630192E+02 -0.94987226651E+01  0.20432565747E+02  0.00000000000E+00 0. -1.
</event>
<event>
 7    1  0.2834226E-010  0.4778728E+02  0.7816164E-02  0.1312668E+00
        -11   -1    0    0    0    0  0.00000000000E+00  0.00000000000E+00  0.45593999997E+02  0.45594000000E+02  0.51100000000E-03 0.  1.
         11   -1    0    0    0    0 -0.00000000000E+00 -0.00000000000E+00 -0.45593999997E+02  0.45594000000E+02  0.51100000000E-03 0. -1.
    9900012    2    1    2    0    0 -0.24142482111E+02  0.21259695685E+02 -0.29133972382E+02  0.47787280538E+02  0.20000043283E+02 0.  0.
        -12    1    1    2    0    0  0.24142482111E+02 -0.21259695685E+02  0.29133972382E+02  0.43400719462E+02  0.00000000000E+00 0.  1.
         11    1    3    3    0    0 -0.13842432082E+02  0.19526942216E+02 -0.17877203651E+02  0.29874885923E+02  0.51100000000E-03 0.  1.
        -11    1    3    3    0    0 -0.71913679785E+01 -0.24420167283E+01 -0.30289831739E+01  0.81764269967E+01  0.51100000000E-03 0. -1.
        -12    1    3    3    0    0 -0.31086820509E+01  0.41747701970E+01 -0.82277855565E+01  0.97359676178E+01  0.00000000000E+00 0.  1.
</event>
<event>
 7    1  0.2834226E-010  0.4778727E+02  0.7816164E-02  0.1312668E+00
        -11   -1    0    0    0    0  0.00000000000E+00  0.00000000000E+00  0.45593999997E+02  0.45594000000E+02  0.51100000000E-03 0. -1.
         11   -1    0    0    0    0 -0.00000000000E+00 -0.00000000000E+00 -0.45593999997E+02  0.45594000000E+02  0.51100000000E-03 0.  1.
    9900012    2    1    2    0    0 -0.18125295891E+02 -0.39433834728E+02 -0.26384545808E+00  0.47787270894E+02  0.19999999316E+02 0.  0.
        -12    1    1    2    0    0  0.18125295891E+02  0.39433834728E+02  0.26384545808E+00  0.43400729106E+02  0.00000000000E+00 0.  1.
         11    1    3    3    0    0 -0.15982903319E+02 -0.17660379767E+02  0.13566939669E+01  0.23857552909E+02  0.51100000000E-03 0. -1.
        -11    1    3    3    0    0 -0.20248181587E+00  0.93791210221E+00  0.41401983129E+00  0.10450314249E+01  0.51100000000E-03 0.  1.
         12    1    3    3    0    0 -0.19399107563E+01 -0.22711367063E+02 -0.20345592562E+01  0.22884686561E+02  0.00000000000E+00 0. -1.
</event>
<event>
 7    1  0.2834226E-010  0.4778731E+02  0.7816164E-02  0.1312668E+00
        -11   -1    0    0    0    0  0.00000000000E+00  0.00000000000E+00  0.45593999997E+02  0.45594000000E+02  0.51100000000E-03 0.  1.
         11   -1    0    0    0    0 -0.00000000000E+00 -0.00000000000E+00 -0.45593999997E+02  0.45594000000E+02  0.51100000000E-03 0. -1.
    9900012    2    1    2    0    0 -0.20302181688E+02  0.27290992970E+02 -0.26956312491E+02  0.47787312658E+02  0.20000189734E+02 0.  0.
        -12    1    1    2    0    0  0.20302181688E+02 -0.27290992970E+02  0.26956312491E+02  0.43400687342E+02  0.00000000000E+00 0.  1.
         11    1    3    3    0    0 -0.20153123450E+02  0.27892170113E+02 -0.23505498967E+02  0.41672893112E+02  0.51100000000E-03 0. -1.
        -11    1    3    3    0    0  0.13390426815E+01  0.15645752310E+01 -0.26724134300E+01  0.33738293908E+01  0.51100000000E-03 0.  1.
         12    1    3    3    0    0 -0.14881009199E+01 -0.21657523738E+01 -0.77840009412E+00  0.27405901552E+01  0.00000000000E+00 0. -1.
</event>
<event>
 7    1  0.2834226E-010  0.4778727E+02  0.7816164E-02  0.1312668E+00
        -11   -1    0    0    0    0  0.00000000000E+00  0.00000000000E+00  0.45593999997E+02  0.45594000000E+02  0.51100000000E-03 0.  1.
         11   -1    0    0    0    0 -0.00000000000E+00 -0.00000000000E+00 -0.45593999997E+02  0.45594000000E+02  0.51100000000E-03 0. -1.
    9900012    2    1    2    0    0 -0.26626499102E+02  0.31223442719E+02 -0.14133279278E+02  0.47787269444E+02  0.19999992701E+02 0.  0.
        -12    1    1    2    0    0  0.26626499102E+02 -0.31223442719E+02  0.14133279278E+02  0.43400730556E+02  0.00000000000E+00 0.  1.
         11    1    3    3    0    0 -0.22890703509E+02  0.22042654630E+02 -0.14200099557E+02  0.34806691282E+02  0.51100000000E-03 0. -1.
        -11    1    3    3    0    0 -0.50463124564E+01  0.79468572853E+01  0.26979155701E+01  0.97926788370E+01  0.51100000000E-03 0.  1.
         12    1    3    3    0    0  0.13105168633E+01  0.12339308042E+01 -0.26310952906E+01  0.31878993251E+01  0.00000000000E+00 0. -1.
</event>
<event>
 7    1  0.2834226E-010  0.4778727E+02  0.7816164E-02  0.1312668E+00
        -11   -1    0    0    0    0  0.00000000000E+00  0.00000000000E+00  0.45593999997E+02  0.45594000000E+02  0.51100000000E-03 0.  1.
         11   -1    0    0    0    0 -0.00000000000E+00 -0.00000000000E+00 -0.45593999997E+02  0.45594000000E+02  0.51100000000E-03 0. -1.
    9900012    2    1    2    0    0 -0.16331152354E+01  0.14517444668E+02 -0.40868081980E+02  0.47787269709E+02  0.19999993911E+02 0.  0.
        -12    1    1    2    0    0  0.16331152354E+01 -0.14517444668E+02  0.40868081980E+02  0.43400730291E+02  0.00000000000E+00 0.  1.
         11    1    3    3    0    0 -0.51334969879E+01  0.39358592908E+01 -0.27501662391E+02  0.28252171850E+02  0.51100000000E-03 0. -1.
        -11    1    3    3    0    0 -0.13384022302E+01  0.75174309854E+01 -0.41675205196E+01  0.86989261804E+01  0.51100000000E-03 0.  1.
        -12    1    3    3    0    0  0.48387839826E+01  0.30641543919E+01 -0.91988990690E+01  0.10836171679E+02  0.00000000000E+00 0.  1.
</event>
<event>
 7    1  0.2834226E-010  0.4778727E+02  0.7816164E-02  0.1312668E+00
        -11   -1    0    0    0    0  0.00000000000E+00  0.00000000000E+00  0.45593999997E+02  0.45594000000E+02  0.51100000000E-03 0. -1.
         11   -1    0    0    0    0 -0.00000000000E+00 -0.00000000000E+00 -0.45593999997E+02  0.45594000000E+02  0.51100000000E-03 0.  1.
    9900012    2    1    2    0    0 -0.44503400263E+01 -0.19739768359E+02  0.38394779708E+02  0.47787273162E+02  0.20000009655E+02 0.  0.
        -12    1    1    2    0    0  0.44503400263E+01  0.19739768359E+02 -0.38394779708E+02  0.43400726838E+02  0.00000000000E+00 0.  1.
         11    1    3    3    0    0 -0.11100101632E+01 -0.65960168995E+01  0.14319778431E+02  0.15804923792E+02  0.51100000000E-03 0. -1.
        -11    1    3    3    0    0  0.39736611875E+01 -0.36791599802E+01  0.17530141502E+02  0.18347535604E+02  0.51100000000E-03 0.  1.
        -12    1    3    3    0    0 -0.73139910506E+01 -0.94645914790E+01  0.65448597754E+01  0.13634813766E+02  0.00000000000E+00 0.  1.
</event>
<event>
 7    1  0.2834226E-010  0.4778727E+02  0.7816164E-02  0.1312668E+00
        -11   -1    0    0    0    0  0.00000000000E+00  0.00000000000E+00  0.45593999997E+02  0.45594000000E+02  0.51100000000E-03 0. -1.
         11   -1    0    0    0    0 -0.00000000000E+00 -0.00000000000E+00 -0.45593999997E+02  0.45594000000E+02  0.51100000000E-03 0.  1.
    9900012    2    1    2    0    0  0.33547630211E+02  0.25991685808E+02  0.90891414448E+01  0.47787265949E+02  0.19999976769E+02 0.  0.
        -12    1    1    2    0    0 -0.33547630211E+02 -0.25991685808E+02 -0.90891414448E+01  0.43400734051E+02  0.00000000000E+00 0.  1.
         11    1    3    3    0    0  0.18824093025E+02  0.17295361532E+02  0.66045874637E+00  0.25571707310E+02  0.51100000000E-03 0. -1.
        -11    1    3    3    0    0  0.47604424654E+01 -0.13748047266E+01  0.61000416637E+01  0.78589063529E+01  0.51100000000E-03 0.  1.
        -12    1    3    3    0    0  0.99630947205E+01  0.10071129003E+02  0.23286410347E+01  0.14356652286E+02  0.00000000000E+00 0.  1.
</event>
<event>
 7    1  0.2834226E-010  0.4778728E+02  0.7816164E-02  0.1312668E+00
        -11   -1    0    0    0    0  0.00000000000E+00  0.00000000000E+00  0.45593999997E+02  0.45594000000E+02  0.51100000000E-03 0.  1.
         11   -1    0    0    0    0 -0.00000000000E+00 -0.00000000000E+00 -0.45593999997E+02  0.45594000000E+02  0.51100000000E-03 0. -1.
    9900012    2    1    2    0    0  0.29402890269E+02 -0.24849208655E+02 -0.20040204622E+02  0.47787275026E+02  0.20000018154E+02 0.  0.
        -12    1    1    2    0    0 -0.29402890269E+02  0.24849208655E+02  0.20040204622E+02  0.43400724974E+02  0.00000000000E+00 0.  1.
         11    1    3    3    0    0  0.25268883855E+02 -0.14881902643E+02 -0.90375875535E+01  0.30686568830E+02  0.51100000000E-03 0. -1.
        -11    1    3    3    0    0 -0.19882823846E+01 -0.30321552241E+01 -0.17849244560E+01  0.40414338692E+01  0.51100000000E-03 0.  1.
         12    1    3    3    0    0  0.61222887990E+01 -0.69351507879E+01 -0.92176926129E+01  0.13059272326E+02  0.00000000000E+00 0. -1.
</event>
<event>
 7    1  0.2834226E-010  0.4778728E+02  0.7816164E-02  0.1312668E+00
        -11   -1    0    0    0    0  0.00000000000E+00  0.00000000000E+00  0.45593999997E+02  0.45594000000E+02  0.51100000000E-03 0.  1.
         11   -1    0    0    0    0 -0.00000000000E+00 -0.00000000000E+00 -0.45593999997E+02  0.45594000000E+02  0.51100000000E-03 0. -1.
    9900012    2    1    2    0    0 -0.14171243012E+02  0.48176364447E+01 -0.40738054218E+02  0.47787276378E+02  0.20000024318E+02 0.  0.
        -12    1    1    2    0    0  0.14171243012E+02 -0.48176364447E+01  0.40738054218E+02  0.43400723622E+02  0.00000000000E+00 0.  1.
         11    1    3    3    0    0  0.28585890346E+00  0.90412763028E+01 -0.14842765197E+02  0.17382004242E+02  0.51100000000E-03 0. -1.
        -11    1    3    3    0    0 -0.61152396937E+01 -0.44930733998E+01 -0.12283260775E+02  0.14438225674E+02  0.51100000000E-03 0.  1.
         12    1    3    3    0    0 -0.83418622215E+01  0.26943354171E+00 -0.13612028246E+02  0.15967046462E+02  0.00000000000E+00 0. -1.
</event>
<event>
 7    1  0.2834226E-010  0.4778727E+02  0.7816164E-02  0.1312668E+00
        -11   -1    0    0    0    0  0.00000000000E+00  0.00000000000E+00  0.45593999997E+02  0.45594000000E+02  0.51100000000E-03 0.  1.
         11   -1    0    0    0    0 -0.00000000000E+00 -0.00000000000E+00 -0.45593999997E+02  0.45594000000E+02  0.51100000000E-03 0. -1.
    9900012    2    1    2    0    0 -0.39247795146E+02 -0.16115428367E+02  0.91393200923E+01  0.47787266976E+02  0.19999981451E+02 0.  0.
        -12    1    1    2    0    0  0.39247795146E+02  0.16115428367E+02 -0.91393200923E+01  0.43400733024E+02  0.00000000000E+00 0.  1.
         11    1    3    3    0    0 -0.66268782836E+01 -0.51334920468E+01 -0.95122710091E+00  0.84364145014E+01  0.51100000000E-03 0. -1.
        -11    1    3    3    0    0 -0.11049917220E+02 -0.11998757839E+02  0.27465886632E+01  0.16541300124E+02  0.51100000000E-03 0.  1.
        -12    1    3    3    0    0 -0.21570999642E+02  0.10168215184E+01  0.73439585300E+01  0.22809552351E+02  0.00000000000E+00 0.  1.
</event>
<event>
 7    1  0.2834226E-010  0.4778727E+02  0.7816164E-02  0.1312668E+00
        -11   -1    0    0    0    0  0.00000000000E+00  0.00000000000E+00  0.45593999997E+02  0.45594000000E+02  0.51100000000E-03 0. -1.
         11   -1    0    0    0    0 -0.00000000000E+00 -0.00000000000E+00 -0.45593999997E+02  0.45594000000E+02  0.51100000000E-03 0.  1.
    9900012    2    1    2    0    0 -0.10715506700E+02 -0.40967659412E+02  0.95106312442E+01  0.47787270649E+02  0.19999998196E+02 0.  0.
        -12    1    1    2    0    0  0.10715506700E+02  0.40967659412E+02 -0.95106312442E+01  0.43400729351E+02  0.00000000000E+00 0.  1.
         11    1    3    3    0    0  0.47884188624E+00 -0.22279468382E+02  0.10082734631E+02  0.24459467264E+02  0.51100000000E-03 0. -1.
        -11    1    3    3    0    0 -0.69926328731E+00 -0.87990534360E+01 -0.11178093968E+01  0.88972922074E+01  0.51100000000E-03 0.  1.
         12    1    3    3    0    0 -0.10495085299E+02 -0.98891375942E+01  0.54570600965E+00  0.14430511177E+02  0.00000000000E+00 0. -1.
</event>
<event>
 7    1  0.2834226E-010  0.4778728E+02  0.7816164E-02  0.1312668E+00
        -11   -1    0    0    0    0  0.00000000000E+00  0.00000000000E+00  0.45593999997E+02  0.45594000000E+02  0.51100000000E-03 0.  1.
         11   -1    0    0    0    0 -0.00000000000E+00 -0.00000000000E+00 -0.45593999997E+02  0.45594000000E+02  0.51100000000E-03 0. -1.
    9900012    2    1    2    0    0 -0.13615316777E+02 -0.30541419293E+02 -0.27667087925E+02  0.47787275379E+02  0.20000019762E+02 0.  0.
        -12    1    1    2    0    0  0.13615316777E+02  0.30541419293E+02  0.27667087925E+02  0.43400724621E+02  0.00000000000E+00 0.  1.
         11    1    3    3    0    0 -0.59975581621E+01 -0.24056773971E+02 -0.22932963472E+02  0.33773064588E+02  0.51100000000E-03 0. -1.
        -11    1    3    3    0    0 -0.21778078896E+01  0.14828056486E+01 -0.33593690211E+01  0.42692997407E+01  0.51100000000E-03 0.  1.
         12    1    3    3    0    0 -0.54399507255E+01 -0.79674509714E+01 -0.13747554313E+01  0.97449110500E+01  0.00000000000E+00 0. -1.
</event>
<event>
 7    1  0.2834226E-010  0.4778727E+02  0.7816164E-02  0.1312668E+00
        -11   -1    0    0    0    0  0.00000000000E+00  0.00000000000E+00  0.45593999997E+02  0.45594000000E+02  0.51100000000E-03 0.  1.
         11   -1    0    0    0    0 -0.00000000000E+00 -0.00000000000E+00 -0.45593999997E+02  0.45594000000E+02  0.51100000000E-03 0. -1.
    9900012    2    1    2    0    0 -0.27493970049E+02  0.26445165242E+02 -0.20696819192E+02  0.47787268688E+02  0.19999989257E+02 0.  0.
        -12    1    1    2    0    0  0.27493970049E+02 -0.26445165242E+02  0.20696819192E+02  0.43400731312E+02  0.00000000000E+00 0.  1.
         11    1    3    3    0    0 -0.86083187818E+01  0.49853464673E+01 -0.35428108680E+01  0.10559750980E+02  0.51100000000E-03 0. -1.
        -11    1    3    3    0    0 -0.20659224998E+02  0.13181830248E+02 -0.13772459031E+02  0.28111294069E+02  0.51100000000E-03 0.  1.
        -12    1    3    3    0    0  0.17735737310E+01  0.82779885262E+01 -0.33815492932E+01  0.91162236394E+01  0.00000000000E+00 0.  1.
</event>
<event>
 7    1  0.2834226E-010  0.4778727E+02  0.7816164E-02  0.1312668E+00
        -11   -1    0    0    0    0  0.00000000000E+00  0.00000000000E+00  0.45593999997E+02  0.45594000000E+02  0.51100000000E-03 0. -1.
         11   -1    0    0    0    0 -0.00000000000E+00 -0.00000000000E+00 -0.45593999997E+02  0.45594000000E+02  0.51100000000E-03 0.  1.
    9900012    2    1    2    0    0  0.34729817954E+02 -0.11616753339E+02  0.23291933108E+02  0.47787270039E+02  0.19999995415E+02 0.  0.
        -12    1    1    2    0    0 -0.34729817954E+02  0.11616753339E+02 -0.23291933108E+02  0.43400729961E+02  0.00000000000E+00 0.  1.
         11    1    3    3    0    0  0.31065601913E+02 -0.94924603044E+01  0.17662059781E+02  0.36974677562E+02  0.51100000000E-03 0.  1.
        -11    1    3    3    0    0  0.43926761881E+01 -0.44954848872E+01  0.23723211654E+01  0.67181021455E+01  0.51100000000E-03 0. -1.
         12    1    3    3    0    0 -0.72846014725E+00  0.23711918524E+01  0.32575521614E+01  0.40944903310E+01  0.00000000000E+00 0. -1.
</event>
<event>
 7    1  0.2834226E-010  0.4778728E+02  0.7816164E-02  0.1312668E+00
        -11   -1    0    0    0    0  0.00000000000E+00  0.00000000000E+00  0.45593999997E+02  0.45594000000E+02  0.51100000000E-03 0.  1.
         11   -1    0    0    0    0 -0.00000000000E+00 -0.00000000000E+00 -0.45593999997E+02  0.45594000000E+02  0.51100000000E-03 0. -1.
    9900012    2    1    2    0    0  0.13024571488E+02  0.31150337850E+02 -0.27269752624E+02  0.47787280895E+02  0.20000044914E+02 0.  0.
        -12    1    1    2    0    0 -0.13024571488E+02 -0.31150337850E+02  0.27269752624E+02  0.43400719105E+02  0.00000000000E+00 0.  1.
         11    1    3    3    0    0  0.98491807700E+01  0.17441880947E+02 -0.24633145984E+02  0.31749290608E+02  0.51100000000E-03 0. -1.
        -11    1    3    3    0    0  0.44479246343E+01  0.13696804523E+02 -0.30092401212E+01  0.14711968395E+02  0.51100000000E-03 0.  1.
         12    1    3    3    0    0 -0.12725339164E+01  0.11652380307E-01  0.37263348087E+00  0.13260218918E+01  0.00000000000E+00 0. -1.
</event>
<event>
 7    1  0.2834226E-010  0.4778727E+02  0.7816164E-02  0.1312668E+00
        -11   -1    0    0    0    0  0.00000000000E+00  0.00000000000E+00  0.45593999997E+02  0.45594000000E+02  0.51100000000E-03 0.  1.
         11   -1    0    0    0    0 -0.00000000000E+00 -0.00000000000E+00 -0.45593999997E+02  0.45594000000E+02  0.51100000000E-03 0. -1.
    9900012    2    1    2    0    0 -0.67277078694E+00  0.59784102078E+00 -0.43391398944E+02  0.47787268017E+02  0.19999986195E+02 0.  0.
        -12    1    1    2    0    0  0.67277078694E+00 -0.59784102078E+00  0.43391398944E+02  0.43400731983E+02  0.00000000000E+00 0.  1.
         11    1    3    3    0    0 -0.69619021874E+01  0.12536991128E+01 -0.26642470558E+02  0.27565577833E+02  0.51100000000E-03 0. -1.
        -11    1    3    3    0    0  0.58015573782E+01  0.84178695137E+00 -0.17515162530E+02  0.18470181158E+02  0.51100000000E-03 0.  1.
        -12    1    3    3    0    0  0.48757402229E+00 -0.14976450434E+01  0.76623414507E+00  0.17515090261E+01  0.00000000000E+00 0.  1.
</event>
<event>
 7    1  0.2834226E-010  0.4778727E+02  0.7816164E-02  0.1312668E+00
        -11   -1    0    0    0    0  0.00000000000E+00  0.00000000000E+00  0.45593999997E+02  0.45594000000E+02  0.51100000000E-03 0. -1.
         11   -1    0    0    0    0 -0.00000000000E+00 -0.00000000000E+00 -0.45593999997E+02  0.45594000000E+02  0.51100000000E-03 0.  1.
    9900012    2    1    2    0    0  0.25337434070E+02  0.32436129214E+02  0.13767176864E+02  0.47787271867E+02  0.20000003752E+02 0.  0.
        -12    1    1    2    0    0 -0.25337434070E+02 -0.32436129214E+02 -0.13767176864E+02  0.43400728133E+02  0.00000000000E+00 0.  1.
         11    1    3    3    0    0  0.24311783872E+02  0.28632219575E+02  0.59689503734E+01  0.38032817430E+02  0.51100000000E-03 0. -1.
        -11    1    3    3    0    0 -0.59653698983E+00 -0.76818987204E+00  0.17375870747E+01  0.19912762649E+01  0.51100000000E-03 0.  1.
         12    1    3    3    0    0  0.16221871874E+01  0.45720995114E+01  0.60606394157E+01  0.77631781726E+01  0.00000000000E+00 0. -1.
</event>
<event>
 7    1  0.2834226E-010  0.4778727E+02  0.7816164E-02  0.1312668E+00
        -11   -1    0    0    0    0  0.00000000000E+00  0.00000000000E+00  0.45593999997E+02  0.45594000000E+02  0.51100000000E-03 0.  1.
         11   -1    0    0    0    0 -0.00000000000E+00 -0.00000000000E+00 -0.45593999997E+02  0.45594000000E+02  0.51100000000E-03 0. -1.
    9900012    2    1    2    0    0  0.28207826474E+02  0.31319919764E+02 -0.10344302628E+02  0.47787269070E+02  0.19999990996E+02 0.  0.
        -12    1    1    2    0    0 -0.28207826474E+02 -0.31319919764E+02  0.10344302628E+02  0.43400730930E+02  0.00000000000E+00 0.  1.
         11    1    3    3    0    0  0.60278733029E+01  0.59944757750E+01 -0.69849519662E+00  0.85297650715E+01  0.51100000000E-03 0. -1.
        -11    1    3    3    0    0  0.11929611910E+02  0.24584545734E+02 -0.96513837758E+01  0.28980419913E+02  0.51100000000E-03 0.  1.
        -12    1    3    3    0    0  0.10250341261E+02  0.74089825483E+00  0.55763444513E-02  0.10277084085E+02  0.00000000000E+00 0.  1.
</event>
<event>
 7    1  0.2834226E-010  0.4778727E+02  0.7816164E-02  0.1312668E+00
        -11   -1    0    0    0    0  0.00000000000E+00  0.00000000000E+00  0.45593999997E+02  0.45594000000E+02  0.51100000000E-03 0.  1.
         11   -1    0    0    0    0 -0.00000000000E+00 -0.00000000000E+00 -0.45593999997E+02  0.45594000000E+02  0.51100000000E-03 0. -1.
    9900012    2    1    2    0    0 -0.28474696054E+02 -0.31705669182E+02  0.82198124892E+01  0.47787273151E+02  0.20000009605E+02 0.  0.
        -12    1    1    2    0    0  0.28474696054E+02  0.31705669182E+02 -0.82198124892E+01  0.43400726849E+02  0.00000000000E+00 0.  1.
         11    1    3    3    0    0 -0.11537095956E+02 -0.71533527196E+01  0.25912006969E+01  0.13819889998E+02  0.51100000000E-03 0. -1.
        -11    1    3    3    0    0 -0.19754229110E+02 -0.22844852754E+02  0.52045937035E+01  0.30646446139E+02  0.51100000000E-03 0.  1.
        -12    1    3    3    0    0  0.28166290127E+01 -0.17074637087E+01  0.42401808889E+00  0.33209370140E+01  0.00000000000E+00 0.  1.
</event>
<event>
 7    1  0.2834226E-010  0.4778727E+02  0.7816164E-02  0.1312668E+00
        -11   -1    0    0    0    0  0.00000000000E+00  0.00000000000E+00  0.45593999997E+02  0.45594000000E+02  0.51100000000E-03 0.  1.
         11   -1    0    0    0    0 -0.00000000000E+00 -0.00000000000E+00 -0.45593999997E+02  0.45594000000E+02  0.51100000000E-03 0. -1.
    9900012    2    1    2    0    0  0.30355042697E+02  0.50883896474E+01 -0.30599064048E+02  0.47787273659E+02  0.20000011921E+02 0.  0.
        -12    1    1    2    0    0 -0.30355042697E+02 -0.50883896474E+01  0.30599064048E+02  0.43400726341E+02  0.00000000000E+00 0.  1.
         11    1    3    3    0    0  0.19911286123E+01  0.38491123100E+01 -0.11681588545E+02  0.12459525269E+02  0.51100000000E-03 0. -1.
        -11    1    3    3    0    0  0.16506663845E+02 -0.36210351676E+01 -0.12328927514E+02  0.20918515743E+02  0.51100000000E-03 0.  1.
         12    1    3    3    0    0  0.11857250239E+02  0.48603125050E+01 -0.65885479882E+01  0.14409232647E+02  0.00000000000E+00 0. -1.
</event>
<event>
 7    1  0.2834226E-010  0.4778727E+02  0.7816164E-02  0.1312668E+00
        -11   -1    0    0    0    0  0.00000000000E+00  0.00000000000E+00  0.45593999997E+02  0.45594000000E+02  0.51100000000E-03 0. -1.
         11   -1    0    0    0    0 -0.00000000000E+00 -0.00000000000E+00 -0.45593999997E+02  0.45594000000E+02  0.51100000000E-03 0.  1.
    9900012    2    1    2    0    0 -0.62011398877E+01  0.39627282030E+02  0.16578532955E+02  0.47787269914E+02  0.19999994848E+02 0.  0.
        -12    1    1    2    0    0  0.62011398877E+01 -0.39627282030E+02 -0.16578532955E+02  0.43400730086E+02  0.00000000000E+00 0.  1.
         11    1    3    3    0    0 -0.40306275359E+01  0.15863162606E+02  0.14949334784E+02  0.22166833263E+02  0.51100000000E-03 0. -1.
        -11    1    3    3    0    0 -0.21382994975E+01  0.24617854434E+02  0.14961709072E+01  0.24755799509E+02  0.51100000000E-03 0.  1.
        -12    1    3    3    0    0 -0.32212854238E-01 -0.85373500946E+00  0.13302726394E+00  0.86463714199E+00  0.00000000000E+00 0.  1.
</event>
<event>
 7    1  0.2834226E-010  0.4778727E+02  0.7816164E-02  0.1312668E+00
        -11   -1    0    0    0    0  0.00000000000E+00  0.00000000000E+00  0.45593999997E+02  0.45594000000E+02  0.51100000000E-03 0. -1.
         11   -1    0    0    0    0 -0.00000000000E+00 -0.00000000000E+00 -0.45593999997E+02  0.45594000000E+02  0.51100000000E-03 0.  1.
    9900012    2    1    2    0    0  0.15074259186E+02 -0.37709525836E+02  0.15309530572E+02  0.47787270108E+02  0.19999995730E+02 0.  0.
        -12    1    1    2    0    0 -0.15074259186E+02  0.37709525836E+02 -0.15309530572E+02  0.43400729892E+02  0.00000000000E+00 0.  1.
         11    1    3    3    0    0  0.10407523636E+02 -0.20458878311E+02  0.79804651155E+01  0.24301647551E+02  0.51100000000E-03 0. -1.
        -11    1    3    3    0    0 -0.16623227150E+00 -0.58821120249E+01 -0.36785691723E+01  0.69396503124E+01  0.51100000000E-03 0.  1.
        -12    1    3    3    0    0  0.48329678219E+01 -0.11368535501E+02  0.11007634629E+02  0.16545972245E+02  0.00000000000E+00 0.  1.
</event>
<event>
 7    1  0.2834226E-010  0.4778727E+02  0.7816164E-02  0.1312668E+00
        -11   -1    0    0    0    0  0.00000000000E+00  0.00000000000E+00  0.45593999997E+02  0.45594000000E+02  0.51100000000E-03 0. -1.
         11   -1    0    0    0    0 -0.00000000000E+00 -0.00000000000E+00 -0.45593999997E+02  0.45594000000E+02  0.51100000000E-03 0.  1.
    9900012    2    1    2    0    0  0.20223919664E+02  0.36487559482E+02 -0.11969729911E+02  0.47787270079E+02  0.19999995599E+02 0.  0.
        -12    1    1    2    0    0 -0.20223919664E+02 -0.36487559482E+02  0.11969729911E+02  0.43400729921E+02  0.00000000000E+00 0.  1.
         11    1    3    3    0    0  0.67693666478E+01  0.25308389147E+02 -0.25897851381E+01  0.26325764440E+02  0.51100000000E-03 0. -1.
        -11    1    3    3    0    0  0.87748125868E+01  0.43291605986E+01 -0.87758334700E+01  0.13143599993E+02  0.51100000000E-03 0.  1.
        -12    1    3    3    0    0  0.46797404291E+01  0.68500097358E+01 -0.60411130316E+00  0.83179056458E+01  0.00000000000E+00 0.  1.
</event>
<event>
 7    1  0.2834226E-010  0.4778727E+02  0.7816164E-02  0.1312668E+00
        -11   -1    0    0    0    0  0.00000000000E+00  0.00000000000E+00  0.45593999997E+02  0.45594000000E+02  0.51100000000E-03 0.  1.
         11   -1    0    0    0    0 -0.00000000000E+00 -0.00000000000E+00 -0.45593999997E+02  0.45594000000E+02  0.51100000000E-03 0. -1.
    9900012    2    1    2    0    0  0.10373488043E+02 -0.37634488424E+02 -0.18964688998E+02  0.47787269569E+02  0.19999993274E+02 0.  0.
        -12    1    1    2    0    0 -0.10373488043E+02  0.37634488424E+02  0.18964688998E+02  0.43400730431E+02  0.00000000000E+00 0.  1.
         11    1    3    3    0    0  0.62218031375E+01 -0.19077036460E+02 -0.12694175458E+02  0.23744183397E+02  0.51100000000E-03 0. -1.
        -11    1    3    3    0    0  0.13238123274E+01 -0.41338781194E+00  0.31228182264E+01  0.34169229575E+01  0.51100000000E-03 0.  1.
        -12    1    3    3    0    0  0.28278725786E+01 -0.18144064152E+02 -0.93933317672E+01  0.20626163215E+02  0.00000000000E+00 0.  1.
</event>
<event>
 7    1  0.2834226E-010  0.4778727E+02  0.7816164E-02  0.1312668E+00
        -11   -1    0    0    0    0  0.00000000000E+00  0.00000000000E+00  0.45593999997E+02  0.45594000000E+02  0.51100000000E-03 0.  1.
         11   -1    0    0    0    0 -0.00000000000E+00 -0.00000000000E+00 -0.45593999997E+02  0.45594000000E+02  0.51100000000E-03 0. -1.
    9900012    2    1    2    0    0 -0.24090047417E+02 -0.20160788763E+02 -0.29947212706E+02  0.47787270317E+02  0.19999996685E+02 0.  0.
        -12    1    1    2    0    0  0.24090047417E+02  0.20160788763E+02  0.29947212706E+02  0.43400729683E+02  0.00000000000E+00 0.  1.
         11    1    3    3    0    0 -0.18068234652E+02 -0.16751914172E+02 -0.28643115076E+02  0.37782479715E+02  0.51100000000E-03 0. -1.
        -11    1    3    3    0    0 -0.11709749566E+01 -0.35778762467E+01  0.18718299625E+01  0.42042988066E+01  0.51100000000E-03 0.  1.
         12    1    3    3    0    0 -0.48508378087E+01  0.16900165498E+00 -0.31759275920E+01  0.58004917960E+01  0.00000000000E+00 0. -1.
</event>
<event>
 7    1  0.2834226E-010  0.4778727E+02  0.7816164E-02  0.1312668E+00
        -11   -1    0    0    0    0  0.00000000000E+00  0.00000000000E+00  0.45593999997E+02  0.45594000000E+02  0.51100000000E-03 0.  1.
         11   -1    0    0    0    0 -0.00000000000E+00 -0.00000000000E+00 -0.45593999997E+02  0.45594000000E+02  0.51100000000E-03 0. -1.
    9900012    2    1    2    0    0  0.12394953347E+02 -0.14204922819E+02 -0.39092308285E+02  0.47787271114E+02  0.20000000318E+02 0.  0.
        -12    1    1    2    0    0 -0.12394953347E+02  0.14204922819E+02  0.39092308285E+02  0.43400728886E+02  0.00000000000E+00 0.  1.
         11    1    3    3    0    0  0.96522583159E+01 -0.42772448987E+01 -0.23382746482E+02  0.25655676717E+02  0.51100000000E-03 0. -1.
        -11    1    3    3    0    0 -0.42607692831E+00 -0.99358713178E+01 -0.53385882496E+01  0.11287320548E+02  0.51100000000E-03 0.  1.
        -12    1    3    3    0    0  0.31687719594E+01  0.81933972794E-02 -0.10370973553E+02  0.10844273849E+02  0.00000000000E+00 0.  1.
</event>
<event>
 7    1  0.2834226E-010  0.4778727E+02  0.7816164E-02  0.1312668E+00
        -11   -1    0    0    0    0  0.00000000000E+00  0.00000000000E+00  0.45593999997E+02  0.45594000000E+02  0.51100000000E-03 0.  1.
         11   -1    0    0    0    0 -0.00000000000E+00 -0.00000000000E+00 -0.45593999997E+02  0.45594000000E+02  0.51100000000E-03 0. -1.
    9900012    2    1    2    0    0 -0.34389026149E+02  0.14907186587E+02 -0.21881360414E+02  0.47787271147E+02  0.20000000468E+02 0.  0.
        -12    1    1    2    0    0  0.34389026149E+02 -0.14907186587E+02  0.21881360414E+02  0.43400728853E+02  0.00000000000E+00 0.  1.
         11    1    3    3    0    0 -0.78529072870E+01  0.51425972511E+01 -0.86988050071E+01  0.12797799348E+02  0.51100000000E-03 0. -1.
        -11    1    3    3    0    0 -0.14105621308E+02 -0.12583261552E+01 -0.11589408893E+02  0.18299353430E+02  0.51100000000E-03 0.  1.
        -12    1    3    3    0    0 -0.12430497553E+02  0.11022915491E+02 -0.15931465144E+01  0.16690118369E+02  0.00000000000E+00 0.  1.
</event>
<event>
 7    1  0.2834226E-010  0.4778727E+02  0.7816164E-02  0.1312668E+00
        -11   -1    0    0    0    0  0.00000000000E+00  0.00000000000E+00  0.45593999997E+02  0.45594000000E+02  0.51100000000E-03 0.  1.
         11   -1    0    0    0    0 -0.00000000000E+00 -0.00000000000E+00 -0.45593999997E+02  0.45594000000E+02  0.51100000000E-03 0. -1.
    9900012    2    1    2    0    0 -0.29535607215E+02  0.16523231581E+02 -0.27170833803E+02  0.47787268612E+02  0.19999988909E+02 0.  0.
        -12    1    1    2    0    0  0.29535607215E+02 -0.16523231581E+02  0.27170833803E+02  0.43400731388E+02  0.00000000000E+00 0.  1.
         11    1    3    3    0    0 -0.23828285102E+02  0.12470811597E+02 -0.26024959338E+02  0.37424681983E+02  0.51100000000E-03 0. -1.
        -11    1    3    3    0    0  0.14124555880E+01  0.26737716662E+01 -0.65444705024E+00  0.30939274254E+01  0.51100000000E-03 0.  1.
         12    1    3    3    0    0 -0.71197777015E+01  0.13786483183E+01 -0.49142741532E+00  0.72686592030E+01  0.00000000000E+00 0. -1.
</event>
<event>
 7    1  0.2834226E-010  0.4778727E+02  0.7816164E-02  0.1312668E+00
        -11   -1    0    0    0    0  0.00000000000E+00  0.00000000000E+00  0.45593999997E+02  0.45594000000E+02  0.51100000000E-03 0. -1.
         11   -1    0    0    0    0 -0.00000000000E+00 -0.00000000000E+00 -0.45593999997E+02  0.45594000000E+02  0.51100000000E-03 0.  1.
    9900012    2    1    2    0    0  0.29959643407E+02  0.20384558320E+02  0.23885408041E+02  0.47787272261E+02  0.20000005548E+02 0.  0.
        -12    1    1    2    0    0 -0.29959643407E+02 -0.20384558320E+02 -0.23885408041E+02  0.43400727739E+02  0.00000000000E+00 0.  1.
         11    1    3    3    0    0  0.29836873760E+02  0.18540728904E+02  0.19681553908E+02  0.40266130042E+02  0.51100000000E-03 0. -1.
        -11    1    3    3    0    0  0.18693639337E+01  0.23901301761E+01  0.47276286239E+01  0.56176255163E+01  0.51100000000E-03 0.  1.
         12    1    3    3    0    0 -0.17465942866E+01 -0.54630075983E+00 -0.52377449086E+00  0.19035167033E+01  0.00000000000E+00 0. -1.
</event>
<event>
 7    1  0.2834226E-010  0.4778727E+02  0.7816164E-02  0.1312668E+00
        -11   -1    0    0    0    0  0.00000000000E+00  0.00000000000E+00  0.45593999997E+02  0.45594000000E+02  0.51100000000E-03 0.  1.
         11   -1    0    0    0    0 -0.00000000000E+00 -0.00000000000E+00 -0.45593999997E+02  0.45594000000E+02  0.51100000000E-03 0. -1.
    9900012    2    1    2    0    0 -0.15405699900E+02 -0.37143898412E+01 -0.40404098616E+02  0.47787268828E+02  0.19999989896E+02 0.  0.
        -12    1    1    2    0    0  0.15405699900E+02  0.37143898412E+01  0.40404098616E+02  0.43400731172E+02  0.00000000000E+00 0.  1.
         11    1    3    3    0    0 -0.99974053910E+01  0.22097923623E+01 -0.62705297395E+01  0.12006283368E+02  0.51100000000E-03 0. -1.
        -11    1    3    3    0    0  0.90509623324E+00 -0.55191545985E+00 -0.13541545333E+02  0.13582976851E+02  0.51100000000E-03 0.  1.
         12    1    3    3    0    0 -0.63133907418E+01 -0.53722667436E+01 -0.20592023543E+02  0.22198008609E+02  0.00000000000E+00 0. -1.
</event>
<event>
 7    1  0.2834226E-010  0.4778727E+02  0.7816164E-02  0.1312668E+00
        -11   -1    0    0    0    0  0.00000000000E+00  0.00000000000E+00  0.45593999997E+02  0.45594000000E+02  0.51100000000E-03 0.  1.
         11   -1    0    0    0    0 -0.00000000000E+00 -0.00000000000E+00 -0.45593999997E+02  0.45594000000E+02  0.51100000000E-03 0. -1.
    9900012    2    1    2    0    0 -0.28824634751E+02  0.66445401473E+01 -0.31758680801E+02  0.47787270875E+02  0.19999999229E+02 0.  0.
        -12    1    1    2    0    0  0.28824634751E+02 -0.66445401473E+01  0.31758680801E+02  0.43400729125E+02  0.00000000000E+00 0.  1.
         11    1    3    3    0    0  0.20929969219E+01 -0.20452247162E+01 -0.20681464157E+01  0.35834076119E+01  0.51100000000E-03 0. -1.
        -11    1    3    3    0    0 -0.17766700067E+02  0.45699410055E+01 -0.12628901346E+02  0.22271711688E+02  0.51100000000E-03 0.  1.
         12    1    3    3    0    0 -0.13150931606E+02  0.41198238580E+01 -0.17061633040E+02  0.21932151575E+02  0.00000000000E+00 0. -1.
</event>
<event>
 7    1  0.2834226E-010  0.4778727E+02  0.7816164E-02  0.1312668E+00
        -11   -1    0    0    0    0  0.00000000000E+00  0.00000000000E+00  0.45593999997E+02  0.45594000000E+02  0.51100000000E-03 0.  1.
         11   -1    0    0    0    0 -0.00000000000E+00 -0.00000000000E+00 -0.45593999997E+02  0.45594000000E+02  0.51100000000E-03 0. -1.
    9900012    2    1    2    0    0 -0.17984367668E+02  0.20977909528E+02 -0.33468088963E+02  0.47787272501E+02  0.20000006640E+02 0.  0.
        -12    1    1    2    0    0  0.17984367668E+02 -0.20977909528E+02  0.33468088963E+02  0.43400727499E+02  0.00000000000E+00 0.  1.
         11    1    3    3    0    0 -0.27558879892E+01  0.51277960864E+01  0.66599504313E+00  0.58594164361E+01  0.51100000000E-03 0. -1.
        -11    1    3    3    0    0 -0.25851962792E+01  0.87518667896E+01 -0.84681057558E+01  0.12449386630E+02  0.51100000000E-03 0.  1.
         12    1    3    3    0    0 -0.12643283400E+02  0.70982466523E+01 -0.25665978251E+02  0.29478469435E+02  0.00000000000E+00 0. -1.
</event>
<event>
 7    1  0.2834226E-010  0.4778726E+02  0.7816164E-02  0.1312668E+00
        -11   -1    0    0    0    0  0.00000000000E+00  0.00000000000E+00  0.45593999997E+02  0.45594000000E+02  0.51100000000E-03 0.  1.
         11   -1    0    0    0    0 -0.00000000000E+00 -0.00000000000E+00 -0.45593999997E+02  0.45594000000E+02  0.51100000000E-03 0. -1.
    9900012    2    1    2    0    0  0.38334653327E+01 -0.49446718022E+01 -0.42947396510E+02  0.47787261496E+02  0.19999956467E+02 0.  0.
        -12    1    1    2    0    0 -0.38334653327E+01  0.49446718022E+01  0.42947396510E+02  0.43400738504E+02  0.00000000000E+00 0.  1.
         11    1    3    3    0    0 -0.77177253466E+00 -0.93960585004E+01 -0.10154818767E+02  0.13856474755E+02  0.51100000000E-03 0. -1.
        -11    1    3    3    0    0  0.16510889556E+01  0.46137576792E+01 -0.12543510734E+02  0.13466718845E+02  0.51100000000E-03 0.  1.
         12    1    3    3    0    0  0.29541489117E+01 -0.16237098106E+00 -0.20249067009E+02  0.20464067896E+02  0.00000000000E+00 0. -1.
</event>
<event>
 7    1  0.2834226E-010  0.4778727E+02  0.7816164E-02  0.1312668E+00
        -11   -1    0    0    0    0  0.00000000000E+00  0.00000000000E+00  0.45593999997E+02  0.45594000000E+02  0.51100000000E-03 0.  1.
         11   -1    0    0    0    0 -0.00000000000E+00 -0.00000000000E+00 -0.45593999997E+02  0.45594000000E+02  0.51100000000E-03 0. -1.
    9900012    2    1    2    0    0 -0.11875636754E+02 -0.11424084691E+02 -0.40150753893E+02  0.47787268468E+02  0.19999988255E+02 0.  0.
        -12    1    1    2    0    0  0.11875636754E+02  0.11424084691E+02  0.40150753893E+02  0.43400731532E+02  0.00000000000E+00 0.  1.
         11    1    3    3    0    0 -0.33961179326E+01  0.68629408541E+00 -0.14469683313E+02  0.14878721451E+02  0.51100000000E-03 0. -1.
        -11    1    3    3    0    0 -0.72789775454E+01 -0.82598759105E+01 -0.54597995673E+01  0.12288957472E+02  0.51100000000E-03 0.  1.
        -12    1    3    3    0    0 -0.12005412759E+01 -0.38505028655E+01 -0.20221271013E+02  0.20619589546E+02  0.00000000000E+00 0.  1.
</event>
<event>
 7    1  0.2834226E-010  0.4778724E+02  0.7816164E-02  0.1312668E+00
        -11   -1    0    0    0    0  0.00000000000E+00  0.00000000000E+00  0.45593999997E+02  0.45594000000E+02  0.51100000000E-03 0. -1.
         11   -1    0    0    0    0 -0.00000000000E+00 -0.00000000000E+00 -0.45593999997E+02  0.45594000000E+02  0.51100000000E-03 0.  1.
    9900012    2    1    2    0    0 -0.81683093900E-01 -0.41308405082E+02 -0.13312969228E+02  0.47787237884E+02  0.19999848808E+02 0.  0.
        -12    1    1    2    0    0  0.81683093900E-01  0.41308405082E+02  0.13312969228E+02  0.43400762116E+02  0.00000000000E+00 0.  1.
         11    1    3    3    0    0 -0.49519029494E+01 -0.15559735037E+02 -0.10429625153E+02  0.19375339438E+02  0.51100000000E-03 0.  1.
        -11    1    3    3    0    0  0.58239700302E+01 -0.69592197795E+01 -0.31221917510E+01  0.95967415534E+01  0.51100000000E-03 0. -1.
        -12    1    3    3    0    0 -0.95375017472E+00 -0.18789450265E+02  0.23884767588E+00  0.18815156892E+02  0.00000000000E+00 0.  1.
</event>
<event>
 7    1  0.2834226E-010  0.4778726E+02  0.7816164E-02  0.1312668E+00
        -11   -1    0    0    0    0  0.00000000000E+00  0.00000000000E+00  0.45593999997E+02  0.45594000000E+02  0.51100000000E-03 0.  1.
         11   -1    0    0    0    0 -0.00000000000E+00 -0.00000000000E+00 -0.45593999997E+02  0.45594000000E+02  0.51100000000E-03 0. -1.
    9900012    2    1    2    0    0  0.42707190758E+02 -0.65051215789E+01  0.41717468535E+01  0.47787260132E+02  0.19999950248E+02 0.  0.
        -12    1    1    2    0    0 -0.42707190758E+02  0.65051215789E+01 -0.41717468535E+01  0.43400739868E+02  0.00000000000E+00 0.  1.
         11    1    3    3    0    0  0.22093642032E+02  0.43540422227E+00 -0.71728381229E+01  0.23232912044E+02  0.51100000000E-03 0. -1.
        -11    1    3    3    0    0  0.10316978204E+02 -0.30162194739E+01  0.52566790310E+01  0.11965378969E+02  0.51100000000E-03 0.  1.
         12    1    3    3    0    0  0.10296570523E+02 -0.39243063273E+01  0.60879059455E+01  0.12588969119E+02  0.00000000000E+00 0. -1.
</event>
<event>
 7    1  0.2834226E-010  0.4778727E+02  0.7816164E-02  0.1312668E+00
        -11   -1    0    0    0    0  0.00000000000E+00  0.00000000000E+00  0.45593999997E+02  0.45594000000E+02  0.51100000000E-03 0.  1.
         11   -1    0    0    0    0 -0.00000000000E+00 -0.00000000000E+00 -0.45593999997E+02  0.45594000000E+02  0.51100000000E-03 0. -1.
    9900012    2    1    2    0    0 -0.12244214495E+02 -0.38381024974E+02 -0.16143087798E+02  0.47787272468E+02  0.20000006491E+02 0.  0.
        -12    1    1    2    0    0  0.12244214495E+02  0.38381024974E+02  0.16143087798E+02  0.43400727532E+02  0.00000000000E+00 0.  1.
         11    1    3    3    0    0  0.45184415616E+00 -0.11303053816E+02  0.12636878642E+01  0.11382446836E+02  0.51100000000E-03 0. -1.
        -11    1    3    3    0    0 -0.96643054514E+01 -0.19696665515E+02 -0.18034197543E+02  0.28400523121E+02  0.51100000000E-03 0.  1.
        -12    1    3    3    0    0 -0.30317532000E+01 -0.73813056430E+01  0.62742188136E+00  0.80043025104E+01  0.00000000000E+00 0.  1.
</event>
<event>
 7    1  0.2834226E-010  0.4778727E+02  0.7816164E-02  0.1312668E+00
        -11   -1    0    0    0    0  0.00000000000E+00  0.00000000000E+00  0.45593999997E+02  0.45594000000E+02  0.51100000000E-03 0. -1.
         11   -1    0    0    0    0 -0.00000000000E+00 -0.00000000000E+00 -0.45593999997E+02  0.45594000000E+02  0.51100000000E-03 0.  1.
    9900012    2    1    2    0    0 -0.10527875041E+01  0.36991022772E+02 -0.22675520074E+02  0.47787270307E+02  0.19999996638E+02 0.  0.
        -12    1    1    2    0    0  0.10527875041E+01 -0.36991022772E+02  0.22675520074E+02  0.43400729693E+02  0.00000000000E+00 0.  1.
         11    1    3    3    0    0 -0.63148561983E+01  0.18113682753E+02 -0.73091676378E+01  0.20528196304E+02  0.51100000000E-03 0. -1.
        -11    1    3    3    0    0  0.37335206187E+01  0.10572967410E+01 -0.57933558662E+01  0.69728061111E+01  0.51100000000E-03 0.  1.
         12    1    3    3    0    0  0.15285480755E+01  0.17820043279E+02 -0.95729965700E+01  0.20286267892E+02  0.00000000000E+00 0. -1.
</event>
<event>
 7    1  0.2834226E-010  0.4778727E+02  0.7816164E-02  0.1312668E+00
        -11   -1    0    0    0    0  0.00000000000E+00  0.00000000000E+00  0.45593999997E+02  0.45594000000E+02  0.51100000000E-03 0.  1.
         11   -1    0    0    0    0 -0.00000000000E+00 -0.00000000000E+00 -0.45593999997E+02  0.45594000000E+02  0.51100000000E-03 0. -1.
    9900012    2    1    2    0    0 -0.91075311489E+01  0.32980745651E+02 -0.26701056117E+02  0.47787272989E+02  0.20000008866E+02 0.  0.
        -12    1    1    2    0    0  0.91075311489E+01 -0.32980745651E+02  0.26701056117E+02  0.43400727011E+02  0.00000000000E+00 0.  1.
         11    1    3    3    0    0 -0.88962100486E+01  0.20020330635E+02 -0.12579307443E+02  0.25262524972E+02  0.51100000000E-03 0. -1.
        -11    1    3    3    0    0  0.10738914074E+00 -0.14518710116E+01  0.89460298279E+00  0.17087353862E+01  0.51100000000E-03 0.  1.
        -12    1    3    3    0    0 -0.31871024105E+00  0.14412286027E+02 -0.15016351658E+02  0.20816012631E+02  0.00000000000E+00 0.  1.
</event>
<event>
 7    1  0.2834226E-010  0.4778727E+02  0.7816164E-02  0.1312668E+00
        -11   -1    0    0    0    0  0.00000000000E+00  0.00000000000E+00  0.45593999997E+02  0.45594000000E+02  0.51100000000E-03 0.  1.
         11   -1    0    0    0    0 -0.00000000000E+00 -0.00000000000E+00 -0.45593999997E+02  0.45594000000E+02  0.51100000000E-03 0. -1.
    9900012    2    1    2    0    0 -0.72379560020E+00 -0.39507546053E+02 -0.17951404050E+02  0.47787274401E+02  0.20000015303E+02 0.  0.
        -12    1    1    2    0    0  0.72379560020E+00  0.39507546053E+02  0.17951404050E+02  0.43400725599E+02  0.00000000000E+00 0.  1.
         11    1    3    3    0    0 -0.73267355084E+01 -0.13971184695E+02 -0.71658108324E+01  0.17326970310E+02  0.51100000000E-03 0. -1.
        -11    1    3    3    0    0  0.87818257462E+01 -0.24505811186E+02 -0.10334432586E+02  0.28008137076E+02  0.51100000000E-03 0.  1.
        -12    1    3    3    0    0 -0.21788858380E+01 -0.10305501714E+01 -0.45116063217E+00  0.24521670145E+01  0.00000000000E+00 0.  1.
</event>
<event>
 7    1  0.2834226E-010  0.4778727E+02  0.7816164E-02  0.1312668E+00
        -11   -1    0    0    0    0  0.00000000000E+00  0.00000000000E+00  0.45593999997E+02  0.45594000000E+02  0.51100000000E-03 0.  1.
         11   -1    0    0    0    0 -0.00000000000E+00 -0.00000000000E+00 -0.45593999997E+02  0.45594000000E+02  0.51100000000E-03 0. -1.
    9900012    2    1    2    0    0  0.18977685764E+02 -0.13798956743E+01 -0.39007269257E+02  0.47787265860E+02  0.19999976361E+02 0.  0.
        -12    1    1    2    0    0 -0.18977685764E+02  0.13798956743E+01  0.39007269257E+02  0.43400734140E+02  0.00000000000E+00 0.  1.
         11    1    3    3    0    0  0.79819762339E+01 -0.13245668378E+01 -0.22624877118E+02  0.24028139478E+02  0.51100000000E-03 0. -1.
        -11    1    3    3    0    0  0.64732695487E+01  0.13180942823E+01  0.10573821179E+00  0.66069487676E+01  0.51100000000E-03 0.  1.
        -12    1    3    3    0    0  0.45224399813E+01 -0.13734231188E+01 -0.16488130351E+02  0.17152177614E+02  0.00000000000E+00 0.  1.
</event>
<event>
 7    1  0.2834226E-010  0.4778729E+02  0.7816164E-02  0.1312668E+00
        -11   -1    0    0    0    0  0.00000000000E+00  0.00000000000E+00  0.45593999997E+02  0.45594000000E+02  0.51100000000E-03 0.  1.
         11   -1    0    0    0    0 -0.00000000000E+00 -0.00000000000E+00 -0.45593999997E+02  0.45594000000E+02  0.51100000000E-03 0. -1.
    9900012    2    1    2    0    0  0.14285731073E+02  0.90154469236E+00 -0.40972269904E+02  0.47787288068E+02  0.20000077617E+02 0.  0.
        -12    1    1    2    0    0 -0.14285731073E+02 -0.90154469236E+00  0.40972269904E+02  0.43400711932E+02  0.00000000000E+00 0.  1.
         11    1    3    3    0    0  0.80387587155E+01  0.83342403020E+01 -0.19104502631E+02  0.22339723009E+02  0.51100000000E-03 0. -1.
        -11    1    3    3    0    0  0.35172174150E+01 -0.58533596281E+01 -0.21133648839E+02  0.22209541886E+02  0.51100000000E-03 0.  1.
        -12    1    3    3    0    0  0.27297549429E+01 -0.15793359816E+01 -0.73411843385E+00  0.32380231725E+01  0.00000000000E+00 0.  1.
</event>
<event>
 7    1  0.2834226E-010  0.4778729E+02  0.7816164E-02  0.1312668E+00
        -11   -1    0    0    0    0  0.00000000000E+00  0.00000000000E+00  0.45593999997E+02  0.45594000000E+02  0.51100000000E-03 0. -1.
         11   -1    0    0    0    0 -0.00000000000E+00 -0.00000000000E+00 -0.45593999997E+02  0.45594000000E+02  0.51100000000E-03 0.  1.
    9900012    2    1    2    0    0 -0.34128577780E+02 -0.19803356114E+02 -0.18074529492E+02  0.47787293196E+02  0.20000100998E+02 0.  0.
        -12    1    1    2    0    0  0.34128577780E+02  0.19803356114E+02  0.18074529492E+02  0.43400706804E+02  0.00000000000E+00 0.  1.
         11    1    3    3    0    0 -0.34157180276E+01 -0.19654462838E+01 -0.63499371012E+01  0.74734068663E+01  0.51100000000E-03 0. -1.
        -11    1    3    3    0    0 -0.31068787946E+02 -0.19599598595E+02 -0.10779731464E+02  0.38283370544E+02  0.51100000000E-03 0.  1.
        -12    1    3    3    0    0  0.35592819359E+00  0.17616887647E+01 -0.94486092765E+00  0.20305157855E+01  0.00000000000E+00 0.  1.
</event>
<event>
 7    1  0.2834226E-010  0.4778727E+02  0.7816164E-02  0.1312668E+00
        -11   -1    0    0    0    0  0.00000000000E+00  0.00000000000E+00  0.45593999997E+02  0.45594000000E+02  0.51100000000E-03 0.  1.
         11   -1    0    0    0    0 -0.00000000000E+00 -0.00000000000E+00 -0.45593999997E+02  0.45594000000E+02  0.51100000000E-03 0. -1.
    9900012    2    1    2    0    0 -0.12093308145E+01 -0.38464900485E+02 -0.20065211684E+02  0.47787265325E+02  0.19999973925E+02 0.  0.
        -12    1    1    2    0    0  0.12093308145E+01  0.38464900485E+02  0.20065211684E+02  0.43400734675E+02  0.00000000000E+00 0.  1.
         11    1    3    3    0    0 -0.47064487979E+01 -0.19723228112E+02 -0.17831156850E+02  0.27001972934E+02  0.51100000000E-03 0. -1.
        -11    1    3    3    0    0  0.45922947383E+01 -0.18429465399E+02 -0.87634626168E+00  0.19013215112E+02  0.51100000000E-03 0.  1.
        -12    1    3    3    0    0 -0.10951767549E+01 -0.31220697472E+00 -0.13577085722E+01  0.17720772801E+01  0.00000000000E+00 0.  1.
</event>
<event>
 7    1  0.2834226E-010  0.4778727E+02  0.7816164E-02  0.1312668E+00
        -11   -1    0    0    0    0  0.00000000000E+00  0.00000000000E+00  0.45593999997E+02  0.45594000000E+02  0.51100000000E-03 0. -1.
         11   -1    0    0    0    0 -0.00000000000E+00 -0.00000000000E+00 -0.45593999997E+02  0.45594000000E+02  0.51100000000E-03 0.  1.
    9900012    2    1    2    0    0 -0.72501447099E+01  0.29143355578E+02  0.31332465195E+02  0.47787272497E+02  0.20000006621E+02 0.  0.
        -12    1    1    2    0    0  0.72501447099E+01 -0.29143355578E+02 -0.31332465195E+02  0.43400727503E+02  0.00000000000E+00 0.  1.
         11    1    3    3    0    0 -0.28005145698E+01  0.49188986941E+01  0.85368769257E+00  0.57242666916E+01  0.51100000000E-03 0. -1.
        -11    1    3    3    0    0  0.47992278448E+01  0.15655200943E+02  0.17637689456E+02  0.24066698861E+02  0.51100000000E-03 0.  1.
        -12    1    3    3    0    0 -0.92488579848E+01  0.85692559405E+01  0.12841088046E+02  0.17996306944E+02  0.00000000000E+00 0.  1.
</event>
<event>
 7    1  0.2834226E-010  0.4778727E+02  0.7816164E-02  0.1312668E+00
        -11   -1    0    0    0    0  0.00000000000E+00  0.00000000000E+00  0.45593999997E+02  0.45594000000E+02  0.51100000000E-03 0.  1.
         11   -1    0    0    0    0 -0.00000000000E+00 -0.00000000000E+00 -0.45593999997E+02  0.45594000000E+02  0.51100000000E-03 0. -1.
    9900012    2    1    2    0    0  0.77606047438E+01 -0.41537387292E+02  0.99015955659E+01  0.47787272773E+02  0.20000007883E+02 0.  0.
        -12    1    1    2    0    0 -0.77606047438E+01  0.41537387292E+02 -0.99015955659E+01  0.43400727227E+02  0.00000000000E+00 0.  1.
         11    1    3    3    0    0 -0.53727863285E+01 -0.14331671709E+02  0.24980530488E+01  0.15508188682E+02  0.51100000000E-03 0. -1.
        -11    1    3    3    0    0  0.13581406915E-01 -0.10607475044E+01 -0.13763343745E+01  0.17377187040E+01  0.51100000000E-03 0.  1.
         12    1    3    3    0    0  0.13119809665E+02 -0.26144968079E+02  0.87798768915E+01  0.30541365388E+02  0.00000000000E+00 0. -1.
</event>
<event>
 7    1  0.2834226E-010  0.4778726E+02  0.7816164E-02  0.1312668E+00
        -11   -1    0    0    0    0  0.00000000000E+00  0.00000000000E+00  0.45593999997E+02  0.45594000000E+02  0.51100000000E-03 0. -1.
         11   -1    0    0    0    0 -0.00000000000E+00 -0.00000000000E+00 -0.45593999997E+02  0.45594000000E+02  0.51100000000E-03 0.  1.
    9900012    2    1    2    0    0  0.29800635918E+02 -0.29079774196E+02  0.12243887459E+02  0.47787263272E+02  0.19999964562E+02 0.  0.
        -12    1    1    2    0    0 -0.29800635918E+02  0.29079774196E+02 -0.12243887459E+02  0.43400736728E+02  0.00000000000E+00 0.  1.
         11    1    3    3    0    0  0.14658183260E+02 -0.15514628855E+02  0.31462417780E+01  0.21574635167E+02  0.51100000000E-03 0. -1.
        -11    1    3    3    0    0  0.72163572809E+01  0.13248615013E+01  0.70164821501E+00  0.73704396668E+01  0.51100000000E-03 0.  1.
        -12    1    3    3    0    0  0.79260953776E+01 -0.14890006842E+02  0.83959974665E+01  0.18842188438E+02  0.00000000000E+00 0.  1.
</event>
<event>
 7    1  0.2834226E-010  0.4778727E+02  0.7816164E-02  0.1312668E+00
        -11   -1    0    0    0    0  0.00000000000E+00  0.00000000000E+00  0.45593999997E+02  0.45594000000E+02  0.51100000000E-03 0.  1.
         11   -1    0    0    0    0 -0.00000000000E+00 -0.00000000000E+00 -0.45593999997E+02  0.45594000000E+02  0.51100000000E-03 0. -1.
    9900012    2    1    2    0    0  0.18171768651E+02 -0.28039147980E+02 -0.27698664827E+02  0.47787273871E+02  0.20000012885E+02 0.  0.
        -12    1    1    2    0    0 -0.18171768651E+02  0.28039147980E+02  0.27698664827E+02  0.43400726129E+02  0.00000000000E+00 0.  1.
         11    1    3    3    0    0  0.13272824840E+01 -0.14234774087E+02 -0.10249941652E+02  0.17591241464E+02  0.51100000000E-03 0. -1.
        -11    1    3    3    0    0  0.14801906993E+02 -0.68934572594E+01 -0.76472552102E+01  0.18030438600E+02  0.51100000000E-03 0.  1.
        -12    1    3    3    0    0  0.20425791742E+01 -0.69109166334E+01 -0.98014679649E+01  0.12165593806E+02  0.00000000000E+00 0.  1.
</event>
<event>
 7    1  0.2834226E-010  0.4778727E+02  0.7816164E-02  0.1312668E+00
        -11   -1    0    0    0    0  0.00000000000E+00  0.00000000000E+00  0.45593999997E+02  0.45594000000E+02  0.51100000000E-03 0. -1.
         11   -1    0    0    0    0 -0.00000000000E+00 -0.00000000000E+00 -0.45593999997E+02  0.45594000000E+02  0.51100000000E-03 0.  1.
    9900012    2    1    2    0    0 -0.29708245368E+02 -0.65409783338E+01  0.30955765727E+02  0.47787266456E+02  0.19999979079E+02 0.  0.
        -12    1    1    2    0    0  0.29708245368E+02  0.65409783338E+01 -0.30955765727E+02  0.43400733544E+02  0.00000000000E+00 0.  1.
         11    1    3    3    0    0 -0.14098044395E+02 -0.66535168913E+01  0.26799308971E+02  0.31003662757E+02  0.51100000000E-03 0. -1.
        -11    1    3    3    0    0 -0.12865825574E+02  0.12550011194E+01  0.47130561800E+01  0.13759265762E+02  0.51100000000E-03 0.  1.
         12    1    3    3    0    0 -0.27443753989E+01 -0.11424625619E+01 -0.55659942348E+00  0.30243379364E+01  0.00000000000E+00 0. -1.
</event>
<event>
 7    1  0.2834226E-010  0.4778727E+02  0.7816164E-02  0.1312668E+00
        -11   -1    0    0    0    0  0.00000000000E+00  0.00000000000E+00  0.45593999997E+02  0.45594000000E+02  0.51100000000E-03 0.  1.
         11   -1    0    0    0    0 -0.00000000000E+00 -0.00000000000E+00 -0.45593999997E+02  0.45594000000E+02  0.51100000000E-03 0. -1.
    9900012    2    1    2    0    0 -0.31478861530E+02  0.24525675942E+02 -0.17064453790E+02  0.47787273200E+02  0.20000009828E+02 0.  0.
        -12    1    1    2    0    0  0.31478861530E+02 -0.24525675942E+02  0.17064453790E+02  0.43400726800E+02  0.00000000000E+00 0.  1.
         11    1    3    3    0    0 -0.20162732860E+02  0.10796799446E+02 -0.11470948640E+02  0.25586897772E+02  0.51100000000E-03 0. -1.
        -11    1    3    3    0    0  0.17623634285E+01  0.38905810101E+01 -0.38353453073E+01  0.57404197876E+01  0.51100000000E-03 0.  1.
         12    1    3    3    0    0 -0.13078492098E+02  0.98382954863E+01 -0.17581598427E+01  0.16459955640E+02  0.00000000000E+00 0. -1.
</event>
<event>
 7    1  0.2834226E-010  0.4778727E+02  0.7816164E-02  0.1312668E+00
        -11   -1    0    0    0    0  0.00000000000E+00  0.00000000000E+00  0.45593999997E+02  0.45594000000E+02  0.51100000000E-03 0.  1.
         11   -1    0    0    0    0 -0.00000000000E+00 -0.00000000000E+00 -0.45593999997E+02  0.45594000000E+02  0.51100000000E-03 0. -1.
    9900012    2    1    2    0    0 -0.36186810593E+01 -0.41246537663E+02 -0.13009672746E+02  0.47787270666E+02  0.19999998274E+02 0.  0.
        -12    1    1    2    0    0  0.36186810593E+01  0.41246537663E+02  0.13009672746E+02  0.43400729334E+02  0.00000000000E+00 0.  1.
         11    1    3    3    0    0 -0.83970897417E+00 -0.20456191044E+02 -0.20150694393E+01  0.20572344745E+02  0.51100000000E-03 0. -1.
        -11    1    3    3    0    0 -0.37026573807E+00 -0.11019708964E+02 -0.12903127300E+02  0.16972382766E+02  0.51100000000E-03 0.  1.
        -12    1    3    3    0    0 -0.24087063471E+01 -0.97706376549E+01  0.19085239937E+01  0.10242543155E+02  0.00000000000E+00 0.  1.
</event>
<event>
 7    1  0.2834226E-010  0.4778727E+02  0.7816164E-02  0.1312668E+00
        -11   -1    0    0    0    0  0.00000000000E+00  0.00000000000E+00  0.45593999997E+02  0.45594000000E+02  0.51100000000E-03 0. -1.
         11   -1    0    0    0    0 -0.00000000000E+00 -0.00000000000E+00 -0.45593999997E+02  0.45594000000E+02  0.51100000000E-03 0.  1.
    9900012    2    1    2    0    0 -0.16396001597E+02 -0.19199113895E+02  0.35301393896E+02  0.47787271277E+02  0.20000001061E+02 0.  0.
        -12    1    1    2    0    0  0.16396001597E+02  0.19199113895E+02 -0.35301393896E+02  0.43400728723E+02  0.00000000000E+00 0.  1.
         11    1    3    3    0    0 -0.13529298699E+02 -0.47520315927E+01  0.26172954250E+02  0.29843713945E+02  0.51100000000E-03 0. -1.
        -11    1    3    3    0    0  0.97336028306E+00 -0.44631444146E+01  0.15108106929E+01  0.48114070205E+01  0.51100000000E-03 0.  1.
         12    1    3    3    0    0 -0.38400631806E+01 -0.99839378873E+01  0.76176289523E+01  0.13132150312E+02  0.00000000000E+00 0. -1.
</event>
<event>
 7    1  0.2834226E-010  0.4778728E+02  0.7816164E-02  0.1312668E+00
        -11   -1    0    0    0    0  0.00000000000E+00  0.00000000000E+00  0.45593999997E+02  0.45594000000E+02  0.51100000000E-03 0.  1.
         11   -1    0    0    0    0 -0.00000000000E+00 -0.00000000000E+00 -0.45593999997E+02  0.45594000000E+02  0.51100000000E-03 0. -1.
    9900012    2    1    2    0    0  0.42996417668E+02  0.55475573625E+01 -0.20384881688E+01  0.47787276976E+02  0.20000027046E+02 0.  0.
        -12    1    1    2    0    0 -0.42996417668E+02 -0.55475573625E+01  0.20384881688E+01  0.43400723024E+02  0.00000000000E+00 0.  1.
         11    1    3    3    0    0  0.14812395368E+02  0.48779807554E+01  0.18251665942E+01  0.15701368926E+02  0.51100000000E-03 0. -1.
        -11    1    3    3    0    0  0.59254992390E+01  0.17824712704E+01 -0.72633679507E+01  0.95417639516E+01  0.51100000000E-03 0.  1.
        -12    1    3    3    0    0  0.22258523061E+02 -0.11128946633E+01  0.33997131876E+01  0.22544144099E+02  0.00000000000E+00 0.  1.
</event>
<event>
 7    1  0.2834226E-010  0.4778727E+02  0.7816164E-02  0.1312668E+00
        -11   -1    0    0    0    0  0.00000000000E+00  0.00000000000E+00  0.45593999997E+02  0.45594000000E+02  0.51100000000E-03 0. -1.
         11   -1    0    0    0    0 -0.00000000000E+00 -0.00000000000E+00 -0.45593999997E+02  0.45594000000E+02  0.51100000000E-03 0.  1.
    9900012    2    1    2    0    0  0.20038829739E+02  0.35078032769E+02  0.15861904075E+02  0.47787273265E+02  0.20000010124E+02 0.  0.
        -12    1    1    2    0    0 -0.20038829739E+02 -0.35078032769E+02 -0.15861904075E+02  0.43400726735E+02  0.00000000000E+00 0.  1.
         11    1    3    3    0    0  0.18758550496E+01  0.35011847431E+01  0.25338993426E+01  0.47114512532E+01  0.51100000000E-03 0. -1.
        -11    1    3    3    0    0 -0.32572249075E+00  0.12919525120E+02  0.10511669458E+02  0.16658794060E+02  0.51100000000E-03 0.  1.
        -12    1    3    3    0    0  0.18488697180E+02  0.18657322906E+02  0.28163352746E+01  0.26417027952E+02  0.00000000000E+00 0.  1.
</event>
<event>
 7    1  0.2834226E-010  0.4778727E+02  0.7816164E-02  0.1312668E+00
        -11   -1    0    0    0    0  0.00000000000E+00  0.00000000000E+00  0.45593999997E+02  0.45594000000E+02  0.51100000000E-03 0.  1.
         11   -1    0    0    0    0 -0.00000000000E+00 -0.00000000000E+00 -0.45593999997E+02  0.45594000000E+02  0.51100000000E-03 0. -1.
    9900012    2    1    2    0    0 -0.41916326706E+02  0.91093555471E+01  0.66079106276E+01  0.47787270906E+02  0.19999999369E+02 0.  0.
        -12    1    1    2    0    0  0.41916326706E+02 -0.91093555471E+01 -0.66079106276E+01  0.43400729094E+02  0.00000000000E+00 0.  1.
         11    1    3    3    0    0 -0.44671210710E+01 -0.44459047962E+01 -0.16300591700E-01  0.63024999873E+01  0.51100000000E-03 0.  1.
        -11    1    3    3    0    0 -0.27295769479E+02  0.84439005022E+01  0.50824944392E+00  0.28576507920E+02  0.51100000000E-03 0. -1.
        -12    1    3    3    0    0 -0.10153436157E+02  0.51113598411E+01  0.61159617753E+01  0.12908262999E+02  0.00000000000E+00 0.  1.
</event>
<event>
 7    1  0.2834226E-010  0.4778727E+02  0.7816164E-02  0.1312668E+00
        -11   -1    0    0    0    0  0.00000000000E+00  0.00000000000E+00  0.45593999997E+02  0.45594000000E+02  0.51100000000E-03 0. -1.
         11   -1    0    0    0    0 -0.00000000000E+00 -0.00000000000E+00 -0.45593999997E+02  0.45594000000E+02  0.51100000000E-03 0.  1.
    9900012    2    1    2    0    0 -0.12110340035E+02  0.52012513915E+01  0.41351053318E+02  0.47787274633E+02  0.20000016363E+02 0.  0.
        -12    1    1    2    0    0  0.12110340035E+02 -0.52012513915E+01 -0.41351053318E+02  0.43400725367E+02  0.00000000000E+00 0.  1.
         11    1    3    3    0    0 -0.10889451525E+02  0.10176439249E+02  0.31672669477E+02  0.35004257775E+02  0.51100000000E-03 0. -1.
        -11    1    3    3    0    0  0.68248073356E+00  0.77899403942E+00  0.50552161244E+01  0.51602153047E+01  0.51100000000E-03 0.  1.
         12    1    3    3    0    0 -0.19033692440E+01 -0.57541818973E+01  0.46231677165E+01  0.76228015533E+01  0.00000000000E+00 0. -1.
</event>
<event>
 7    1  0.2834226E-010  0.4778727E+02  0.7816164E-02  0.1312668E+00
        -11   -1    0    0    0    0  0.00000000000E+00  0.00000000000E+00  0.45593999997E+02  0.45594000000E+02  0.51100000000E-03 0.  1.
         11   -1    0    0    0    0 -0.00000000000E+00 -0.00000000000E+00 -0.45593999997E+02  0.45594000000E+02  0.51100000000E-03 0. -1.
    9900012    2    1    2    0    0 -0.30299746154E+01 -0.97254699595E+01 -0.42188361812E+02  0.47787269770E+02  0.19999994189E+02 0.  0.
        -12    1    1    2    0    0  0.30299746154E+01  0.97254699595E+01  0.42188361812E+02  0.43400730230E+02  0.00000000000E+00 0.  1.
         11    1    3    3    0    0  0.34112246203E+01 -0.10297371594E+02 -0.17457118648E+02  0.20552939131E+02  0.51100000000E-03 0. -1.
        -11    1    3    3    0    0  0.22139735860E+01  0.95302865892E-01 -0.23352430342E+01  0.32193356404E+01  0.51100000000E-03 0.  1.
         12    1    3    3    0    0 -0.86551728216E+01  0.47659876897E+00 -0.22396000130E+02  0.24014994999E+02  0.00000000000E+00 0. -1.
</event>
<event>
 7    1  0.2834226E-010  0.4778727E+02  0.7816164E-02  0.1312668E+00
        -11   -1    0    0    0    0  0.00000000000E+00  0.00000000000E+00  0.45593999997E+02  0.45594000000E+02  0.51100000000E-03 0. -1.
         11   -1    0    0    0    0 -0.00000000000E+00 -0.00000000000E+00 -0.45593999997E+02  0.45594000000E+02  0.51100000000E-03 0.  1.
    9900012    2    1    2    0    0 -0.59329226851E+01 -0.31395335371E+02  0.29372714306E+02  0.47787274195E+02  0.20000014366E+02 0.  0.
        -12    1    1    2    0    0  0.59329226851E+01  0.31395335371E+02 -0.29372714306E+02  0.43400725805E+02  0.00000000000E+00 0.  1.
         11    1    3    3    0    0  0.38628551094E+01 -0.51131930528E+01  0.13408918991E+02  0.14861544387E+02  0.51100000000E-03 0. -1.
        -11    1    3    3    0    0 -0.84970690448E+01 -0.23186857887E+02  0.11244139610E+02  0.27134134165E+02  0.51100000000E-03 0.  1.
         12    1    3    3    0    0 -0.12987087497E+01 -0.30952844313E+01  0.47196557048E+01  0.57915956436E+01  0.00000000000E+00 0. -1.
</event>
<event>
 7    1  0.2834226E-010  0.4778727E+02  0.7816164E-02  0.1312668E+00
        -11   -1    0    0    0    0  0.00000000000E+00  0.00000000000E+00  0.45593999997E+02  0.45594000000E+02  0.51100000000E-03 0. -1.
         11   -1    0    0    0    0 -0.00000000000E+00 -0.00000000000E+00 -0.45593999997E+02  0.45594000000E+02  0.51100000000E-03 0.  1.
    9900012    2    1    2    0    0 -0.18485767463E+02  0.34064557272E+02  0.19532166354E+02  0.47787272088E+02  0.20000004758E+02 0.  0.
        -12    1    1    2    0    0  0.18485767463E+02 -0.34064557272E+02 -0.19532166354E+02  0.43400727912E+02  0.00000000000E+00 0.  1.
         11    1    3    3    0    0 -0.17426877953E+02  0.16483116173E+02  0.15010047754E+02  0.28296479071E+02  0.51100000000E-03 0. -1.
        -11    1    3    3    0    0 -0.11846610006E+01  0.70595917931E+01 -0.15748014973E+01  0.73294786983E+01  0.51100000000E-03 0.  1.
         12    1    3    3    0    0  0.12577149124E+00  0.10521849307E+02  0.60969200968E+01  0.12161314319E+02  0.00000000000E+00 0. -1.
</event>
<event>
 7    1  0.2834226E-010  0.4778727E+02  0.7816164E-02  0.1312668E+00
        -11   -1    0    0    0    0  0.00000000000E+00  0.00000000000E+00  0.45593999997E+02  0.45594000000E+02  0.51100000000E-03 0.  1.
         11   -1    0    0    0    0 -0.00000000000E+00 -0.00000000000E+00 -0.45593999997E+02  0.45594000000E+02  0.51100000000E-03 0. -1.
    9900012    2    1    2    0    0  0.15142824588E+01  0.43330709700E+02  0.19442107959E+01  0.47787269475E+02  0.19999992843E+02 0.  0.
        -12    1    1    2    0    0 -0.15142824588E+01 -0.43330709700E+02 -0.19442107959E+01  0.43400730525E+02  0.00000000000E+00 0.  1.
         11    1    3    3    0    0 -0.35793476759E+01  0.21057013602E+02  0.52513859698E+01  0.21995149613E+02  0.51100000000E-03 0. -1.
        -11    1    3    3    0    0  0.16269394740E+01  0.25706396519E+00 -0.30918154589E+01  0.35031895506E+01  0.51100000000E-03 0.  1.
        -12    1    3    3    0    0  0.34666906607E+01  0.22016632133E+02 -0.21535971495E+00  0.22288930311E+02  0.00000000000E+00 0.  1.
</event>
<event>
 7    1  0.2834226E-010  0.4778727E+02  0.7816164E-02  0.1312668E+00
        -11   -1    0    0    0    0  0.00000000000E+00  0.00000000000E+00  0.45593999997E+02  0.45594000000E+02  0.51100000000E-03 0.  1.
         11   -1    0    0    0    0 -0.00000000000E+00 -0.00000000000E+00 -0.45593999997E+02  0.45594000000E+02  0.51100000000E-03 0. -1.
    9900012    2    1    2    0    0  0.11576877502E+02  0.14500026433E+02 -0.39234530336E+02  0.47787271551E+02  0.20000002308E+02 0.  0.
        -12    1    1    2    0    0 -0.11576877502E+02 -0.14500026433E+02  0.39234530336E+02  0.43400728449E+02  0.00000000000E+00 0.  1.
         11    1    3    3    0    0 -0.10534392806E+01  0.10103024284E+02 -0.22207966370E+02  0.24420782226E+02  0.51100000000E-03 0. -1.
        -11    1    3    3    0    0  0.13085565937E+02  0.17868147415E+01 -0.15262469993E+02  0.20183352877E+02  0.51100000000E-03 0.  1.
        -12    1    3    3    0    0 -0.45524915439E+00  0.26101874081E+01 -0.17640939724E+01  0.31831364472E+01  0.00000000000E+00 0.  1.
</event>
<event>
 7    1  0.2834226E-010  0.4778727E+02  0.7816164E-02  0.1312668E+00
        -11   -1    0    0    0    0  0.00000000000E+00  0.00000000000E+00  0.45593999997E+02  0.45594000000E+02  0.51100000000E-03 0. -1.
         11   -1    0    0    0    0 -0.00000000000E+00 -0.00000000000E+00 -0.45593999997E+02  0.45594000000E+02  0.51100000000E-03 0.  1.
    9900012    2    1    2    0    0  0.22100124740E+02  0.22887152135E+02  0.29519247521E+02  0.47787271659E+02  0.20000002800E+02 0.  0.
        -12    1    1    2    0    0 -0.22100124740E+02 -0.22887152135E+02 -0.29519247521E+02  0.43400728341E+02  0.00000000000E+00 0.  1.
         11    1    3    3    0    0  0.42868709097E+01  0.10269578159E+02  0.16692581155E+02  0.20061997997E+02  0.51100000000E-03 0. -1.
        -11    1    3    3    0    0  0.72160168969E+01  0.38018599828E+01 -0.98032117282E+00  0.82149905081E+01  0.51100000000E-03 0.  1.
        -12    1    3    3    0    0  0.10597236933E+02  0.88157139936E+01  0.13806987539E+02  0.19510283154E+02  0.00000000000E+00 0.  1.
</event>
<event>
 7    1  0.2834226E-010  0.4778728E+02  0.7816164E-02  0.1312668E+00
        -11   -1    0    0    0    0  0.00000000000E+00  0.00000000000E+00  0.45593999997E+02  0.45594000000E+02  0.51100000000E-03 0.  1.
         11   -1    0    0    0    0 -0.00000000000E+00 -0.00000000000E+00 -0.45593999997E+02  0.45594000000E+02  0.51100000000E-03 0. -1.
    9900012    2    1    2    0    0  0.37467255998E+02 -0.89540716247E+01 -0.19991300854E+02  0.47787276728E+02  0.20000025912E+02 0.  0.
        -12    1    1    2    0    0 -0.37467255998E+02  0.89540716247E+01  0.19991300854E+02  0.43400723272E+02  0.00000000000E+00 0.  1.
         11    1    3    3    0    0  0.28349367402E+02 -0.42620154576E+01 -0.19725744934E+02  0.34798799136E+02  0.51100000000E-03 0. -1.
        -11    1    3    3    0    0  0.54776097993E+00 -0.28996933632E+01  0.24350132680E+01  0.38259055880E+01  0.51100000000E-03 0.  1.
         12    1    3    3    0    0  0.85701276160E+01 -0.17923628039E+01 -0.27005691888E+01  0.91625720035E+01  0.00000000000E+00 0. -1.
</event>
<event>
 7    1  0.2834226E-010  0.4778727E+02  0.7816164E-02  0.1312668E+00
        -11   -1    0    0    0    0  0.00000000000E+00  0.00000000000E+00  0.45593999997E+02  0.45594000000E+02  0.51100000000E-03 0.  1.
         11   -1    0    0    0    0 -0.00000000000E+00 -0.00000000000E+00 -0.45593999997E+02  0.45594000000E+02  0.51100000000E-03 0. -1.
    9900012    2    1    2    0    0 -0.99447971015E+01  0.41448924891E+02  0.81676857129E+01  0.47787268970E+02  0.19999990541E+02 0.  0.
        -12    1    1    2    0    0  0.99447971015E+01 -0.41448924891E+02 -0.81676857129E+01  0.43400731030E+02  0.00000000000E+00 0.  1.
         11    1    3    3    0    0 -0.34108775939E-01  0.55367534637E+01  0.47462928119E+01  0.72927428340E+01  0.51100000000E-03 0. -1.
        -11    1    3    3    0    0  0.74448611800E+00  0.15286407745E+02 -0.45206293287E+01  0.15958214534E+02  0.51100000000E-03 0.  1.
        -12    1    3    3    0    0 -0.10655174444E+02  0.20625763683E+02  0.79420222297E+01  0.24536311602E+02  0.00000000000E+00 0.  1.
</event>
<event>
 7    1  0.2834226E-010  0.4778727E+02  0.7816164E-02  0.1312668E+00
        -11   -1    0    0    0    0  0.00000000000E+00  0.00000000000E+00  0.45593999997E+02  0.45594000000E+02  0.51100000000E-03 0. -1.
         11   -1    0    0    0    0 -0.00000000000E+00 -0.00000000000E+00 -0.45593999997E+02  0.45594000000E+02  0.51100000000E-03 0.  1.
    9900012    2    1    2    0    0 -0.12472207312E+02 -0.80223545571E+01  0.40788589879E+02  0.47787271986E+02  0.20000004293E+02 0.  0.
        -12    1    1    2    0    0  0.12472207312E+02  0.80223545571E+01 -0.40788589879E+02  0.43400728014E+02  0.00000000000E+00 0.  1.
         11    1    3    3    0    0 -0.13515097661E+02 -0.57017571348E+01  0.33808834769E+02  0.36853835729E+02  0.51100000000E-03 0. -1.
        -11    1    3    3    0    0 -0.44286986337E+00 -0.24506113660E+00 -0.17585585957E+01  0.18299500736E+01  0.51100000000E-03 0.  1.
        -12    1    3    3    0    0  0.14857602131E+01 -0.20755362857E+01  0.87383137050E+01  0.91034861833E+01  0.00000000000E+00 0.  1.
</event>
<event>
 7    1  0.2834226E-010  0.4778728E+02  0.7816164E-02  0.1312668E+00
        -11   -1    0    0    0    0  0.00000000000E+00  0.00000000000E+00  0.45593999997E+02  0.45594000000E+02  0.51100000000E-03 0.  1.
         11   -1    0    0    0    0 -0.00000000000E+00 -0.00000000000E+00 -0.45593999997E+02  0.45594000000E+02  0.51100000000E-03 0. -1.
    9900012    2    1    2    0    0 -0.17918277578E+02  0.19628989696E+02 -0.34311236843E+02  0.47787275564E+02  0.20000020607E+02 0.  0.
        -12    1    1    2    0    0  0.17918277578E+02 -0.19628989696E+02  0.34311236843E+02  0.43400724436E+02  0.00000000000E+00 0.  1.
         11    1    3    3    0    0 -0.66888400276E+00  0.79378983726E+01 -0.79564506490E+01  0.11258896197E+02  0.51100000000E-03 0. -1.
        -11    1    3    3    0    0 -0.13274128181E+02  0.37141567686E+00 -0.14503655225E+02  0.19664598742E+02  0.51100000000E-03 0.  1.
        -12    1    3    3    0    0 -0.39752653949E+01  0.11319675647E+02 -0.11851130970E+02  0.16863780625E+02  0.00000000000E+00 0.  1.
</event>
<event>
 7    1  0.2834226E-010  0.4778727E+02  0.7816164E-02  0.1312668E+00
        -11   -1    0    0    0    0  0.00000000000E+00  0.00000000000E+00  0.45593999997E+02  0.45594000000E+02  0.51100000000E-03 0.  1.
         11   -1    0    0    0    0 -0.00000000000E+00 -0.00000000000E+00 -0.45593999997E+02  0.45594000000E+02  0.51100000000E-03 0. -1.
    9900012    2    1    2    0    0  0.14681931749E+02 -0.37140628979E+02 -0.16989343230E+02  0.47787271616E+02  0.20000002608E+02 0.  0.
        -12    1    1    2    0    0 -0.14681931749E+02  0.37140628979E+02  0.16989343230E+02  0.43400728384E+02  0.00000000000E+00 0.  1.
         11    1    3    3    0    0  0.14153599799E+02 -0.22758457704E+02 -0.61045667243E+01  0.27487042756E+02  0.51100000000E-03 0. -1.
        -11    1    3    3    0    0 -0.17688320705E+01  0.40112133567E+00 -0.25645087801E-01  0.18139247921E+01  0.51100000000E-03 0.  1.
         12    1    3    3    0    0  0.22971640207E+01 -0.14783292611E+02 -0.10859131417E+02  0.18486304068E+02  0.00000000000E+00 0. -1.
</event>
<event>
 7    1  0.2834226E-010  0.4778727E+02  0.7816164E-02  0.1312668E+00
        -11   -1    0    0    0    0  0.00000000000E+00  0.00000000000E+00  0.45593999997E+02  0.45594000000E+02  0.51100000000E-03 0.  1.
         11   -1    0    0    0    0 -0.00000000000E+00 -0.00000000000E+00 -0.45593999997E+02  0.45594000000E+02  0.51100000000E-03 0. -1.
    9900012    2    1    2    0    0 -0.22814534544E+02 -0.24499352530E+02 -0.27620681456E+02  0.47787270686E+02  0.19999998367E+02 0.  0.
        -12    1    1    2    0    0  0.22814534544E+02  0.24499352530E+02  0.27620681456E+02  0.43400729314E+02  0.00000000000E+00 0.  1.
         11    1    3    3    0    0 -0.24993627054E+01  0.31135287205E+01 -0.18764988088E+01  0.44115896304E+01  0.51100000000E-03 0.  1.
        -11    1    3    3    0    0 -0.18886634290E+02 -0.22076270230E+02 -0.20004314107E+02  0.35273775602E+02  0.51100000000E-03 0. -1.
         12    1    3    3    0    0 -0.14285375487E+01 -0.55366110201E+01 -0.57398685408E+01  0.81019054538E+01  0.00000000000E+00 0. -1.
</event>
<event>
 7    1  0.2834226E-010  0.4778727E+02  0.7816164E-02  0.1312668E+00
        -11   -1    0    0    0    0  0.00000000000E+00  0.00000000000E+00  0.45593999997E+02  0.45594000000E+02  0.51100000000E-03 0. -1.
         11   -1    0    0    0    0 -0.00000000000E+00 -0.00000000000E+00 -0.45593999997E+02  0.45594000000E+02  0.51100000000E-03 0.  1.
    9900012    2    1    2    0    0  0.34840465358E+01  0.26406610106E+02  0.34266241722E+02  0.47787274669E+02  0.20000016525E+02 0.  0.
        -12    1    1    2    0    0 -0.34840465358E+01 -0.26406610106E+02 -0.34266241722E+02  0.43400725331E+02  0.00000000000E+00 0.  1.
         11    1    3    3    0    0  0.72395645619E+01  0.11890397439E+02  0.66799347963E+01  0.15440672765E+02  0.51100000000E-03 0. -1.
        -11    1    3    3    0    0 -0.30374178720E+01  0.82250870467E+01  0.22743187362E+02  0.24374793043E+02  0.51100000000E-03 0.  1.
         12    1    3    3    0    0 -0.71810015416E+00  0.62911256203E+01  0.48431195632E+01  0.79718088603E+01  0.00000000000E+00 0. -1.
</event>
<event>
 7    1  0.2834226E-010  0.4778727E+02  0.7816164E-02  0.1312668E+00
        -11   -1    0    0    0    0  0.00000000000E+00  0.00000000000E+00  0.45593999997E+02  0.45594000000E+02  0.51100000000E-03 0.  1.
         11   -1    0    0    0    0 -0.00000000000E+00 -0.00000000000E+00 -0.45593999997E+02  0.45594000000E+02  0.51100000000E-03 0. -1.
    9900012    2    1    2    0    0 -0.51508146021E+01  0.19769536806E+02 -0.38291745783E+02  0.47787271069E+02  0.20000000113E+02 0.  0.
        -12    1    1    2    0    0  0.51508146021E+01 -0.19769536806E+02  0.38291745783E+02  0.43400728931E+02  0.00000000000E+00 0.  1.
         11    1    3    3    0    0  0.43285503899E+01  0.64722735624E+01 -0.15156085440E+02  0.17039178374E+02  0.51100000000E-03 0. -1.
        -11    1    3    3    0    0 -0.85266895037E+01  0.86362996004E+01 -0.71863320731E+01  0.14104377817E+02  0.51100000000E-03 0.  1.
        -12    1    3    3    0    0 -0.95267548831E+00  0.46609636431E+01 -0.15949328270E+02  0.16643714878E+02  0.00000000000E+00 0.  1.
</event>
<event>
 7    1  0.2834226E-010  0.4778727E+02  0.7816164E-02  0.1312668E+00
        -11   -1    0    0    0    0  0.00000000000E+00  0.00000000000E+00  0.45593999997E+02  0.45594000000E+02  0.51100000000E-03 0.  1.
         11   -1    0    0    0    0 -0.00000000000E+00 -0.00000000000E+00 -0.45593999997E+02  0.45594000000E+02  0.51100000000E-03 0. -1.
    9900012    2    1    2    0    0  0.48513192693E+01  0.45613238468E+01 -0.42886853060E+02  0.47787272595E+02  0.20000007068E+02 0.  0.
        -12    1    1    2    0    0 -0.48513192693E+01 -0.45613238468E+01  0.42886853060E+02  0.43400727405E+02  0.00000000000E+00 0.  1.
         11    1    3    3    0    0  0.67108968196E+00 -0.62551520917E+01 -0.14954203938E+02  0.16223609485E+02  0.51100000000E-03 0. -1.
        -11    1    3    3    0    0  0.32850587005E+01  0.54785685277E+01 -0.53226425782E+01  0.83148570676E+01  0.51100000000E-03 0.  1.
         12    1    3    3    0    0  0.89517088685E+00  0.53379074108E+01 -0.22610006544E+02  0.23248806042E+02  0.00000000000E+00 0. -1.
</event>
<event>
 7    1  0.2834226E-010  0.4778727E+02  0.7816164E-02  0.1312668E+00
        -11   -1    0    0    0    0  0.00000000000E+00  0.00000000000E+00  0.45593999997E+02  0.45594000000E+02  0.51100000000E-03 0.  1.
         11   -1    0    0    0    0 -0.00000000000E+00 -0.00000000000E+00 -0.45593999997E+02  0.45594000000E+02  0.51100000000E-03 0. -1.
    9900012    2    1    2    0    0 -0.62521026747E+01  0.41743813191E+02 -0.10098931733E+02  0.47787272474E+02  0.20000006519E+02 0.  0.
        -12    1    1    2    0    0  0.62521026747E+01 -0.41743813191E+02  0.10098931733E+02  0.43400727526E+02  0.00000000000E+00 0.  1.
         11    1    3    3    0    0 -0.26549542338E+01  0.14391528905E+02 -0.36915211330E+01  0.15092786845E+02  0.51100000000E-03 0. -1.
        -11    1    3    3    0    0 -0.63349884050E+01  0.11664207428E+02  0.37656607242E+01  0.13797319086E+02  0.51100000000E-03 0.  1.
        -12    1    3    3    0    0  0.27378399641E+01  0.15688076858E+02 -0.10173071325E+02  0.18897166543E+02  0.00000000000E+00 0.  1.
</event>
<event>
 7    1  0.2834226E-010  0.4778727E+02  0.7816164E-02  0.1312668E+00
        -11   -1    0    0    0    0  0.00000000000E+00  0.00000000000E+00  0.45593999997E+02  0.45594000000E+02  0.51100000000E-03 0.  1.
         11   -1    0    0    0    0 -0.00000000000E+00 -0.00000000000E+00 -0.45593999997E+02  0.45594000000E+02  0.51100000000E-03 0. -1.
    9900012    2    1    2    0    0 -0.11238083301E+01  0.66514052012E+01 -0.42873294443E+02  0.47787268293E+02  0.19999987454E+02 0.  0.
        -12    1    1    2    0    0  0.11238083301E+01 -0.66514052012E+01  0.42873294443E+02  0.43400731707E+02  0.00000000000E+00 0.  1.
         11    1    3    3    0    0 -0.21028040819E+01 -0.15581209978E+00  0.14728910766E+01  0.25720557540E+01  0.51100000000E-03 0.  1.
        -11    1    3    3    0    0  0.15423391273E+01  0.73014271744E+01 -0.32517651347E+02  0.33362962970E+02  0.51100000000E-03 0. -1.
        -12    1    3    3    0    0 -0.56334337542E+00 -0.49420987349E+00 -0.11828534173E+02  0.11852249569E+02  0.00000000000E+00 0.  1.
</event>
<event>
 7    1  0.2834226E-010  0.4778725E+02  0.7816164E-02  0.1312668E+00
        -11   -1    0    0    0    0  0.00000000000E+00  0.00000000000E+00  0.45593999997E+02  0.45594000000E+02  0.51100000000E-03 0.  1.
         11   -1    0    0    0    0 -0.00000000000E+00 -0.00000000000E+00 -0.45593999997E+02  0.45594000000E+02  0.51100000000E-03 0. -1.
    9900012    2    1    2    0    0 -0.68952375800E+01  0.13703186825E+02 -0.40599305704E+02  0.47787248231E+02  0.19999895985E+02 0.  0.
        -12    1    1    2    0    0  0.68952375800E+01 -0.13703186825E+02  0.40599305704E+02  0.43400751769E+02  0.00000000000E+00 0.  1.
         11    1    3    3    0    0 -0.61104363673E+00 -0.24467481422E+01 -0.91675191177E+01  0.95080680389E+01  0.51100000000E-03 0. -1.
        -11    1    3    3    0    0 -0.77965421505E+01  0.16449110074E+02 -0.31847260914E+02  0.36682520629E+02  0.51100000000E-03 0.  1.
        -12    1    3    3    0    0  0.15123482072E+01 -0.29917510731E+00  0.41547432704E+00  0.15966595633E+01  0.00000000000E+00 0.  1.
</event>
<event>
 7    1  0.2834226E-010  0.4778727E+02  0.7816164E-02  0.1312668E+00
        -11   -1    0    0    0    0  0.00000000000E+00  0.00000000000E+00  0.45593999997E+02  0.45594000000E+02  0.51100000000E-03 0. -1.
         11   -1    0    0    0    0 -0.00000000000E+00 -0.00000000000E+00 -0.45593999997E+02  0.45594000000E+02  0.51100000000E-03 0.  1.
    9900012    2    1    2    0    0  0.74937326856E+01 -0.23656841866E+02  0.35606474272E+02  0.47787271818E+02  0.20000003526E+02 0.  0.
        -12    1    1    2    0    0 -0.74937326856E+01  0.23656841866E+02 -0.35606474272E+02  0.43400728182E+02  0.00000000000E+00 0.  1.
         11    1    3    3    0    0 -0.25428974279E+01 -0.11238423174E+01  0.72236331328E+01  0.77401695576E+01  0.51100000000E-03 0.  1.
        -11    1    3    3    0    0  0.11118828209E+02 -0.14447542947E+02  0.25599855867E+02  0.31427893004E+02  0.51100000000E-03 0. -1.
        -12    1    3    3    0    0 -0.10821980960E+01 -0.80854566020E+01  0.27829852720E+01  0.86192092564E+01  0.00000000000E+00 0.  1.
</event>
<event>
 7    1  0.2834226E-010  0.4778727E+02  0.7816164E-02  0.1312668E+00
        -11   -1    0    0    0    0  0.00000000000E+00  0.00000000000E+00  0.45593999997E+02  0.45594000000E+02  0.51100000000E-03 0. -1.
         11   -1    0    0    0    0 -0.00000000000E+00 -0.00000000000E+00 -0.45593999997E+02  0.45594000000E+02  0.51100000000E-03 0.  1.
    9900012    2    1    2    0    0  0.17758597044E+01  0.37442555400E+02  0.21875208924E+02  0.47787269614E+02  0.19999993478E+02 0.  0.
        -12    1    1    2    0    0 -0.17758597044E+01 -0.37442555400E+02 -0.21875208924E+02  0.43400730386E+02  0.00000000000E+00 0.  1.
         11    1    3    3    0    0 -0.37533489012E+00  0.63743348535E+01  0.10756589478E+02  0.12509086240E+02  0.51100000000E-03 0. -1.
        -11    1    3    3    0    0 -0.37330959488E+01  0.18538213204E+02  0.27687306952E+01  0.19111965469E+02  0.51100000000E-03 0.  1.
        -12    1    3    3    0    0  0.58842905434E+01  0.12530007343E+02  0.83498887506E+01  0.16166217905E+02  0.00000000000E+00 0.  1.
</event>
<event>
 7    1  0.2834226E-010  0.4778727E+02  0.7816164E-02  0.1312668E+00
        -11   -1    0    0    0    0  0.00000000000E+00  0.00000000000E+00  0.45593999997E+02  0.45594000000E+02  0.51100000000E-03 0. -1.
         11   -1    0    0    0    0 -0.00000000000E+00 -0.00000000000E+00 -0.45593999997E+02  0.45594000000E+02  0.51100000000E-03 0.  1.
    9900012    2    1    2    0    0  0.41768247604E+02 -0.77334393491E+00 -0.11765984454E+02  0.47787274673E+02  0.20000016545E+02 0.  0.
        -12    1    1    2    0    0 -0.41768247604E+02  0.77334393491E+00  0.11765984454E+02  0.43400725327E+02  0.00000000000E+00 0.  1.
         11    1    3    3    0    0  0.31626614207E+02  0.48607848449E+01 -0.58531939185E+01  0.32528907680E+02  0.51100000000E-03 0. -1.
        -11    1    3    3    0    0  0.10852058170E+02 -0.63145039523E+01 -0.64735229377E+01  0.14126097344E+02  0.51100000000E-03 0.  1.
        -12    1    3    3    0    0 -0.71042477298E+00  0.68037517247E+00  0.56073240206E+00  0.11322696499E+01  0.00000000000E+00 0.  1.
</event>
<event>
 7    1  0.2834226E-010  0.4778727E+02  0.7816164E-02  0.1312668E+00
        -11   -1    0    0    0    0  0.00000000000E+00  0.00000000000E+00  0.45593999997E+02  0.45594000000E+02  0.51100000000E-03 0.  1.
         11   -1    0    0    0    0 -0.00000000000E+00 -0.00000000000E+00 -0.45593999997E+02  0.45594000000E+02  0.51100000000E-03 0. -1.
    9900012    2    1    2    0    0  0.36487427141E+02 -0.19707344493E+02 -0.12802781814E+02  0.47787274332E+02  0.20000014987E+02 0.  0.
        -12    1    1    2    0    0 -0.36487427141E+02  0.19707344493E+02  0.12802781814E+02  0.43400725668E+02  0.00000000000E+00 0.  1.
         11    1    3    3    0    0  0.13361478025E+02 -0.62206658541E+01 -0.41461567472E+01  0.15310662778E+02  0.51100000000E-03 0. -1.
        -11    1    3    3    0    0  0.14542830182E+02 -0.95191905831E+01 -0.13353507228E+02  0.21918600654E+02  0.51100000000E-03 0.  1.
        -12    1    3    3    0    0  0.85831189348E+01 -0.39674880557E+01  0.46968821613E+01  0.10558010900E+02  0.00000000000E+00 0.  1.
</event>
<event>
 7    1  0.2834226E-010  0.4778726E+02  0.7816164E-02  0.1312668E+00
        -11   -1    0    0    0    0  0.00000000000E+00  0.00000000000E+00  0.45593999997E+02  0.45594000000E+02  0.51100000000E-03 0.  1.
         11   -1    0    0    0    0 -0.00000000000E+00 -0.00000000000E+00 -0.45593999997E+02  0.45594000000E+02  0.51100000000E-03 0. -1.
    9900012    2    1    2    0    0 -0.33110303325E+02  0.27960431605E+02 -0.23549929926E+01  0.47787263672E+02  0.19999966386E+02 0.  0.
        -12    1    1    2    0    0  0.33110303325E+02 -0.27960431605E+02  0.23549929926E+01  0.43400736328E+02  0.00000000000E+00 0.  1.
         11    1    3    3    0    0 -0.18229820602E+02  0.17705206351E+02  0.28870442317E+01  0.25576077021E+02  0.51100000000E-03 0. -1.
        -11    1    3    3    0    0 -0.74453976932E+00  0.57509756066E+01 -0.45287695002E+01  0.73578402635E+01  0.51100000000E-03 0.  1.
         12    1    3    3    0    0 -0.14135942954E+02  0.45042496477E+01 -0.71326772398E+00  0.14853346388E+02  0.00000000000E+00 0. -1.
</event>
<event>
 7    1  0.2834226E-010  0.4778727E+02  0.7816164E-02  0.1312668E+00
        -11   -1    0    0    0    0  0.00000000000E+00  0.00000000000E+00  0.45593999997E+02  0.45594000000E+02  0.51100000000E-03 0. -1.
         11   -1    0    0    0    0 -0.00000000000E+00 -0.00000000000E+00 -0.45593999997E+02  0.45594000000E+02  0.51100000000E-03 0.  1.
    9900012    2    1    2    0    0 -0.21696110350E+02 -0.25683035716E+02  0.27446015334E+02  0.47787270909E+02  0.19999999383E+02 0.  0.
        -12    1    1    2    0    0  0.21696110350E+02  0.25683035716E+02 -0.27446015334E+02  0.43400729091E+02  0.00000000000E+00 0.  1.
         11    1    3    3    0    0 -0.47555040642E+01 -0.57168708026E+01  0.10255600556E+02  0.12667863818E+02  0.51100000000E-03 0. -1.
        -11    1    3    3    0    0 -0.79055956844E+01 -0.20037597082E+02  0.13001227307E+02  0.25160199755E+02  0.51100000000E-03 0.  1.
        -12    1    3    3    0    0 -0.90350106010E+01  0.71432167974E-01  0.41891874702E+01  0.99592073367E+01  0.00000000000E+00 0.  1.
</event>
<event>
 7    1  0.2834226E-010  0.4778727E+02  0.7816164E-02  0.1312668E+00
        -11   -1    0    0    0    0  0.00000000000E+00  0.00000000000E+00  0.45593999997E+02  0.45594000000E+02  0.51100000000E-03 0. -1.
         11   -1    0    0    0    0 -0.00000000000E+00 -0.00000000000E+00 -0.45593999997E+02  0.45594000000E+02  0.51100000000E-03 0.  1.
    9900012    2    1    2    0    0  0.42026901125E+02  0.10526660688E+02 -0.25597509586E+01  0.47787270417E+02  0.19999997138E+02 0.  0.
        -12    1    1    2    0    0 -0.42026901125E+02 -0.10526660688E+02  0.25597509586E+01  0.43400729583E+02  0.00000000000E+00 0.  1.
         11    1    3    3    0    0  0.33242117852E+01  0.17198752147E+01  0.36226796270E+01  0.52088542587E+01  0.51100000000E-03 0. -1.
        -11    1    3    3    0    0  0.16895592596E+02  0.20971876191E+01 -0.95412856944E+01  0.19516541139E+02  0.51100000000E-03 0.  1.
        -12    1    3    3    0    0  0.21807096743E+02  0.67095978545E+01  0.33588551088E+01  0.23061875019E+02  0.00000000000E+00 0.  1.
</event>
<event>
 7    1  0.2834226E-010  0.4778727E+02  0.7816164E-02  0.1312668E+00
        -11   -1    0    0    0    0  0.00000000000E+00  0.00000000000E+00  0.45593999997E+02  0.45594000000E+02  0.51100000000E-03 0.  1.
         11   -1    0    0    0    0 -0.00000000000E+00 -0.00000000000E+00 -0.45593999997E+02  0.45594000000E+02  0.51100000000E-03 0. -1.
    9900012    2    1    2    0    0 -0.13801809874E+02 -0.39129617737E+02 -0.12728158779E+02  0.47787274591E+02  0.20000016172E+02 0.  0.
        -12    1    1    2    0    0  0.13801809874E+02  0.39129617737E+02  0.12728158779E+02  0.43400725409E+02  0.00000000000E+00 0.  1.
         11    1    3    3    0    0 -0.11131224994E+02 -0.91583357479E+01 -0.93610072319E+01  0.17187429715E+02  0.51100000000E-03 0. -1.
        -11    1    3    3    0    0 -0.30336372203E+01 -0.29713464463E+02 -0.29916640869E+01  0.30017377958E+02  0.51100000000E-03 0.  1.
         12    1    3    3    0    0  0.36305234019E+00 -0.25781752620E+00 -0.37548746032E+00  0.58246691871E+00  0.00000000000E+00 0. -1.
</event>
<event>
 7    1  0.2834226E-010  0.4778728E+02  0.7816164E-02  0.1312668E+00
        -11   -1    0    0    0    0  0.00000000000E+00  0.00000000000E+00  0.45593999997E+02  0.45594000000E+02  0.51100000000E-03 0.  1.
         11   -1    0    0    0    0 -0.00000000000E+00 -0.00000000000E+00 -0.45593999997E+02  0.45594000000E+02  0.51100000000E-03 0. -1.
    9900012    2    1    2    0    0  0.40593142045E+01  0.29363742404E+02 -0.31700391013E+02  0.47787283529E+02  0.20000056924E+02 0.  0.
        -12    1    1    2    0    0 -0.40593142045E+01 -0.29363742404E+02  0.31700391013E+02  0.43400716471E+02  0.00000000000E+00 0.  1.
         11    1    3    3    0    0 -0.39936750413E+00  0.16197735654E+02 -0.39693998801E+01  0.16681794579E+02  0.51100000000E-03 0. -1.
        -11    1    3    3    0    0  0.52781313285E-01  0.15003945677E+00 -0.13578240940E+01  0.13671079830E+01  0.51100000000E-03 0.  1.
         12    1    3    3    0    0  0.44059003954E+01  0.13015967293E+02 -0.26373167039E+02  0.29738380967E+02  0.00000000000E+00 0. -1.
</event>
<event>
 7    1  0.2834226E-010  0.4778727E+02  0.7816164E-02  0.1312668E+00
        -11   -1    0    0    0    0  0.00000000000E+00  0.00000000000E+00  0.45593999997E+02  0.45594000000E+02  0.51100000000E-03 0. -1.
         11   -1    0    0    0    0 -0.00000000000E+00 -0.00000000000E+00 -0.45593999997E+02  0.45594000000E+02  0.51100000000E-03 0.  1.
    9900012    2    1    2    0    0 -0.34651195652E+02 -0.10619144486E+01  0.26111114238E+02  0.47787270638E+02  0.19999998145E+02 0.  0.
        -12    1    1    2    0    0  0.34651195652E+02  0.10619144486E+01 -0.26111114238E+02  0.43400729362E+02  0.00000000000E+00 0.  1.
         11    1    3    3    0    0 -0.26640588325E+01  0.37003537353E+01  0.91693889934E+01  0.10240484461E+02  0.51100000000E-03 0. -1.
        -11    1    3    3    0    0 -0.57701633948E+01  0.18285894993E+01  0.91905348288E+00  0.61223512416E+01  0.51100000000E-03 0.  1.
         12    1    3    3    0    0 -0.26216973425E+02 -0.65908576832E+01  0.16022671762E+02  0.31424434935E+02  0.00000000000E+00 0. -1.
</event>
<event>
 7    1  0.2834226E-010  0.4778727E+02  0.7816164E-02  0.1312668E+00
        -11   -1    0    0    0    0  0.00000000000E+00  0.00000000000E+00  0.45593999997E+02  0.45594000000E+02  0.51100000000E-03 0.  1.
         11   -1    0    0    0    0 -0.00000000000E+00 -0.00000000000E+00 -0.45593999997E+02  0.45594000000E+02  0.51100000000E-03 0. -1.
    9900012    2    1    2    0    0  0.22311806015E+02  0.31254125379E+02 -0.20223404541E+02  0.47787272678E+02  0.20000007447E+02 0.  0.
        -12    1    1    2    0    0 -0.22311806015E+02 -0.31254125379E+02  0.20223404541E+02  0.43400727322E+02  0.00000000000E+00 0.  1.
         11    1    3    3    0    0  0.24921358181E+01  0.57117287480E+01  0.27063992061E+01  0.67940549859E+01  0.51100000000E-03 0.  1.
        -11    1    3    3    0    0  0.92840615902E+01  0.12639234304E+02 -0.48640065377E+01  0.16419579874E+02  0.51100000000E-03 0. -1.
         12    1    3    3    0    0  0.10535608607E+02  0.12903162327E+02 -0.18065797210E+02  0.24573637817E+02  0.00000000000E+00 0. -1.
</event>
<event>
 7    1  0.2834226E-010  0.4778727E+02  0.7816164E-02  0.1312668E+00
        -11   -1    0    0    0    0  0.00000000000E+00  0.00000000000E+00  0.45593999997E+02  0.45594000000E+02  0.51100000000E-03 0.  1.
         11   -1    0    0    0    0 -0.00000000000E+00 -0.00000000000E+00 -0.45593999997E+02  0.45594000000E+02  0.51100000000E-03 0. -1.
    9900012    2    1    2    0    0  0.36944855607E+02  0.20872929560E+02 -0.91116214151E+01  0.47787272021E+02  0.20000004455E+02 0.  0.
        -12    1    1    2    0    0 -0.36944855607E+02 -0.20872929560E+02  0.91116214151E+01  0.43400727979E+02  0.00000000000E+00 0.  1.
         11    1    3    3    0    0  0.29236409273E+01  0.51210548371E+01 -0.28652349166E+01  0.65561002360E+01  0.51100000000E-03 0. -1.
        -11    1    3    3    0    0  0.20583639971E+02  0.13194691198E+02 -0.10918080785E+02  0.26776680126E+02  0.51100000000E-03 0.  1.
        -12    1    3    3    0    0  0.13437574709E+02  0.25571835251E+01  0.46716942865E+01  0.14454491660E+02  0.00000000000E+00 0.  1.
</event>
<event>
 7    1  0.2834226E-010  0.4778727E+02  0.7816164E-02  0.1312668E+00
        -11   -1    0    0    0    0  0.00000000000E+00  0.00000000000E+00  0.45593999997E+02  0.45594000000E+02  0.51100000000E-03 0. -1.
         11   -1    0    0    0    0 -0.00000000000E+00 -0.00000000000E+00 -0.45593999997E+02  0.45594000000E+02  0.51100000000E-03 0.  1.
    9900012    2    1    2    0    0  0.11538753250E+02  0.12165646689E+02  0.40030956467E+02  0.47787271185E+02  0.20000000643E+02 0.  0.
        -12    1    1    2    0    0 -0.11538753250E+02 -0.12165646689E+02 -0.40030956467E+02  0.43400728815E+02  0.00000000000E+00 0.  1.
         11    1    3    3    0    0  0.59890255090E+01  0.20325008470E+01  0.11379611667E+02  0.13019026392E+02  0.51100000000E-03 0. -1.
        -11    1    3    3    0    0  0.43051445226E+01  0.24300554324E+01 -0.13259592797E+00  0.49454039983E+01  0.51100000000E-03 0.  1.
        -12    1    3    3    0    0  0.12445832189E+01  0.77030904097E+01  0.28783940728E+02  0.29822840795E+02  0.00000000000E+00 0.  1.
</event>
<event>
 7    1  0.2834226E-010  0.4778727E+02  0.7816164E-02  0.1312668E+00
        -11   -1    0    0    0    0  0.00000000000E+00  0.00000000000E+00  0.45593999997E+02  0.45594000000E+02  0.51100000000E-03 0.  1.
         11   -1    0    0    0    0 -0.00000000000E+00 -0.00000000000E+00 -0.45593999997E+02  0.45594000000E+02  0.51100000000E-03 0. -1.
    9900012    2    1    2    0    0  0.75508057615E+01 -0.19806178297E+02 -0.37872469362E+02  0.47787270721E+02  0.19999998525E+02 0.  0.
        -12    1    1    2    0    0 -0.75508057615E+01  0.19806178297E+02  0.37872469362E+02  0.43400729279E+02  0.00000000000E+00 0.  1.
         11    1    3    3    0    0  0.40396665460E+01 -0.95048783712E+01 -0.28793403032E+02  0.30589568109E+02  0.51100000000E-03 0. -1.
        -11    1    3    3    0    0  0.19319427397E+01 -0.31818082830E+01  0.17729162375E+01  0.41230497142E+01  0.51100000000E-03 0.  1.
        -12    1    3    3    0    0  0.15791964758E+01 -0.71194916425E+01 -0.10851982567E+02  0.13074652898E+02  0.00000000000E+00 0.  1.
</event>
<event>
 7    1  0.2834226E-010  0.4778727E+02  0.7816164E-02  0.1312668E+00
        -11   -1    0    0    0    0  0.00000000000E+00  0.00000000000E+00  0.45593999997E+02  0.45594000000E+02  0.51100000000E-03 0.  1.
         11   -1    0    0    0    0 -0.00000000000E+00 -0.00000000000E+00 -0.45593999997E+02  0.45594000000E+02  0.51100000000E-03 0. -1.
    9900012    2    1    2    0    0 -0.18022460021E+02 -0.58098506946E+01 -0.39052015216E+02  0.47787270482E+02  0.19999997433E+02 0.  0.
        -12    1    1    2    0    0  0.18022460021E+02  0.58098506946E+01  0.39052015216E+02  0.43400729518E+02  0.00000000000E+00 0.  1.
         11    1    3    3    0    0 -0.11537184143E+02  0.11420433802E+00 -0.24891148348E+02  0.27435176816E+02  0.51100000000E-03 0. -1.
        -11    1    3    3    0    0 -0.41156902173E+01 -0.93170606914E+01 -0.11798085653E+02  0.15586575995E+02  0.51100000000E-03 0.  1.
        -12    1    3    3    0    0 -0.23695856602E+01  0.33930056588E+01 -0.23627812148E+01  0.47655176708E+01  0.00000000000E+00 0.  1.
</event>
<event>
 7    1  0.2834226E-010  0.4778726E+02  0.7816164E-02  0.1312668E+00
        -11   -1    0    0    0    0  0.00000000000E+00  0.00000000000E+00  0.45593999997E+02  0.45594000000E+02  0.51100000000E-03 0.  1.
         11   -1    0    0    0    0 -0.00000000000E+00 -0.00000000000E+00 -0.45593999997E+02  0.45594000000E+02  0.51100000000E-03 0. -1.
    9900012    2    1    2    0    0 -0.73537986700E+01  0.39863620230E+02 -0.15506059869E+02  0.47787257317E+02  0.19999937412E+02 0.  0.
        -12    1    1    2    0    0  0.73537986700E+01 -0.39863620230E+02  0.15506059869E+02  0.43400742683E+02  0.00000000000E+00 0.  1.
         11    1    3    3    0    0 -0.95135354690E+01  0.32600613238E+02 -0.11365945787E+02  0.35811898365E+02  0.51100000000E-03 0. -1.
        -11    1    3    3    0    0  0.52416782687E+01  0.57742886260E+01 -0.25835937033E+01  0.82153853770E+01  0.51100000000E-03 0.  1.
        -12    1    3    3    0    0 -0.30819414697E+01  0.14887183662E+01 -0.15565203783E+01  0.37599735750E+01  0.00000000000E+00 0.  1.
</event>
<event>
 7    1  0.2834226E-010  0.4778727E+02  0.7816164E-02  0.1312668E+00
        -11   -1    0    0    0    0  0.00000000000E+00  0.00000000000E+00  0.45593999997E+02  0.45594000000E+02  0.51100000000E-03 0.  1.
         11   -1    0    0    0    0 -0.00000000000E+00 -0.00000000000E+00 -0.45593999997E+02  0.45594000000E+02  0.51100000000E-03 0. -1.
    9900012    2    1    2    0    0  0.19033580981E+02  0.10605140070E+02 -0.37535009992E+02  0.47787272172E+02  0.20000005143E+02 0.  0.
        -12    1    1    2    0    0 -0.19033580981E+02 -0.10605140070E+02  0.37535009992E+02  0.43400727828E+02  0.00000000000E+00 0.  1.
         11    1    3    3    0    0  0.18493484468E+02  0.78298934340E+01 -0.16480314776E+02  0.25979164235E+02  0.51100000000E-03 0. -1.
        -11    1    3    3    0    0  0.18841347557E+01  0.15473682036E+01 -0.18561904472E+02  0.18721341032E+02  0.51100000000E-03 0.  1.
        -12    1    3    3    0    0 -0.13440382422E+01  0.12278784327E+01 -0.24927907436E+01  0.30867669062E+01  0.00000000000E+00 0.  1.
</event>
<event>
 7    1  0.2834226E-010  0.4778727E+02  0.7816164E-02  0.1312668E+00
        -11   -1    0    0    0    0  0.00000000000E+00  0.00000000000E+00  0.45593999997E+02  0.45594000000E+02  0.51100000000E-03 0.  1.
         11   -1    0    0    0    0 -0.00000000000E+00 -0.00000000000E+00 -0.45593999997E+02  0.45594000000E+02  0.51100000000E-03 0. -1.
    9900012    2    1    2    0    0  0.16384121596E+02  0.31456958928E+02 -0.25012861214E+02  0.47787274988E+02  0.20000017980E+02 0.  0.
        -12    1    1    2    0    0 -0.16384121596E+02 -0.31456958928E+02  0.25012861214E+02  0.43400725012E+02  0.00000000000E+00 0.  1.
         11    1    3    3    0    0  0.14918150552E+02  0.18891155352E+02 -0.11719815430E+02  0.26772766767E+02  0.51100000000E-03 0. -1.
        -11    1    3    3    0    0  0.31677232697E+00  0.12868025050E+02 -0.14452988238E+02  0.19353947470E+02  0.51100000000E-03 0.  1.
        -12    1    3    3    0    0  0.11491987173E+01 -0.30222147383E+00  0.11599424537E+01  0.16605607507E+01  0.00000000000E+00 0.  1.
</event>
<event>
 7    1  0.2834226E-010  0.4778727E+02  0.7816164E-02  0.1312668E+00
        -11   -1    0    0    0    0  0.00000000000E+00  0.00000000000E+00  0.45593999997E+02  0.45594000000E+02  0.51100000000E-03 0.  1.
         11   -1    0    0    0    0 -0.00000000000E+00 -0.00000000000E+00 -0.45593999997E+02  0.45594000000E+02  0.51100000000E-03 0. -1.
    9900012    2    1    2    0    0 -0.34922102162E+02  0.54904318519E+01 -0.25177868321E+02  0.47787272880E+02  0.20000008370E+02 0.  0.
        -12    1    1    2    0    0  0.34922102162E+02 -0.54904318519E+01  0.25177868321E+02  0.43400727120E+02  0.00000000000E+00 0.  1.
         11    1    3    3    0    0 -0.26993968106E+01  0.15414156773E-01 -0.95721688930E+01  0.99455215205E+01  0.51100000000E-03 0. -1.
        -11    1    3    3    0    0 -0.27944857022E+02  0.77532994604E+00 -0.14102607230E+02  0.31311335031E+02  0.51100000000E-03 0.  1.
         12    1    3    3    0    0 -0.42778483295E+01  0.46996877490E+01 -0.15030921980E+01  0.65304163285E+01  0.00000000000E+00 0. -1.
</event>
<event>
 7    1  0.2834226E-010  0.4778727E+02  0.7816164E-02  0.1312668E+00
        -11   -1    0    0    0    0  0.00000000000E+00  0.00000000000E+00  0.45593999997E+02  0.45594000000E+02  0.51100000000E-03 0.  1.
         11   -1    0    0    0    0 -0.00000000000E+00 -0.00000000000E+00 -0.45593999997E+02  0.45594000000E+02  0.51100000000E-03 0. -1.
    9900012    2    1    2    0    0  0.23306752423E+02 -0.31217984084E+02 -0.19127361798E+02  0.47787271802E+02  0.20000003452E+02 0.  0.
        -12    1    1    2    0    0 -0.23306752423E+02  0.31217984084E+02  0.19127361798E+02  0.43400728198E+02  0.00000000000E+00 0.  1.
         11    1    3    3    0    0  0.20810512822E+00 -0.14559804424E+02 -0.35646719669E+01  0.14991267428E+02  0.51100000000E-03 0. -1.
        -11    1    3    3    0    0  0.15915031033E+02 -0.13921584744E+02 -0.12132534703E+02  0.24378210212E+02  0.51100000000E-03 0.  1.
        -12    1    3    3    0    0  0.71836162627E+01 -0.27365949154E+01 -0.34301551287E+01  0.84177941616E+01  0.00000000000E+00 0.  1.
</event>
<event>
 7    1  0.2834226E-010  0.4778727E+02  0.7816164E-02  0.1312668E+00
        -11   -1    0    0    0    0  0.00000000000E+00  0.00000000000E+00  0.45593999997E+02  0.45594000000E+02  0.51100000000E-03 0.  1.
         11   -1    0    0    0    0 -0.00000000000E+00 -0.00000000000E+00 -0.45593999997E+02  0.45594000000E+02  0.51100000000E-03 0. -1.
    9900012    2    1    2    0    0  0.27697925931E+02 -0.33391237253E+02  0.12138494057E+01  0.47787271244E+02  0.20000000909E+02 0.  0.
        -12    1    1    2    0    0 -0.27697925931E+02  0.33391237253E+02 -0.12138494057E+01  0.43400728756E+02  0.00000000000E+00 0.  1.
         11    1    3    3    0    0  0.84782689966E+01 -0.10729921365E+01 -0.12701969627E+01  0.86397776528E+01  0.51100000000E-03 0.  1.
        -11    1    3    3    0    0  0.56080152007E+01 -0.18887907500E+02 -0.92242369504E+00  0.19724445491E+02  0.51100000000E-03 0. -1.
         12    1    3    3    0    0  0.13611641733E+02 -0.13430337617E+02  0.34064700634E+01  0.19423048100E+02  0.00000000000E+00 0. -1.
</event>
<event>
 7    1  0.2834226E-010  0.4778728E+02  0.7816164E-02  0.1312668E+00
        -11   -1    0    0    0    0  0.00000000000E+00  0.00000000000E+00  0.45593999997E+02  0.45594000000E+02  0.51100000000E-03 0.  1.
         11   -1    0    0    0    0 -0.00000000000E+00 -0.00000000000E+00 -0.45593999997E+02  0.45594000000E+02  0.51100000000E-03 0. -1.
    9900012    2    1    2    0    0  0.70003461138E+01  0.49922389483E+01 -0.42540511322E+02  0.47787281124E+02  0.20000045956E+02 0.  0.
        -12    1    1    2    0    0 -0.70003461138E+01 -0.49922389483E+01  0.42540511322E+02  0.43400718876E+02  0.00000000000E+00 0.  1.
         11    1    3    3    0    0  0.41433919816E+01  0.19226745009E+00 -0.31965358860E+02  0.32233349674E+02  0.51100000000E-03 0. -1.
        -11    1    3    3    0    0 -0.27713520833E+01  0.15908638208E+01 -0.51643857457E-01  0.31959204332E+01  0.51100000000E-03 0.  1.
         12    1    3    3    0    0  0.56283062156E+01  0.32091076775E+01 -0.10523508605E+02  0.12358011017E+02  0.00000000000E+00 0. -1.
</event>
<event>
 7    1  0.2834226E-010  0.4778725E+02  0.7816164E-02  0.1312668E+00
        -11   -1    0    0    0    0  0.00000000000E+00  0.00000000000E+00  0.45593999997E+02  0.45594000000E+02  0.51100000000E-03 0.  1.
         11   -1    0    0    0    0 -0.00000000000E+00 -0.00000000000E+00 -0.45593999997E+02  0.45594000000E+02  0.51100000000E-03 0. -1.
    9900012    2    1    2    0    0  0.41697403316E+02 -0.87829940303E+01 -0.82347237102E+01  0.47787249983E+02  0.19999903973E+02 0.  0.
        -12    1    1    2    0    0 -0.41697403316E+02  0.87829940303E+01  0.82347237102E+01  0.43400750017E+02  0.00000000000E+00 0.  1.
         11    1    3    3    0    0  0.10162015711E+01  0.14922938349E+01 -0.21949226004E+01  0.28420577062E+01  0.51100000000E-03 0. -1.
        -11    1    3    3    0    0  0.40410687447E+02 -0.86256894851E+01 -0.29425789839E+01  0.41425655703E+02  0.51100000000E-03 0.  1.
        -12    1    3    3    0    0  0.27051429775E+00 -0.16495983801E+01 -0.30972221258E+01  0.35195365743E+01  0.00000000000E+00 0.  1.
</event>
<event>
 7    1  0.2834226E-010  0.4778726E+02  0.7816164E-02  0.1312668E+00
        -11   -1    0    0    0    0  0.00000000000E+00  0.00000000000E+00  0.45593999997E+02  0.45594000000E+02  0.51100000000E-03 0.  1.
         11   -1    0    0    0    0 -0.00000000000E+00 -0.00000000000E+00 -0.45593999997E+02  0.45594000000E+02  0.51100000000E-03 0. -1.
    9900012    2    1    2    0    0  0.16070533896E+02 -0.25151634378E+02 -0.31508057575E+02  0.47787257337E+02  0.19999937501E+02 0.  0.
        -12    1    1    2    0    0 -0.16070533896E+02  0.25151634378E+02  0.31508057575E+02  0.43400742663E+02  0.00000000000E+00 0.  1.
         11    1    3    3    0    0  0.84771851336E+01 -0.18425885199E+02 -0.24345881378E+02  0.31687503112E+02  0.51100000000E-03 0. -1.
        -11    1    3    3    0    0  0.89285243368E+01 -0.79548194515E+01 -0.42941428196E+01  0.12705800335E+02  0.51100000000E-03 0.  1.
         12    1    3    3    0    0 -0.13351755747E+01  0.12290702725E+01 -0.28680333777E+01  0.33939538897E+01  0.00000000000E+00 0. -1.
</event>
<event>
 7    1  0.2834226E-010  0.4778727E+02  0.7816164E-02  0.1312668E+00
        -11   -1    0    0    0    0  0.00000000000E+00  0.00000000000E+00  0.45593999997E+02  0.45594000000E+02  0.51100000000E-03 0.  1.
         11   -1    0    0    0    0 -0.00000000000E+00 -0.00000000000E+00 -0.45593999997E+02  0.45594000000E+02  0.51100000000E-03 0. -1.
    9900012    2    1    2    0    0  0.30330664477E+02  0.96074348425E+00 -0.31028229877E+02  0.47787270917E+02  0.19999999417E+02 0.  0.
        -12    1    1    2    0    0 -0.30330664477E+02 -0.96074348425E+00  0.31028229877E+02  0.43400729083E+02  0.00000000000E+00 0.  1.
         11    1    3    3    0    0  0.18322135045E+02 -0.18113414442E+01 -0.75342346394E+01  0.19893372823E+02  0.51100000000E-03 0. -1.
        -11    1    3    3    0    0  0.16866240647E+01 -0.18747543467E+01 -0.98393730841E+01  0.10157394722E+02  0.51100000000E-03 0.  1.
         12    1    3    3    0    0  0.10321905367E+02  0.46468392751E+01 -0.13654622154E+02  0.17736503371E+02  0.00000000000E+00 0. -1.
</event>
<event>
 7    1  0.2834226E-010  0.4778727E+02  0.7816164E-02  0.1312668E+00
        -11   -1    0    0    0    0  0.00000000000E+00  0.00000000000E+00  0.45593999997E+02  0.45594000000E+02  0.51100000000E-03 0.  1.
         11   -1    0    0    0    0 -0.00000000000E+00 -0.00000000000E+00 -0.45593999997E+02  0.45594000000E+02  0.51100000000E-03 0. -1.
    9900012    2    1    2    0    0  0.20541322777E+02 -0.38115935865E+02 -0.29753607949E+01  0.47787270972E+02  0.19999999668E+02 0.  0.
        -12    1    1    2    0    0 -0.20541322777E+02  0.38115935865E+02  0.29753607949E+01  0.43400729028E+02  0.00000000000E+00 0.  1.
         11    1    3    3    0    0  0.11033768461E+01 -0.12384401891E+02 -0.67571262102E-02  0.12433458754E+02  0.51100000000E-03 0. -1.
        -11    1    3    3    0    0  0.19380549091E+02 -0.16848521888E+02 -0.51844678579E+01  0.26198417511E+02  0.51100000000E-03 0.  1.
        -12    1    3    3    0    0  0.57396840193E-01 -0.88830120864E+01  0.22158641892E+01  0.91553947064E+01  0.00000000000E+00 0.  1.
</event>
<event>
 7    1  0.2834226E-010  0.4778727E+02  0.7816164E-02  0.1312668E+00
        -11   -1    0    0    0    0  0.00000000000E+00  0.00000000000E+00  0.45593999997E+02  0.45594000000E+02  0.51100000000E-03 0. -1.
         11   -1    0    0    0    0 -0.00000000000E+00 -0.00000000000E+00 -0.45593999997E+02  0.45594000000E+02  0.51100000000E-03 0.  1.
    9900012    2    1    2    0    0  0.27001341591E+02  0.26284738858E+02  0.21532846701E+02  0.47787269228E+02  0.19999991717E+02 0.  0.
        -12    1    1    2    0    0 -0.27001341591E+02 -0.26284738858E+02 -0.21532846701E+02  0.43400730772E+02  0.00000000000E+00 0.  1.
         11    1    3    3    0    0  0.25846721508E+02  0.23096551673E+02  0.21419476620E+02  0.40746750678E+02  0.51100000000E-03 0. -1.
        -11    1    3    3    0    0  0.18889125080E-02  0.39964642421E+01 -0.20250622397E+01  0.44802463484E+01  0.51100000000E-03 0.  1.
         12    1    3    3    0    0  0.11527311707E+01 -0.80827705766E+00  0.21384323206E+01  0.25602722011E+01  0.00000000000E+00 0. -1.
</event>
<event>
 7    1  0.2834226E-010  0.4778727E+02  0.7816164E-02  0.1312668E+00
        -11   -1    0    0    0    0  0.00000000000E+00  0.00000000000E+00  0.45593999997E+02  0.45594000000E+02  0.51100000000E-03 0.  1.
         11   -1    0    0    0    0 -0.00000000000E+00 -0.00000000000E+00 -0.45593999997E+02  0.45594000000E+02  0.51100000000E-03 0. -1.
    9900012    2    1    2    0    0 -0.22296824245E+01 -0.17808525567E+02 -0.39515921313E+02  0.47787273004E+02  0.20000008933E+02 0.  0.
        -12    1    1    2    0    0  0.22296824245E+01  0.17808525567E+02  0.39515921313E+02  0.43400726996E+02  0.00000000000E+00 0.  1.
         11    1    3    3    0    0 -0.56394646311E+01 -0.41940065378E+01 -0.65540981734E+01  0.96098623971E+01  0.51100000000E-03 0.  1.
        -11    1    3    3    0    0  0.50644200904E+01 -0.98179857401E+01 -0.32099301311E+02  0.33947110919E+02  0.51100000000E-03 0. -1.
         12    1    3    3    0    0 -0.16546378839E+01 -0.37965332891E+01 -0.86252182925E+00  0.42302996878E+01  0.00000000000E+00 0. -1.
</event>
<event>
 7    1  0.2834226E-010  0.4778727E+02  0.7816164E-02  0.1312668E+00
        -11   -1    0    0    0    0  0.00000000000E+00  0.00000000000E+00  0.45593999997E+02  0.45594000000E+02  0.51100000000E-03 0. -1.
         11   -1    0    0    0    0 -0.00000000000E+00 -0.00000000000E+00 -0.45593999997E+02  0.45594000000E+02  0.51100000000E-03 0.  1.
    9900012    2    1    2    0    0  0.36284592072E+02  0.17251747754E+02  0.16414293976E+02  0.47787268795E+02  0.19999989745E+02 0.  0.
        -12    1    1    2    0    0 -0.36284592072E+02 -0.17251747754E+02 -0.16414293976E+02  0.43400731205E+02  0.00000000000E+00 0.  1.
         11    1    3    3    0    0  0.76552463702E+01  0.35299474272E+01  0.32099611920E+01  0.90203756541E+01  0.51100000000E-03 0. -1.
        -11    1    3    3    0    0  0.27411019410E+02  0.17332419801E+02  0.13034544470E+02  0.34952483618E+02  0.51100000000E-03 0.  1.
        -12    1    3    3    0    0  0.12183262915E+01 -0.36106194739E+01  0.16978831358E+00  0.38144095230E+01  0.00000000000E+00 0.  1.
</event>
<event>
 7    1  0.2834226E-010  0.4778727E+02  0.7816164E-02  0.1312668E+00
        -11   -1    0    0    0    0  0.00000000000E+00  0.00000000000E+00  0.45593999997E+02  0.45594000000E+02  0.51100000000E-03 0.  1.
         11   -1    0    0    0    0 -0.00000000000E+00 -0.00000000000E+00 -0.45593999997E+02  0.45594000000E+02  0.51100000000E-03 0. -1.
    9900012    2    1    2    0    0 -0.15552893843E+02  0.15638904374E+02 -0.37378540441E+02  0.47787272789E+02  0.20000007955E+02 0.  0.
        -12    1    1    2    0    0  0.15552893843E+02 -0.15638904374E+02  0.37378540441E+02  0.43400727211E+02  0.00000000000E+00 0.  1.
         11    1    3    3    0    0 -0.41347055324E+01 -0.19872028067E+00 -0.29529623101E+01  0.50848073961E+01  0.51100000000E-03 0. -1.
        -11    1    3    3    0    0 -0.12700680382E+02  0.46098453575E+01 -0.22705619169E+02  0.26421640723E+02  0.51100000000E-03 0.  1.
        -12    1    3    3    0    0  0.12824920716E+01  0.11227779297E+02 -0.11719958963E+02  0.16280824670E+02  0.00000000000E+00 0.  1.
</event>
<event>
 7    1  0.2834226E-010  0.4778727E+02  0.7816164E-02  0.1312668E+00
        -11   -1    0    0    0    0  0.00000000000E+00  0.00000000000E+00  0.45593999997E+02  0.45594000000E+02  0.51100000000E-03 0.  1.
         11   -1    0    0    0    0 -0.00000000000E+00 -0.00000000000E+00 -0.45593999997E+02  0.45594000000E+02  0.51100000000E-03 0. -1.
    9900012    2    1    2    0    0 -0.71529851297E+01  0.30132311726E+02 -0.30405627986E+02  0.47787267063E+02  0.19999981847E+02 0.  0.
        -12    1    1    2    0    0  0.71529851297E+01 -0.30132311726E+02  0.30405627986E+02  0.43400732937E+02  0.00000000000E+00 0.  1.
         11    1    3    3    0    0  0.43333048493E+01  0.67954651884E+01 -0.53426172028E+01  0.96695106847E+01  0.51100000000E-03 0. -1.
        -11    1    3    3    0    0 -0.81153600155E+01  0.87780638510E+01 -0.46677306951E+01  0.12833595882E+02  0.51100000000E-03 0.  1.
        -12    1    3    3    0    0 -0.33709299635E+01  0.14558782687E+02 -0.20395280088E+02  0.25284160497E+02  0.00000000000E+00 0.  1.
</event>
<event>
 7    1  0.2834226E-010  0.4778727E+02  0.7816164E-02  0.1312668E+00
        -11   -1    0    0    0    0  0.00000000000E+00  0.00000000000E+00  0.45593999997E+02  0.45594000000E+02  0.51100000000E-03 0.  1.
         11   -1    0    0    0    0 -0.00000000000E+00 -0.00000000000E+00 -0.45593999997E+02  0.45594000000E+02  0.51100000000E-03 0. -1.
    9900012    2    1    2    0    0 -0.20367247908E+02  0.19278715993E+02 -0.33122947671E+02  0.47787270282E+02  0.19999996523E+02 0.  0.
        -12    1    1    2    0    0  0.20367247908E+02 -0.19278715993E+02  0.33122947671E+02  0.43400729718E+02  0.00000000000E+00 0.  1.
         11    1    3    3    0    0 -0.18835098648E+02  0.90811950226E+01 -0.21724993751E+02  0.30153016397E+02  0.51100000000E-03 0. -1.
        -11    1    3    3    0    0 -0.38992242094E+01  0.38289040444E+01 -0.15690526006E+01  0.56856294235E+01  0.51100000000E-03 0.  1.
         12    1    3    3    0    0  0.23670749496E+01  0.63686169255E+01 -0.98289013195E+01  0.11948624461E+02  0.00000000000E+00 0. -1.
</event>
<event>
 7    1  0.2834226E-010  0.4778727E+02  0.7816164E-02  0.1312668E+00
        -11   -1    0    0    0    0  0.00000000000E+00  0.00000000000E+00  0.45593999997E+02  0.45594000000E+02  0.51100000000E-03 0.  1.
         11   -1    0    0    0    0 -0.00000000000E+00 -0.00000000000E+00 -0.45593999997E+02  0.45594000000E+02  0.51100000000E-03 0. -1.
    9900012    2    1    2    0    0 -0.70253747964E+01 -0.42348654071E+02 -0.63921019229E+01  0.47787270057E+02  0.19999995496E+02 0.  0.
        -12    1    1    2    0    0  0.70253747964E+01  0.42348654071E+02  0.63921019229E+01  0.43400729943E+02  0.00000000000E+00 0.  1.
         11    1    3    3    0    0 -0.95383589108E+01 -0.30645618872E+02 -0.45432265922E+00  0.32098919859E+02  0.51100000000E-03 0. -1.
        -11    1    3    3    0    0 -0.25750980391E+01 -0.35258094734E+01 -0.38778754088E+01  0.58395530909E+01  0.51100000000E-03 0.  1.
         12    1    3    3    0    0  0.50880821535E+01 -0.81772257249E+01 -0.20599038548E+01  0.98487971066E+01  0.00000000000E+00 0. -1.
</event>
<event>
 7    1  0.2834226E-010  0.4778727E+02  0.7816164E-02  0.1312668E+00
        -11   -1    0    0    0    0  0.00000000000E+00  0.00000000000E+00  0.45593999997E+02  0.45594000000E+02  0.51100000000E-03 0.  1.
         11   -1    0    0    0    0 -0.00000000000E+00 -0.00000000000E+00 -0.45593999997E+02  0.45594000000E+02  0.51100000000E-03 0. -1.
    9900012    2    1    2    0    0 -0.33041775860E+02  0.10765351193E+02  0.25999454435E+02  0.47787269946E+02  0.19999994992E+02 0.  0.
        -12    1    1    2    0    0  0.33041775860E+02 -0.10765351193E+02 -0.25999454435E+02  0.43400730054E+02  0.00000000000E+00 0.  1.
         11    1    3    3    0    0 -0.10046611954E+02  0.65839753634E+01  0.64354826939E+01  0.13627126663E+02  0.51100000000E-03 0. -1.
        -11    1    3    3    0    0 -0.25635133918E+01 -0.13760642506E+01 -0.23112055060E+01  0.37157536091E+01  0.51100000000E-03 0.  1.
        -12    1    3    3    0    0 -0.20431650515E+02  0.55574400800E+01  0.21875177247E+02  0.30444389673E+02  0.00000000000E+00 0.  1.
</event>
<event>
 7    1  0.2834226E-010  0.4778727E+02  0.7816164E-02  0.1312668E+00
        -11   -1    0    0    0    0  0.00000000000E+00  0.00000000000E+00  0.45593999997E+02  0.45594000000E+02  0.51100000000E-03 0. -1.
         11   -1    0    0    0    0 -0.00000000000E+00 -0.00000000000E+00 -0.45593999997E+02  0.45594000000E+02  0.51100000000E-03 0.  1.
    9900012    2    1    2    0    0 -0.54011117279E+01  0.37974025987E+02  0.20308232479E+02  0.47787274615E+02  0.20000016278E+02 0.  0.
        -12    1    1    2    0    0  0.54011117279E+01 -0.37974025987E+02 -0.20308232479E+02  0.43400725385E+02  0.00000000000E+00 0.  1.
         11    1    3    3    0    0 -0.89231425858E+00  0.29127245547E+02  0.18686474180E+02  0.34617581883E+02  0.51100000000E-03 0. -1.
        -11    1    3    3    0    0  0.25160527000E+01  0.29158812535E+01  0.84716507832E+00  0.39434215606E+01  0.51100000000E-03 0.  1.
         12    1    3    3    0    0 -0.70248501694E+01  0.59308991866E+01  0.77459322085E+00  0.92262711710E+01  0.00000000000E+00 0. -1.
</event>
<event>
 7    1  0.2834226E-010  0.4778727E+02  0.7816164E-02  0.1312668E+00
        -11   -1    0    0    0    0  0.00000000000E+00  0.00000000000E+00  0.45593999997E+02  0.45594000000E+02  0.51100000000E-03 0. -1.
         11   -1    0    0    0    0 -0.00000000000E+00 -0.00000000000E+00 -0.45593999997E+02  0.45594000000E+02  0.51100000000E-03 0.  1.
    9900012    2    1    2    0    0 -0.31283163773E+02 -0.13376229318E+02  0.26945568275E+02  0.47787268484E+02  0.19999988326E+02 0.  0.
        -12    1    1    2    0    0  0.31283163773E+02  0.13376229318E+02 -0.26945568275E+02  0.43400731516E+02  0.00000000000E+00 0.  1.
         11    1    3    3    0    0 -0.20459537840E+02 -0.90277030654E+01  0.25044367076E+02  0.33575473694E+02  0.51100000000E-03 0. -1.
        -11    1    3    3    0    0 -0.15867132906E+01 -0.31436182643E+01 -0.20708211162E+01  0.40851309911E+01  0.51100000000E-03 0.  1.
        -12    1    3    3    0    0 -0.92369126423E+01 -0.12049079880E+01  0.39720223160E+01  0.10126663799E+02  0.00000000000E+00 0.  1.
</event>
<event>
 7    1  0.2834226E-010  0.4778727E+02  0.7816164E-02  0.1312668E+00
        -11   -1    0    0    0    0  0.00000000000E+00  0.00000000000E+00  0.45593999997E+02  0.45594000000E+02  0.51100000000E-03 0.  1.
         11   -1    0    0    0    0 -0.00000000000E+00 -0.00000000000E+00 -0.45593999997E+02  0.45594000000E+02  0.51100000000E-03 0. -1.
    9900012    2    1    2    0    0 -0.13441032571E+02 -0.39361946985E+02 -0.12393509729E+02  0.47787270623E+02  0.19999998079E+02 0.  0.
        -12    1    1    2    0    0  0.13441032571E+02  0.39361946985E+02  0.12393509729E+02  0.43400729377E+02  0.00000000000E+00 0.  1.
         11    1    3    3    0    0  0.38980594763E+01 -0.57847911419E+01  0.10387808353E+01  0.70524989983E+01  0.51100000000E-03 0. -1.
        -11    1    3    3    0    0 -0.14821194533E+02 -0.28985320679E+02 -0.14058391626E+02  0.35460611918E+02  0.51100000000E-03 0.  1.
        -12    1    3    3    0    0 -0.25178975147E+01 -0.45918351641E+01  0.62610106181E+00  0.52741597064E+01  0.00000000000E+00 0.  1.
</event>
<event>
 7    1  0.2834226E-010  0.4778728E+02  0.7816164E-02  0.1312668E+00
        -11   -1    0    0    0    0  0.00000000000E+00  0.00000000000E+00  0.45593999997E+02  0.45594000000E+02  0.51100000000E-03 0. -1.
         11   -1    0    0    0    0 -0.00000000000E+00 -0.00000000000E+00 -0.45593999997E+02  0.45594000000E+02  0.51100000000E-03 0.  1.
    9900012    2    1    2    0    0 -0.39413413307E+02 -0.17959470462E+02  0.27682466479E+01  0.47787275153E+02  0.20000018732E+02 0.  0.
        -12    1    1    2    0    0  0.39413413307E+02  0.17959470462E+02 -0.27682466479E+01  0.43400724847E+02  0.00000000000E+00 0.  1.
         11    1    3    3    0    0  0.29507662121E+00 -0.22196241599E+01  0.10047494368E+00  0.22414051617E+01  0.51100000000E-03 0. -1.
        -11    1    3    3    0    0 -0.22701841031E+02 -0.10023293826E+02 -0.61317791921E+01  0.25562447490E+02  0.51100000000E-03 0.  1.
        -12    1    3    3    0    0 -0.17006648896E+02 -0.57165524763E+01  0.87995508963E+01  0.19983422502E+02  0.00000000000E+00 0.  1.
</event>
<event>
 7    1  0.2834226E-010  0.4778727E+02  0.7816164E-02  0.1312668E+00
        -11   -1    0    0    0    0  0.00000000000E+00  0.00000000000E+00  0.45593999997E+02  0.45594000000E+02  0.51100000000E-03 0.  1.
         11   -1    0    0    0    0 -0.00000000000E+00 -0.00000000000E+00 -0.45593999997E+02  0.45594000000E+02  0.51100000000E-03 0. -1.
    9900012    2    1    2    0    0 -0.32230066346E+02  0.60102643893E+01 -0.28438052563E+02  0.47787270878E+02  0.19999999241E+02 0.  0.
        -12    1    1    2    0    0  0.32230066346E+02 -0.60102643893E+01  0.28438052563E+02  0.43400729122E+02  0.00000000000E+00 0.  1.
         11    1    3    3    0    0 -0.38648857256E+01 -0.13548155190E-01 -0.49141182179E+01  0.62518863829E+01  0.51100000000E-03 0. -1.
        -11    1    3    3    0    0 -0.27937497443E+02  0.27107624765E+01 -0.13847673304E+02  0.31298722862E+02  0.51100000000E-03 0.  1.
        -12    1    3    3    0    0 -0.42768317783E+00  0.33130500680E+01 -0.96762610415E+01  0.10236661633E+02  0.00000000000E+00 0.  1.
</event>
<event>
 7    1  0.2834226E-010  0.4778726E+02  0.7816164E-02  0.1312668E+00
        -11   -1    0    0    0    0  0.00000000000E+00  0.00000000000E+00  0.45593999997E+02  0.45594000000E+02  0.51100000000E-03 0. -1.
         11   -1    0    0    0    0 -0.00000000000E+00 -0.00000000000E+00 -0.45593999997E+02  0.45594000000E+02  0.51100000000E-03 0.  1.
    9900012    2    1    2    0    0  0.41730870831E+02 -0.58422638793E+01  0.10393569397E+02  0.47787263688E+02  0.19999966461E+02 0.  0.
        -12    1    1    2    0    0 -0.41730870831E+02  0.58422638793E+01 -0.10393569397E+02  0.43400736312E+02  0.00000000000E+00 0.  1.
         11    1    3    3    0    0  0.25810842641E+02 -0.22646381467E+01  0.11262261205E+02  0.28251844390E+02  0.51100000000E-03 0. -1.
        -11    1    3    3    0    0  0.12257640886E+02  0.13763860419E+01 -0.35218631990E+01  0.12827615495E+02  0.51100000000E-03 0.  1.
         12    1    3    3    0    0  0.36623873046E+01 -0.49540117745E+01  0.26531713911E+01  0.67078038031E+01  0.00000000000E+00 0. -1.
</event>
<event>
 7    1  0.2834226E-010  0.4778728E+02  0.7816164E-02  0.1312668E+00
        -11   -1    0    0    0    0  0.00000000000E+00  0.00000000000E+00  0.45593999997E+02  0.45594000000E+02  0.51100000000E-03 0. -1.
         11   -1    0    0    0    0 -0.00000000000E+00 -0.00000000000E+00 -0.45593999997E+02  0.45594000000E+02  0.51100000000E-03 0.  1.
    9900012    2    1    2    0    0 -0.30615199459E+01  0.41698960926E+02  0.11638147839E+02  0.47787277289E+02  0.20000028472E+02 0.  0.
        -12    1    1    2    0    0  0.30615199459E+01 -0.41698960926E+02 -0.11638147839E+02  0.43400722711E+02  0.00000000000E+00 0.  1.
         11    1    3    3    0    0 -0.11161652695E+02  0.19597106256E+02  0.69088419157E+01  0.23587309328E+02  0.51100000000E-03 0. -1.
        -11    1    3    3    0    0  0.66263295036E+01  0.13885986567E+02  0.31285593602E+01  0.15700851874E+02  0.51100000000E-03 0.  1.
         12    1    3    3    0    0  0.14738032451E+01  0.82158681033E+01  0.16007465627E+01  0.84991160867E+01  0.00000000000E+00 0. -1.
</event>
<event>
 7    1  0.2834226E-010  0.4778727E+02  0.7816164E-02  0.1312668E+00
        -11   -1    0    0    0    0  0.00000000000E+00  0.00000000000E+00  0.45593999997E+02  0.45594000000E+02  0.51100000000E-03 0.  1.
         11   -1    0    0    0    0 -0.00000000000E+00 -0.00000000000E+00 -0.45593999997E+02  0.45594000000E+02  0.51100000000E-03 0. -1.
    9900012    2    1    2    0    0  0.28138449458E+01  0.26580038229E+02 -0.34193670782E+02  0.47787271006E+02  0.19999999824E+02 0.  0.
        -12    1    1    2    0    0 -0.28138449458E+01 -0.26580038229E+02  0.34193670782E+02  0.43400728994E+02  0.00000000000E+00 0.  1.
         11    1    3    3    0    0 -0.25272270467E+01  0.17667854746E+02 -0.14063067810E+02  0.22722452428E+02  0.51100000000E-03 0. -1.
        -11    1    3    3    0    0  0.36815631468E+01  0.89640996856E+01 -0.21045278346E+02  0.23169219480E+02  0.51100000000E-03 0.  1.
         12    1    3    3    0    0  0.16595088456E+01 -0.51916202231E-01  0.91467537374E+00  0.18955990980E+01  0.00000000000E+00 0. -1.
</event>
<event>
 7    1  0.2834226E-010  0.4778727E+02  0.7816164E-02  0.1312668E+00
        -11   -1    0    0    0    0  0.00000000000E+00  0.00000000000E+00  0.45593999997E+02  0.45594000000E+02  0.51100000000E-03 0. -1.
         11   -1    0    0    0    0 -0.00000000000E+00 -0.00000000000E+00 -0.45593999997E+02  0.45594000000E+02  0.51100000000E-03 0.  1.
    9900012    2    1    2    0    0  0.29907701056E+02 -0.41688467508E+01  0.31173283133E+02  0.47787269050E+02  0.19999990906E+02 0.  0.
        -12    1    1    2    0    0 -0.29907701056E+02  0.41688467508E+01 -0.31173283133E+02  0.43400730950E+02  0.00000000000E+00 0.  1.
         11    1    3    3    0    0  0.69307433715E+01 -0.55637909130E+01  0.29456028129E+01  0.93630950651E+01  0.51100000000E-03 0. -1.
        -11    1    3    3    0    0  0.33504156246E+01  0.50558439662E+01  0.74904084545E+01  0.96381046967E+01  0.51100000000E-03 0.  1.
         12    1    3    3    0    0  0.19626542060E+02 -0.36608998039E+01  0.20737271866E+02  0.28786069288E+02  0.00000000000E+00 0. -1.
</event>
<event>
 7    1  0.2834226E-010  0.4778727E+02  0.7816164E-02  0.1312668E+00
        -11   -1    0    0    0    0  0.00000000000E+00  0.00000000000E+00  0.45593999997E+02  0.45594000000E+02  0.51100000000E-03 0.  1.
         11   -1    0    0    0    0 -0.00000000000E+00 -0.00000000000E+00 -0.45593999997E+02  0.45594000000E+02  0.51100000000E-03 0. -1.
    9900012    2    1    2    0    0 -0.12417708384E+02  0.39796694379E+02 -0.12068422610E+02  0.47787272019E+02  0.20000004444E+02 0.  0.
        -12    1    1    2    0    0  0.12417708384E+02 -0.39796694379E+02  0.12068422610E+02  0.43400727981E+02  0.00000000000E+00 0.  1.
         11    1    3    3    0    0 -0.82640696201E+01  0.21601225107E+02 -0.11309307480E+02  0.25745061832E+02  0.51100000000E-03 0. -1.
        -11    1    3    3    0    0 -0.12154004931E+01  0.13253181396E+02  0.46993862377E+01  0.14114115160E+02  0.51100000000E-03 0.  1.
        -12    1    3    3    0    0 -0.29382382705E+01  0.49422878760E+01 -0.54585013677E+01  0.79280950275E+01  0.00000000000E+00 0.  1.
</event>
<event>
 7    1  0.2834226E-010  0.4778727E+02  0.7816164E-02  0.1312668E+00
        -11   -1    0    0    0    0  0.00000000000E+00  0.00000000000E+00  0.45593999997E+02  0.45594000000E+02  0.51100000000E-03 0.  1.
         11   -1    0    0    0    0 -0.00000000000E+00 -0.00000000000E+00 -0.45593999997E+02  0.45594000000E+02  0.51100000000E-03 0. -1.
    9900012    2    1    2    0    0 -0.92119644058E+01 -0.22341349913E+02 -0.36050343944E+02  0.47787268409E+02  0.19999987983E+02 0.  0.
        -12    1    1    2    0    0  0.92119644058E+01  0.22341349913E+02  0.36050343944E+02  0.43400731591E+02  0.00000000000E+00 0.  1.
         11    1    3    3    0    0 -0.85486685165E+01 -0.85164025992E+01 -0.13465318136E+02  0.18081029821E+02  0.51100000000E-03 0. -1.
        -11    1    3    3    0    0  0.53475453837E+01 -0.23135558651E+01 -0.41371918359E+01  0.71459876099E+01  0.51100000000E-03 0.  1.
        -12    1    3    3    0    0 -0.60108412731E+01 -0.11511391449E+02 -0.18447833972E+02  0.22560250978E+02  0.00000000000E+00 0.  1.
</event>
<event>
 7    1  0.2834226E-010  0.4778727E+02  0.7816164E-02  0.1312668E+00
        -11   -1    0    0    0    0  0.00000000000E+00  0.00000000000E+00  0.45593999997E+02  0.45594000000E+02  0.51100000000E-03 0.  1.
         11   -1    0    0    0    0 -0.00000000000E+00 -0.00000000000E+00 -0.45593999997E+02  0.45594000000E+02  0.51100000000E-03 0. -1.
    9900012    2    1    2    0    0  0.86147617248E+01  0.36599852155E+02 -0.21676254904E+02  0.47787270467E+02  0.19999997368E+02 0.  0.
        -12    1    1    2    0    0 -0.86147617248E+01 -0.36599852155E+02  0.21676254904E+02  0.43400729533E+02  0.00000000000E+00 0.  1.
         11    1    3    3    0    0  0.32715250169E+01  0.26336347767E+02 -0.75948812596E+01  0.27604135763E+02  0.51100000000E-03 0. -1.
        -11    1    3    3    0    0  0.48711519875E+01  0.57080821234E+01 -0.13658130524E+02  0.15583800977E+02  0.51100000000E-03 0.  1.
        -12    1    3    3    0    0  0.47208472043E+00  0.45554222648E+01 -0.42324311969E+00  0.45993337270E+01  0.00000000000E+00 0.  1.
</event>
<event>
 7    1  0.2834226E-010  0.4778727E+02  0.7816164E-02  0.1312668E+00
        -11   -1    0    0    0    0  0.00000000000E+00  0.00000000000E+00  0.45593999997E+02  0.45594000000E+02  0.51100000000E-03 0.  1.
         11   -1    0    0    0    0 -0.00000000000E+00 -0.00000000000E+00 -0.45593999997E+02  0.45594000000E+02  0.51100000000E-03 0. -1.
    9900012    2    1    2    0    0  0.38622818081E+02  0.55198309414E+01 -0.19011374191E+02  0.47787274675E+02  0.20000016552E+02 0.  0.
        -12    1    1    2    0    0 -0.38622818081E+02 -0.55198309414E+01  0.19011374191E+02  0.43400725325E+02  0.00000000000E+00 0.  1.
         11    1    3    3    0    0  0.12911392762E+02 -0.29147851322E+01 -0.73745088807E+01  0.15152010326E+02  0.51100000000E-03 0. -1.
        -11    1    3    3    0    0  0.23027694667E+02  0.93411006096E+01 -0.14364239678E+02  0.28703000959E+02  0.51100000000E-03 0.  1.
        -12    1    3    3    0    0  0.26837306515E+01 -0.90648453591E+00  0.27273743673E+01  0.39322633894E+01  0.00000000000E+00 0.  1.
</event>
<event>
 7    1  0.2834226E-010  0.4778727E+02  0.7816164E-02  0.1312668E+00
        -11   -1    0    0    0    0  0.00000000000E+00  0.00000000000E+00  0.45593999997E+02  0.45594000000E+02  0.51100000000E-03 0.  1.
         11   -1    0    0    0    0 -0.00000000000E+00 -0.00000000000E+00 -0.45593999997E+02  0.45594000000E+02  0.51100000000E-03 0. -1.
    9900012    2    1    2    0    0  0.28914425079E+02 -0.21820667100E+02 -0.23904761046E+02  0.47787273152E+02  0.20000009607E+02 0.  0.
        -12    1    1    2    0    0 -0.28914425079E+02  0.21820667100E+02  0.23904761046E+02  0.43400726848E+02  0.00000000000E+00 0.  1.
         11    1    3    3    0    0  0.10454636605E+02  0.30472035335E+00 -0.39870649984E+01  0.11193255496E+02  0.51100000000E-03 0.  1.
        -11    1    3    3    0    0  0.14513977351E+02 -0.13203937445E+02 -0.18051794286E+02  0.26662085061E+02  0.51100000000E-03 0. -1.
         12    1    3    3    0    0  0.39458111218E+01 -0.89214500088E+01 -0.18659017613E+01  0.99319325940E+01  0.00000000000E+00 0. -1.
</event>
<event>
 7    1  0.2834226E-010  0.4778727E+02  0.7816164E-02  0.1312668E+00
        -11   -1    0    0    0    0  0.00000000000E+00  0.00000000000E+00  0.45593999997E+02  0.45594000000E+02  0.51100000000E-03 0.  1.
         11   -1    0    0    0    0 -0.00000000000E+00 -0.00000000000E+00 -0.45593999997E+02  0.45594000000E+02  0.51100000000E-03 0. -1.
    9900012    2    1    2    0    0  0.62399501980E+01  0.16944367568E+02 -0.39466122340E+02  0.47787269784E+02  0.19999994251E+02 0.  0.
        -12    1    1    2    0    0 -0.62399501980E+01 -0.16944367568E+02  0.39466122340E+02  0.43400730216E+02  0.00000000000E+00 0.  1.
         11    1    3    3    0    0 -0.23527723553E+01  0.12479721247E+02 -0.17306375391E+02  0.21466010565E+02  0.51100000000E-03 0. -1.
        -11    1    3    3    0    0  0.10492413515E+02  0.23630449062E+01 -0.13810062691E+02  0.17504072508E+02  0.51100000000E-03 0.  1.
        -12    1    3    3    0    0 -0.18996909615E+01  0.21016014142E+01 -0.83496842589E+01  0.88171867098E+01  0.00000000000E+00 0.  1.
</event>
<event>
 7    1  0.2834226E-010  0.4778727E+02  0.7816164E-02  0.1312668E+00
        -11   -1    0    0    0    0  0.00000000000E+00  0.00000000000E+00  0.45593999997E+02  0.45594000000E+02  0.51100000000E-03 0.  1.
         11   -1    0    0    0    0 -0.00000000000E+00 -0.00000000000E+00 -0.45593999997E+02  0.45594000000E+02  0.51100000000E-03 0. -1.
    9900012    2    1    2    0    0 -0.36245153451E+02 -0.15048554960E+02 -0.18532494930E+02  0.47787268170E+02  0.19999986893E+02 0.  0.
        -12    1    1    2    0    0  0.36245153451E+02  0.15048554960E+02  0.18532494930E+02  0.43400731830E+02  0.00000000000E+00 0.  1.
         11    1    3    3    0    0 -0.54178869864E+01 -0.98006033507E+01 -0.56088845250E+01  0.12524572301E+02  0.51100000000E-03 0. -1.
        -11    1    3    3    0    0 -0.16699354149E+02  0.17624700017E+01 -0.45099356549E+01  0.17387186355E+02  0.51100000000E-03 0.  1.
        -12    1    3    3    0    0 -0.14127912316E+02 -0.70104216108E+01 -0.84136747498E+01  0.17875509514E+02  0.00000000000E+00 0.  1.
</event>
<event>
 7    1  0.2834226E-010  0.4778728E+02  0.7816164E-02  0.1312668E+00
        -11   -1    0    0    0    0  0.00000000000E+00  0.00000000000E+00  0.45593999997E+02  0.45594000000E+02  0.51100000000E-03 0. -1.
         11   -1    0    0    0    0 -0.00000000000E+00 -0.00000000000E+00 -0.45593999997E+02  0.45594000000E+02  0.51100000000E-03 0.  1.
    9900012    2    1    2    0    0 -0.11276063785E+02  0.15089264042E+02  0.39099710021E+02  0.47787276187E+02  0.20000023445E+02 0.  0.
        -12    1    1    2    0    0  0.11276063785E+02 -0.15089264042E+02 -0.39099710021E+02  0.43400723813E+02  0.00000000000E+00 0.  1.
         11    1    3    3    0    0 -0.20916102315E+01 -0.41903561976E+00 -0.12819645717E+01  0.24887461974E+01  0.51100000000E-03 0. -1.
        -11    1    3    3    0    0 -0.37057829706E+01  0.43014633409E+01  0.43023939155E+01  0.71236232328E+01  0.51100000000E-03 0.  1.
         12    1    3    3    0    0 -0.54786705830E+01  0.11206836321E+02  0.36079280677E+02  0.38174906756E+02  0.00000000000E+00 0. -1.
</event>
<event>
 7    1  0.2834226E-010  0.4778727E+02  0.7816164E-02  0.1312668E+00
        -11   -1    0    0    0    0  0.00000000000E+00  0.00000000000E+00  0.45593999997E+02  0.45594000000E+02  0.51100000000E-03 0.  1.
         11   -1    0    0    0    0 -0.00000000000E+00 -0.00000000000E+00 -0.45593999997E+02  0.45594000000E+02  0.51100000000E-03 0. -1.
    9900012    2    1    2    0    0 -0.21308087561E+01  0.25781555690E+02 -0.34848157085E+02  0.47787274062E+02  0.20000013758E+02 0.  0.
        -12    1    1    2    0    0  0.21308087561E+01 -0.25781555690E+02  0.34848157085E+02  0.43400725938E+02  0.00000000000E+00 0.  1.
         11    1    3    3    0    0 -0.43357707216E+01  0.10408133441E+02 -0.16325311735E+02  0.19840462520E+02  0.51100000000E-03 0. -1.
        -11    1    3    3    0    0  0.59538971943E+01  0.72230287302E+01 -0.26740591349E+01  0.97350720775E+01  0.51100000000E-03 0.  1.
        -12    1    3    3    0    0 -0.37489352288E+01  0.81503935180E+01 -0.15848786215E+02  0.18211739465E+02  0.00000000000E+00 0.  1.
</event>
<event>
 7    1  0.2834226E-010  0.4778727E+02  0.7816164E-02  0.1312668E+00
        -11   -1    0    0    0    0  0.00000000000E+00  0.00000000000E+00  0.45593999997E+02  0.45594000000E+02  0.51100000000E-03 0. -1.
         11   -1    0    0    0    0 -0.00000000000E+00 -0.00000000000E+00 -0.45593999997E+02  0.45594000000E+02  0.51100000000E-03 0.  1.
    9900012    2    1    2    0    0  0.85548642421E+01  0.40326985999E+02 -0.13570997060E+02  0.47787268863E+02  0.19999990056E+02 0.  0.
        -12    1    1    2    0    0 -0.85548642421E+01 -0.40326985999E+02  0.13570997060E+02  0.43400731137E+02  0.00000000000E+00 0.  1.
         11    1    3    3    0    0  0.12202508953E+02  0.19704954059E+02 -0.12798358823E+02  0.26476110516E+02  0.51100000000E-03 0. -1.
        -11    1    3    3    0    0 -0.35376223729E+01  0.14275293402E+02 -0.20105341107E+01  0.14843888353E+02  0.51100000000E-03 0.  1.
         12    1    3    3    0    0 -0.11002233766E+00  0.63467385379E+01  0.12378958745E+01  0.64672699943E+01  0.00000000000E+00 0. -1.
</event>
<event>
 7    1  0.2834226E-010  0.4778728E+02  0.7816164E-02  0.1312668E+00
        -11   -1    0    0    0    0  0.00000000000E+00  0.00000000000E+00  0.45593999997E+02  0.45594000000E+02  0.51100000000E-03 0.  1.
         11   -1    0    0    0    0 -0.00000000000E+00 -0.00000000000E+00 -0.45593999997E+02  0.45594000000E+02  0.51100000000E-03 0. -1.
    9900012    2    1    2    0    0 -0.22771659187E+02 -0.71996577557E+00 -0.36939891624E+02  0.47787281042E+02  0.20000045585E+02 0.  0.
        -12    1    1    2    0    0  0.22771659187E+02  0.71996577557E+00  0.36939891624E+02  0.43400718958E+02  0.00000000000E+00 0.  1.
         11    1    3    3    0    0 -0.15582436626E+02 -0.12697750917E+01 -0.29478503957E+02  0.33367751734E+02  0.51100000000E-03 0. -1.
        -11    1    3    3    0    0 -0.10445965144E+01  0.60901076022E+00 -0.81472235689E+01  0.82364633264E+01  0.51100000000E-03 0.  1.
         12    1    3    3    0    0 -0.61446260461E+01 -0.59201444083E-01  0.68583590138E+00  0.61830659822E+01  0.00000000000E+00 0. -1.
</event>
<event>
 7    1  0.2834226E-010  0.4778727E+02  0.7816164E-02  0.1312668E+00
        -11   -1    0    0    0    0  0.00000000000E+00  0.00000000000E+00  0.45593999997E+02  0.45594000000E+02  0.51100000000E-03 0. -1.
         11   -1    0    0    0    0 -0.00000000000E+00 -0.00000000000E+00 -0.45593999997E+02  0.45594000000E+02  0.51100000000E-03 0.  1.
    9900012    2    1    2    0    0  0.21084234103E+02  0.37790478796E+02  0.33103063117E+01  0.47787270246E+02  0.19999996360E+02 0.  0.
        -12    1    1    2    0    0 -0.21084234103E+02 -0.37790478796E+02 -0.33103063117E+01  0.43400729754E+02  0.00000000000E+00 0.  1.
         11    1    3    3    0    0  0.37520444173E+01  0.21949088417E+02 -0.11087611202E+01  0.22295059344E+02  0.51100000000E-03 0. -1.
        -11    1    3    3    0    0  0.14555096106E+02  0.13518192208E+02  0.69826065072E+01  0.21055857549E+02  0.51100000000E-03 0.  1.
        -12    1    3    3    0    0  0.27770935796E+01  0.23231981705E+01 -0.25635390753E+01  0.44363533538E+01  0.00000000000E+00 0.  1.
</event>
<event>
 7    1  0.2834226E-010  0.4778727E+02  0.7816164E-02  0.1312668E+00
        -11   -1    0    0    0    0  0.00000000000E+00  0.00000000000E+00  0.45593999997E+02  0.45594000000E+02  0.51100000000E-03 0. -1.
         11   -1    0    0    0    0 -0.00000000000E+00 -0.00000000000E+00 -0.45593999997E+02  0.45594000000E+02  0.51100000000E-03 0.  1.
    9900012    2    1    2    0    0 -0.36842422359E+02  0.20934710406E+02 -0.93806633538E+01  0.47787273853E+02  0.20000012807E+02 0.  0.
        -12    1    1    2    0    0  0.36842422359E+02 -0.20934710406E+02  0.93806633538E+01  0.43400726147E+02  0.00000000000E+00 0.  1.
         11    1    3    3    0    0 -0.30451857123E+02  0.99784601852E+01 -0.63848262449E+00  0.32051410737E+02  0.51100000000E-03 0. -1.
        -11    1    3    3    0    0 -0.16610217968E+01  0.55964020750E+01 -0.48935949917E+01  0.76174787035E+01  0.51100000000E-03 0.  1.
         12    1    3    3    0    0 -0.47295434391E+01  0.53598481459E+01 -0.38485857376E+01  0.81183844125E+01  0.00000000000E+00 0. -1.
</event>
<event>
 7    1  0.2834226E-010  0.4778728E+02  0.7816164E-02  0.1312668E+00
        -11   -1    0    0    0    0  0.00000000000E+00  0.00000000000E+00  0.45593999997E+02  0.45594000000E+02  0.51100000000E-03 0. -1.
         11   -1    0    0    0    0 -0.00000000000E+00 -0.00000000000E+00 -0.45593999997E+02  0.45594000000E+02  0.51100000000E-03 0.  1.
    9900012    2    1    2    0    0  0.28970795216E+02  0.26037457096E+02  0.19140709738E+02  0.47787275158E+02  0.20000018757E+02 0.  0.
        -12    1    1    2    0    0 -0.28970795216E+02 -0.26037457096E+02 -0.19140709738E+02  0.43400724842E+02  0.00000000000E+00 0.  1.
         11    1    3    3    0    0  0.65329257468E+01  0.10497165453E+02  0.13564691002E+02  0.18354030718E+02  0.51100000000E-03 0. -1.
        -11    1    3    3    0    0  0.35902575368E+01  0.67417476218E+01 -0.79460302500E+00  0.76793557285E+01  0.51100000000E-03 0.  1.
         12    1    3    3    0    0  0.18847611932E+02  0.87985440216E+01  0.63706217608E+01  0.21753888711E+02  0.00000000000E+00 0. -1.
</event>
<event>
 7    1  0.2834226E-010  0.4778727E+02  0.7816164E-02  0.1312668E+00
        -11   -1    0    0    0    0  0.00000000000E+00  0.00000000000E+00  0.45593999997E+02  0.45594000000E+02  0.51100000000E-03 0. -1.
         11   -1    0    0    0    0 -0.00000000000E+00 -0.00000000000E+00 -0.45593999997E+02  0.45594000000E+02  0.51100000000E-03 0.  1.
    9900012    2    1    2    0    0  0.34927094837E+02 -0.18650436628E+02  0.17773097994E+02  0.47787265530E+02  0.19999974859E+02 0.  0.
        -12    1    1    2    0    0 -0.34927094837E+02  0.18650436628E+02 -0.17773097994E+02  0.43400734470E+02  0.00000000000E+00 0.  1.
         11    1    3    3    0    0  0.24212348157E+02 -0.13357853743E+02  0.19103845619E+02  0.33609923797E+02  0.51100000000E-03 0. -1.
        -11    1    3    3    0    0  0.10774208193E+01 -0.35459552808E+01 -0.22571878105E+01  0.43393008133E+01  0.51100000000E-03 0.  1.
         12    1    3    3    0    0  0.96373258607E+01 -0.17466276036E+01  0.92644018599E+00  0.98380409203E+01  0.00000000000E+00 0. -1.
</event>
<event>
 7    1  0.2834226E-010  0.4778727E+02  0.7816164E-02  0.1312668E+00
        -11   -1    0    0    0    0  0.00000000000E+00  0.00000000000E+00  0.45593999997E+02  0.45594000000E+02  0.51100000000E-03 0.  1.
         11   -1    0    0    0    0 -0.00000000000E+00 -0.00000000000E+00 -0.45593999997E+02  0.45594000000E+02  0.51100000000E-03 0. -1.
    9900012    2    1    2    0    0 -0.13944530062E+01 -0.11674412945E+02 -0.41777823433E+02  0.47787274803E+02  0.20000017137E+02 0.  0.
        -12    1    1    2    0    0  0.13944530062E+01  0.11674412945E+02  0.41777823433E+02  0.43400725197E+02  0.00000000000E+00 0.  1.
         11    1    3    3    0    0 -0.37583227572E+01 -0.18269453611E+01 -0.75550411438E+01  0.86337342005E+01  0.51100000000E-03 0. -1.
        -11    1    3    3    0    0 -0.21895432983E+01  0.37540929338E+00 -0.23662406509E+02  0.23766457751E+02  0.51100000000E-03 0.  1.
         12    1    3    3    0    0  0.45534130493E+01 -0.10222876877E+02 -0.10560375781E+02  0.15387082851E+02  0.00000000000E+00 0. -1.
</event>
<event>
 7    1  0.2834226E-010  0.4778727E+02  0.7816164E-02  0.1312668E+00
        -11   -1    0    0    0    0  0.00000000000E+00  0.00000000000E+00  0.45593999997E+02  0.45594000000E+02  0.51100000000E-03 0. -1.
         11   -1    0    0    0    0 -0.00000000000E+00 -0.00000000000E+00 -0.45593999997E+02  0.45594000000E+02  0.51100000000E-03 0.  1.
    9900012    2    1    2    0    0 -0.67084152862E+01  0.42850283839E+02 -0.15727531430E+01  0.47787271744E+02  0.20000003188E+02 0.  0.
        -12    1    1    2    0    0  0.67084152862E+01 -0.42850283839E+02  0.15727531430E+01  0.43400728256E+02  0.00000000000E+00 0.  1.
         11    1    3    3    0    0 -0.81794786418E+00  0.19814733579E+02  0.75278109586E+01  0.21212275776E+02  0.51100000000E-03 0. -1.
        -11    1    3    3    0    0 -0.37561400266E+01  0.20957988541E+02 -0.56742596730E+01  0.22035042425E+02  0.51100000000E-03 0.  1.
         12    1    3    3    0    0 -0.21343273954E+01  0.20775617191E+01 -0.34263044287E+01  0.45399535422E+01  0.00000000000E+00 0. -1.
</event>
<event>
 7    1  0.2834226E-010  0.4778721E+02  0.7816164E-02  0.1312668E+00
        -11   -1    0    0    0    0  0.00000000000E+00  0.00000000000E+00  0.45593999997E+02  0.45594000000E+02  0.51100000000E-03 0.  1.
         11   -1    0    0    0    0 -0.00000000000E+00 -0.00000000000E+00 -0.45593999997E+02  0.45594000000E+02  0.51100000000E-03 0. -1.
    9900012    2    1    2    0    0 -0.14074071976E+02  0.23534779578E+02 -0.33640204046E+02  0.47787208763E+02  0.19999716030E+02 0.  0.
        -12    1    1    2    0    0  0.14074071976E+02 -0.23534779578E+02  0.33640204046E+02  0.43400791237E+02  0.00000000000E+00 0.  1.
         11    1    3    3    0    0 -0.72812555327E+01  0.27808983180E+01 -0.64838650968E+01  0.10138569152E+02  0.51100000000E-03 0. -1.
        -11    1    3    3    0    0 -0.62971701817E+01  0.18422148406E+02 -0.13274429643E+02  0.23563539352E+02  0.51100000000E-03 0.  1.
        -12    1    3    3    0    0 -0.49564626114E+00  0.23317328541E+01 -0.13881909306E+02  0.14085100259E+02  0.00000000000E+00 0.  1.
</event>
<event>
 7    1  0.2834226E-010  0.4778727E+02  0.7816164E-02  0.1312668E+00
        -11   -1    0    0    0    0  0.00000000000E+00  0.00000000000E+00  0.45593999997E+02  0.45594000000E+02  0.51100000000E-03 0.  1.
         11   -1    0    0    0    0 -0.00000000000E+00 -0.00000000000E+00 -0.45593999997E+02  0.45594000000E+02  0.51100000000E-03 0. -1.
    9900012    2    1    2    0    0  0.26895907548E+02  0.26422379281E+02 -0.21496305830E+02  0.47787272656E+02  0.20000007345E+02 0.  0.
        -12    1    1    2    0    0 -0.26895907548E+02 -0.26422379281E+02  0.21496305830E+02  0.43400727344E+02  0.00000000000E+00 0.  1.
         11    1    3    3    0    0  0.19921589712E+02  0.10615241340E+02 -0.13551501029E+02  0.26328620659E+02  0.51100000000E-03 0. -1.
        -11    1    3    3    0    0  0.19814993182E+01  0.43193706472E+00 -0.44918336739E+01  0.49284357753E+01  0.51100000000E-03 0.  1.
         12    1    3    3    0    0  0.49928185174E+01  0.15375200876E+02 -0.34529711268E+01  0.16530216222E+02  0.00000000000E+00 0. -1.
</event>
<event>
 7    1  0.2834226E-010  0.4778727E+02  0.7816164E-02  0.1312668E+00
        -11   -1    0    0    0    0  0.00000000000E+00  0.00000000000E+00  0.45593999997E+02  0.45594000000E+02  0.51100000000E-03 0.  1.
         11   -1    0    0    0    0 -0.00000000000E+00 -0.00000000000E+00 -0.45593999997E+02  0.45594000000E+02  0.51100000000E-03 0. -1.
    9900012    2    1    2    0    0 -0.78207351980E+01  0.40001306811E+02 -0.14911573230E+02  0.47787268879E+02  0.19999990127E+02 0.  0.
        -12    1    1    2    0    0  0.78207351980E+01 -0.40001306811E+02  0.14911573230E+02  0.43400731121E+02  0.00000000000E+00 0.  1.
         11    1    3    3    0    0 -0.31058136774E+01  0.36285293005E+01 -0.29627343201E+01  0.56205069518E+01  0.51100000000E-03 0. -1.
        -11    1    3    3    0    0 -0.84195622478E+01  0.26256594943E+02 -0.14416111933E+02  0.31114660371E+02  0.51100000000E-03 0.  1.
        -12    1    3    3    0    0  0.37046407271E+01  0.10116182567E+02  0.24672730225E+01  0.11052101557E+02  0.00000000000E+00 0.  1.
</event>
<event>
 7    1  0.2834226E-010  0.4778726E+02  0.7816164E-02  0.1312668E+00
        -11   -1    0    0    0    0  0.00000000000E+00  0.00000000000E+00  0.45593999997E+02  0.45594000000E+02  0.51100000000E-03 0. -1.
         11   -1    0    0    0    0 -0.00000000000E+00 -0.00000000000E+00 -0.45593999997E+02  0.45594000000E+02  0.51100000000E-03 0.  1.
    9900012    2    1    2    0    0 -0.14695219275E+02  0.73324209865E+01  0.40173500842E+02  0.47787262253E+02  0.19999959917E+02 0.  0.
        -12    1    1    2    0    0  0.14695219275E+02 -0.73324209865E+01 -0.40173500842E+02  0.43400737747E+02  0.00000000000E+00 0.  1.
         11    1    3    3    0    0 -0.38285693625E+01  0.10300423796E+02  0.13275265704E+02  0.17233379051E+02  0.51100000000E-03 0. -1.
        -11    1    3    3    0    0 -0.49758744866E+01 -0.60178681024E+01  0.13269967017E+02  0.15396950617E+02  0.51100000000E-03 0.  1.
         12    1    3    3    0    0 -0.58907754261E+01  0.30498652933E+01  0.13628268121E+02  0.15156932585E+02  0.00000000000E+00 0. -1.
</event>
<event>
 7    1  0.2834226E-010  0.4778727E+02  0.7816164E-02  0.1312668E+00
        -11   -1    0    0    0    0  0.00000000000E+00  0.00000000000E+00  0.45593999997E+02  0.45594000000E+02  0.51100000000E-03 0.  1.
         11   -1    0    0    0    0 -0.00000000000E+00 -0.00000000000E+00 -0.45593999997E+02  0.45594000000E+02  0.51100000000E-03 0. -1.
    9900012    2    1    2    0    0  0.12108573068E+02 -0.91980002243E+01 -0.40649756997E+02  0.47787268511E+02  0.19999988448E+02 0.  0.
        -12    1    1    2    0    0 -0.12108573068E+02  0.91980002243E+01  0.40649756997E+02  0.43400731489E+02  0.00000000000E+00 0.  1.
         11    1    3    3    0    0  0.20850006588E+01 -0.75693754141E+01 -0.65753072418E+01  0.10240963699E+02  0.51100000000E-03 0. -1.
        -11    1    3    3    0    0  0.54302090766E+01  0.32672909943E+01 -0.27235029121E+02  0.27962638870E+02  0.51100000000E-03 0.  1.
        -12    1    3    3    0    0  0.45933633326E+01 -0.48959158046E+01 -0.68394206340E+01  0.95836659415E+01  0.00000000000E+00 0.  1.
</event>
<event>
 7    1  0.2834226E-010  0.4778728E+02  0.7816164E-02  0.1312668E+00
        -11   -1    0    0    0    0  0.00000000000E+00  0.00000000000E+00  0.45593999997E+02  0.45594000000E+02  0.51100000000E-03 0. -1.
         11   -1    0    0    0    0 -0.00000000000E+00 -0.00000000000E+00 -0.45593999997E+02  0.45594000000E+02  0.51100000000E-03 0.  1.
    9900012    2    1    2    0    0 -0.23930937901E+02  0.41384222718E+01  0.35969522027E+02  0.47787276014E+02  0.20000022656E+02 0.  0.
        -12    1    1    2    0    0  0.23930937901E+02 -0.41384222718E+01 -0.35969522027E+02  0.43400723986E+02  0.00000000000E+00 0.  1.
         11    1    3    3    0    0 -0.95208822636E+01 -0.17293832510E+00  0.63643034156E+01  0.11453447733E+02  0.51100000000E-03 0. -1.
        -11    1    3    3    0    0 -0.11509187861E+02 -0.37775054220E+01  0.13950109656E+02  0.18475294642E+02  0.51100000000E-03 0.  1.
        -12    1    3    3    0    0 -0.29008677764E+01  0.80888660190E+01  0.15655108955E+02  0.17858533638E+02  0.00000000000E+00 0.  1.
</event>
<event>
 7    1  0.2834226E-010  0.4778727E+02  0.7816164E-02  0.1312668E+00
        -11   -1    0    0    0    0  0.00000000000E+00  0.00000000000E+00  0.45593999997E+02  0.45594000000E+02  0.51100000000E-03 0. -1.
         11   -1    0    0    0    0 -0.00000000000E+00 -0.00000000000E+00 -0.45593999997E+02  0.45594000000E+02  0.51100000000E-03 0.  1.
    9900012    2    1    2    0    0 -0.42520404452E+02 -0.53424786485E+01 -0.68626817627E+01  0.47787271045E+02  0.20000000001E+02 0.  0.
        -12    1    1    2    0    0  0.42520404452E+02  0.53424786485E+01  0.68626817627E+01  0.43400728955E+02  0.00000000000E+00 0.  1.
         11    1    3    3    0    0 -0.78498965633E+01  0.61095430532E+01 -0.40775915769E+01  0.10750541647E+02  0.51100000000E-03 0.  1.
        -11    1    3    3    0    0 -0.12670121271E+02 -0.55975949790E+01  0.12803086064E+01  0.13910579893E+02  0.51100000000E-03 0. -1.
         12    1    3    3    0    0 -0.22000386617E+02 -0.58544267227E+01 -0.40653987923E+01  0.23126149504E+02  0.00000000000E+00 0. -1.
</event>
<event>
 7    1  0.2834226E-010  0.4778727E+02  0.7816164E-02  0.1312668E+00
        -11   -1    0    0    0    0  0.00000000000E+00  0.00000000000E+00  0.45593999997E+02  0.45594000000E+02  0.51100000000E-03 0.  1.
         11   -1    0    0    0    0 -0.00000000000E+00 -0.00000000000E+00 -0.45593999997E+02  0.45594000000E+02  0.51100000000E-03 0. -1.
    9900012    2    1    2    0    0 -0.40906381813E+02 -0.11673791135E+02 -0.86031232098E+01  0.47787271879E+02  0.20000003804E+02 0.  0.
        -12    1    1    2    0    0  0.40906381813E+02  0.11673791135E+02  0.86031232098E+01  0.43400728121E+02  0.00000000000E+00 0.  1.
         11    1    3    3    0    0 -0.33222080359E+02 -0.94235351634E+01 -0.43732897307E+01  0.34808552134E+02  0.51100000000E-03 0. -1.
        -11    1    3    3    0    0 -0.73802165826E+01  0.15714842863E+01 -0.39475499623E+00  0.75559904339E+01  0.51100000000E-03 0.  1.
         12    1    3    3    0    0 -0.30408487162E+00 -0.38217402578E+01 -0.38350784829E+01  0.54227293107E+01  0.00000000000E+00 0. -1.
</event>
<event>
 7    1  0.2834226E-010  0.4778727E+02  0.7816164E-02  0.1312668E+00
        -11   -1    0    0    0    0  0.00000000000E+00  0.00000000000E+00  0.45593999997E+02  0.45594000000E+02  0.51100000000E-03 0. -1.
         11   -1    0    0    0    0 -0.00000000000E+00 -0.00000000000E+00 -0.45593999997E+02  0.45594000000E+02  0.51100000000E-03 0.  1.
    9900012    2    1    2    0    0  0.25335198623E+02  0.16775460820E+02  0.30989269483E+02  0.47787271918E+02  0.20000003983E+02 0.  0.
        -12    1    1    2    0    0 -0.25335198623E+02 -0.16775460820E+02 -0.30989269483E+02  0.43400728082E+02  0.00000000000E+00 0.  1.
         11    1    3    3    0    0  0.22506982794E+02  0.17083263002E+02  0.18939200458E+02  0.34016105943E+02  0.51100000000E-03 0. -1.
        -11    1    3    3    0    0 -0.99074143813E+00 -0.14527401814E+01  0.75806663037E+01  0.77819357811E+01  0.51100000000E-03 0.  1.
         12    1    3    3    0    0  0.38189572671E+01  0.11449379989E+01  0.44694027209E+01  0.59892301936E+01  0.00000000000E+00 0. -1.
</event>
<event>
 7    1  0.2834226E-010  0.4778727E+02  0.7816164E-02  0.1312668E+00
        -11   -1    0    0    0    0  0.00000000000E+00  0.00000000000E+00  0.45593999997E+02  0.45594000000E+02  0.51100000000E-03 0.  1.
         11   -1    0    0    0    0 -0.00000000000E+00 -0.00000000000E+00 -0.45593999997E+02  0.45594000000E+02  0.51100000000E-03 0. -1.
    9900012    2    1    2    0    0 -0.41062193812E+02  0.24906726834E+01 -0.13831704319E+02  0.47787271257E+02  0.20000000970E+02 0.  0.
        -12    1    1    2    0    0  0.41062193812E+02 -0.24906726834E+01  0.13831704319E+02  0.43400728743E+02  0.00000000000E+00 0.  1.
         11    1    3    3    0    0 -0.80427714799E+01  0.26537544525E+01 -0.54115022819E+01  0.10050519538E+02  0.51100000000E-03 0. -1.
        -11    1    3    3    0    0 -0.11555503143E+02 -0.52999560899E+01 -0.91358050048E+01  0.15655098875E+02  0.51100000000E-03 0.  1.
        -12    1    3    3    0    0 -0.21463919189E+02  0.51368743208E+01  0.71560296819E+00  0.22081652844E+02  0.00000000000E+00 0.  1.
</event>
<event>
 7    1  0.2834226E-010  0.4778727E+02  0.7816164E-02  0.1312668E+00
        -11   -1    0    0    0    0  0.00000000000E+00  0.00000000000E+00  0.45593999997E+02  0.45594000000E+02  0.51100000000E-03 0. -1.
         11   -1    0    0    0    0 -0.00000000000E+00 -0.00000000000E+00 -0.45593999997E+02  0.45594000000E+02  0.51100000000E-03 0.  1.
    9900012    2    1    2    0    0  0.43243643132E+02  0.83991371703E+00  0.35923674320E+01  0.47787271548E+02  0.20000002295E+02 0.  0.
        -12    1    1    2    0    0 -0.43243643132E+02 -0.83991371703E+00 -0.35923674320E+01  0.43400728452E+02  0.00000000000E+00 0.  1.
         11    1    3    3    0    0  0.28271230062E+02  0.46349894148E+01  0.25968790095E+01  0.28766114735E+02  0.51100000000E-03 0. -1.
        -11    1    3    3    0    0  0.90679232401E+01 -0.72164852501E+01 -0.16426130889E+01  0.11704831023E+02  0.51100000000E-03 0.  1.
        -12    1    3    3    0    0  0.59044898307E+01  0.34214095523E+01  0.26381015115E+01  0.73163257903E+01  0.00000000000E+00 0.  1.
</event>
<event>
 7    1  0.2834226E-010  0.4778726E+02  0.7816164E-02  0.1312668E+00
        -11   -1    0    0    0    0  0.00000000000E+00  0.00000000000E+00  0.45593999997E+02  0.45594000000E+02  0.51100000000E-03 0.  1.
         11   -1    0    0    0    0 -0.00000000000E+00 -0.00000000000E+00 -0.45593999997E+02  0.45594000000E+02  0.51100000000E-03 0. -1.
    9900012    2    1    2    0    0 -0.12800935932E+01 -0.20965800491E+01 -0.43331163123E+02  0.47787262850E+02  0.19999962640E+02 0.  0.
        -12    1    1    2    0    0  0.12800935932E+01  0.20965800491E+01  0.43331163123E+02  0.43400737150E+02  0.00000000000E+00 0.  1.
         11    1    3    3    0    0 -0.38598680101E+01 -0.80940214723E+01 -0.30393822651E+02  0.31689055213E+02  0.51100000000E-03 0. -1.
        -11    1    3    3    0    0 -0.18023527244E+01  0.42660203980E+01 -0.81953428250E+01  0.94133442336E+01  0.51100000000E-03 0.  1.
         12    1    3    3    0    0  0.43821271414E+01  0.17314210252E+01 -0.47419976469E+01  0.66848634042E+01  0.00000000000E+00 0. -1.
</event>
<event>
 7    1  0.2834226E-010  0.4778728E+02  0.7816164E-02  0.1312668E+00
        -11   -1    0    0    0    0  0.00000000000E+00  0.00000000000E+00  0.45593999997E+02  0.45594000000E+02  0.51100000000E-03 0. -1.
         11   -1    0    0    0    0 -0.00000000000E+00 -0.00000000000E+00 -0.45593999997E+02  0.45594000000E+02  0.51100000000E-03 0.  1.
    9900012    2    1    2    0    0 -0.12126378147E+02  0.23225158044E+02  0.34600081428E+02  0.47787278255E+02  0.20000032876E+02 0.  0.
        -12    1    1    2    0    0  0.12126378147E+02 -0.23225158044E+02 -0.34600081428E+02  0.43400721745E+02  0.00000000000E+00 0.  1.
         11    1    3    3    0    0 -0.17298229750E+01  0.12349573322E+02  0.24706430140E+02  0.27675114079E+02  0.51100000000E-03 0. -1.
        -11    1    3    3    0    0 -0.47795161511E+01  0.57774360972E+00  0.61268552681E+01  0.77920419695E+01  0.51100000000E-03 0.  1.
         12    1    3    3    0    0 -0.56170390214E+01  0.10297841111E+02  0.37667960205E+01  0.12320122207E+02  0.00000000000E+00 0. -1.
</event>
<event>
 7    1  0.2834226E-010  0.4778727E+02  0.7816164E-02  0.1312668E+00
        -11   -1    0    0    0    0  0.00000000000E+00  0.00000000000E+00  0.45593999997E+02  0.45594000000E+02  0.51100000000E-03 0. -1.
         11   -1    0    0    0    0 -0.00000000000E+00 -0.00000000000E+00 -0.45593999997E+02  0.45594000000E+02  0.51100000000E-03 0.  1.
    9900012    2    1    2    0    0 -0.17699687478E+02  0.95488718134E+01  0.38459890002E+02  0.47787273869E+02  0.20000012878E+02 0.  0.
        -12    1    1    2    0    0  0.17699687478E+02 -0.95488718134E+01 -0.38459890002E+02  0.43400726131E+02  0.00000000000E+00 0.  1.
         11    1    3    3    0    0 -0.70502535009E+01  0.61459400351E+01  0.22792256407E+02  0.24636671969E+02  0.51100000000E-03 0. -1.
        -11    1    3    3    0    0 -0.97766619637E+01 -0.22362294193E+01  0.53667843919E+01  0.11374806202E+02  0.51100000000E-03 0.  1.
        -12    1    3    3    0    0 -0.87277201392E+00  0.56391611976E+01  0.10300849203E+02  0.11775795697E+02  0.00000000000E+00 0.  1.
</event>
<event>
 7    1  0.2834226E-010  0.4778727E+02  0.7816164E-02  0.1312668E+00
        -11   -1    0    0    0    0  0.00000000000E+00  0.00000000000E+00  0.45593999997E+02  0.45594000000E+02  0.51100000000E-03 0.  1.
         11   -1    0    0    0    0 -0.00000000000E+00 -0.00000000000E+00 -0.45593999997E+02  0.45594000000E+02  0.51100000000E-03 0. -1.
    9900012    2    1    2    0    0 -0.38840439455E+02 -0.18543205137E+02 -0.55850882601E+01  0.47787269538E+02  0.19999993131E+02 0.  0.
        -12    1    1    2    0    0  0.38840439455E+02  0.18543205137E+02  0.55850882601E+01  0.43400730462E+02  0.00000000000E+00 0.  1.
         11    1    3    3    0    0 -0.22764201641E+02 -0.85679894849E+01 -0.85201331703E-01  0.24323375171E+02  0.51100000000E-03 0.  1.
        -11    1    3    3    0    0 -0.93663591086E+01 -0.31239458375E+01 -0.88965049209E+01  0.13290429663E+02  0.51100000000E-03 0. -1.
        -12    1    3    3    0    0 -0.67098787049E+01 -0.68512698146E+01  0.33966179925E+01  0.10173464704E+02  0.00000000000E+00 0.  1.
</event>
<event>
 7    1  0.2834226E-010  0.4778727E+02  0.7816164E-02  0.1312668E+00
        -11   -1    0    0    0    0  0.00000000000E+00  0.00000000000E+00  0.45593999997E+02  0.45594000000E+02  0.51100000000E-03 0. -1.
         11   -1    0    0    0    0 -0.00000000000E+00 -0.00000000000E+00 -0.45593999997E+02  0.45594000000E+02  0.51100000000E-03 0.  1.
    9900012    2    1    2    0    0  0.75923612395E+01 -0.37839057891E+02  0.19854105036E+02  0.47787265697E+02  0.19999975618E+02 0.  0.
        -12    1    1    2    0    0 -0.75923612395E+01  0.37839057891E+02 -0.19854105036E+02  0.43400734303E+02  0.00000000000E+00 0.  1.
         11    1    3    3    0    0 -0.53585269612E+01 -0.21165540909E+02  0.12095590801E+02  0.24959912865E+02  0.51100000000E-03 0. -1.
        -11    1    3    3    0    0  0.44882739870E+01 -0.33648316776E+01  0.11436392878E+01  0.57249110633E+01  0.51100000000E-03 0.  1.
         12    1    3    3    0    0  0.84626142137E+01 -0.13308685305E+02  0.66148749470E+01  0.17102441768E+02  0.00000000000E+00 0. -1.
</event>
<event>
 7    1  0.2834226E-010  0.4778732E+02  0.7816164E-02  0.1312668E+00
        -11   -1    0    0    0    0  0.00000000000E+00  0.00000000000E+00  0.45593999997E+02  0.45594000000E+02  0.51100000000E-03 0.  1.
         11   -1    0    0    0    0 -0.00000000000E+00 -0.00000000000E+00 -0.45593999997E+02  0.45594000000E+02  0.51100000000E-03 0. -1.
    9900012    2    1    2    0    0  0.56708793700E+01 -0.28265830056E+02 -0.32442296293E+02  0.47787324771E+02  0.20000244959E+02 0.  0.
        -12    1    1    2    0    0 -0.56708793700E+01  0.28265830056E+02  0.32442296293E+02  0.43400675229E+02  0.00000000000E+00 0.  1.
         11    1    3    3    0    0  0.37277419504E-02 -0.32605440251E+01 -0.43012601231E+01  0.53974067980E+01  0.51100000000E-03 0. -1.
        -11    1    3    3    0    0  0.16339182577E+01  0.18296546438E+01  0.92849192875E+00  0.26228653247E+01  0.51100000000E-03 0.  1.
        -12    1    3    3    0    0  0.40332333703E+01 -0.26834940675E+02 -0.29069528098E+02  0.39767052648E+02  0.00000000000E+00 0.  1.
</event>
<event>
 7    1  0.2834226E-010  0.4778727E+02  0.7816164E-02  0.1312668E+00
        -11   -1    0    0    0    0  0.00000000000E+00  0.00000000000E+00  0.45593999997E+02  0.45594000000E+02  0.51100000000E-03 0. -1.
         11   -1    0    0    0    0 -0.00000000000E+00 -0.00000000000E+00 -0.45593999997E+02  0.45594000000E+02  0.51100000000E-03 0.  1.
    9900012    2    1    2    0    0  0.42335570486E+02 -0.79249855409E+01  0.53401967370E+01  0.47787266995E+02  0.19999981535E+02 0.  0.
        -12    1    1    2    0    0 -0.42335570486E+02  0.79249855409E+01 -0.53401967370E+01  0.43400733005E+02  0.00000000000E+00 0.  1.
         11    1    3    3    0    0  0.20837521863E+02 -0.12216081764E+02  0.58672703423E+00  0.24161523543E+02  0.51100000000E-03 0. -1.
        -11    1    3    3    0    0  0.16510344116E+01 -0.17021727435E+01  0.76568139812E-01  0.23725871150E+01  0.51100000000E-03 0.  1.
         12    1    3    3    0    0  0.19847014212E+02  0.59932689666E+01  0.46769015630E+01  0.21253156337E+02  0.00000000000E+00 0. -1.
</event>
<event>
 7    1  0.2834226E-010  0.4778726E+02  0.7816164E-02  0.1312668E+00
        -11   -1    0    0    0    0  0.00000000000E+00  0.00000000000E+00  0.45593999997E+02  0.45594000000E+02  0.51100000000E-03 0. -1.
         11   -1    0    0    0    0 -0.00000000000E+00 -0.00000000000E+00 -0.45593999997E+02  0.45594000000E+02  0.51100000000E-03 0.  1.
    9900012    2    1    2    0    0 -0.36494761598E+02  0.75512212838E+01  0.22242645730E+02  0.47787264338E+02  0.19999969421E+02 0.  0.
        -12    1    1    2    0    0  0.36494761598E+02 -0.75512212838E+01 -0.22242645730E+02  0.43400735662E+02  0.00000000000E+00 0.  1.
         11    1    3    3    0    0 -0.14529732375E+02  0.11154827655E+02  0.10948699088E+02  0.21340508777E+02  0.51100000000E-03 0. -1.
        -11    1    3    3    0    0  0.34857894083E+00  0.32942546936E+00  0.18304699248E+01  0.18922602423E+01  0.51100000000E-03 0.  1.
         12    1    3    3    0    0 -0.22313608164E+02 -0.39330318402E+01  0.94634767171E+01  0.24554495318E+02  0.00000000000E+00 0. -1.
</event>
<event>
 7    1  0.2834226E-010  0.4778727E+02  0.7816164E-02  0.1312668E+00
        -11   -1    0    0    0    0  0.00000000000E+00  0.00000000000E+00  0.45593999997E+02  0.45594000000E+02  0.51100000000E-03 0. -1.
         11   -1    0    0    0    0 -0.00000000000E+00 -0.00000000000E+00 -0.45593999997E+02  0.45594000000E+02  0.51100000000E-03 0.  1.
    9900012    2    1    2    0    0  0.42263526376E+02  0.29902799725E+01 -0.94061568138E+01  0.47787271641E+02  0.20000002721E+02 0.  0.
        -12    1    1    2    0    0 -0.42263526376E+02 -0.29902799725E+01  0.94061568138E+01  0.43400728359E+02  0.00000000000E+00 0.  1.
         11    1    3    3    0    0  0.26254244160E+02  0.74940651623E+00 -0.12700961572E+02  0.29174670035E+02  0.51100000000E-03 0. -1.
        -11    1    3    3    0    0  0.14430193741E+02  0.17829931094E+01  0.57684531034E+01  0.15642397748E+02  0.51100000000E-03 0.  1.
        -12    1    3    3    0    0  0.15790884754E+01  0.45788034689E+00 -0.24736483450E+01  0.29702038583E+01  0.00000000000E+00 0.  1.
</event>
<event>
 7    1  0.2834226E-010  0.4778727E+02  0.7816164E-02  0.1312668E+00
        -11   -1    0    0    0    0  0.00000000000E+00  0.00000000000E+00  0.45593999997E+02  0.45594000000E+02  0.51100000000E-03 0.  1.
         11   -1    0    0    0    0 -0.00000000000E+00 -0.00000000000E+00 -0.45593999997E+02  0.45594000000E+02  0.51100000000E-03 0. -1.
    9900012    2    1    2    0    0  0.20508832327E+02  0.17225850508E+02 -0.34150862300E+02  0.47787268151E+02  0.19999986810E+02 0.  0.
        -12    1    1    2    0    0 -0.20508832327E+02 -0.17225850508E+02  0.34150862300E+02  0.43400731849E+02  0.00000000000E+00 0.  1.
         11    1    3    3    0    0 -0.24014084360E+01 -0.17299555289E+01 -0.99442732764E+00  0.31222419156E+01  0.51100000000E-03 0.  1.
        -11    1    3    3    0    0  0.10676426366E+02  0.90144694033E+01 -0.18100515901E+02  0.22866469223E+02  0.51100000000E-03 0. -1.
        -12    1    3    3    0    0  0.12233814397E+02  0.99413366332E+01 -0.15055919072E+02  0.21798557013E+02  0.00000000000E+00 0.  1.
</event>
<event>
 7    1  0.2834226E-010  0.4778727E+02  0.7816164E-02  0.1312668E+00
        -11   -1    0    0    0    0  0.00000000000E+00  0.00000000000E+00  0.45593999997E+02  0.45594000000E+02  0.51100000000E-03 0.  1.
         11   -1    0    0    0    0 -0.00000000000E+00 -0.00000000000E+00 -0.45593999997E+02  0.45594000000E+02  0.51100000000E-03 0. -1.
    9900012    2    1    2    0    0  0.34793030579E+02  0.25372217462E+02 -0.54147157350E+01  0.47787267952E+02  0.19999985901E+02 0.  0.
        -12    1    1    2    0    0 -0.34793030579E+02 -0.25372217462E+02  0.54147157350E+01  0.43400732048E+02  0.00000000000E+00 0.  1.
         11    1    3    3    0    0  0.20441809677E+02  0.18516207590E+02  0.22988902140E+01  0.27676748777E+02  0.51100000000E-03 0. -1.
        -11    1    3    3    0    0  0.35621335063E+01 -0.20490863484E+01  0.52879431416E-01  0.41097866703E+01  0.51100000000E-03 0.  1.
         12    1    3    3    0    0  0.10789087395E+02  0.89050962210E+01 -0.77664853804E+01  0.16000732505E+02  0.00000000000E+00 0. -1.
</event>
<event>
 7    1  0.2834226E-010  0.4778727E+02  0.7816164E-02  0.1312668E+00
        -11   -1    0    0    0    0  0.00000000000E+00  0.00000000000E+00  0.45593999997E+02  0.45594000000E+02  0.51100000000E-03 0.  1.
         11   -1    0    0    0    0 -0.00000000000E+00 -0.00000000000E+00 -0.45593999997E+02  0.45594000000E+02  0.51100000000E-03 0. -1.
    9900012    2    1    2    0    0  0.31996419132E+02  0.29263457866E+02 -0.18714706261E+01  0.47787271828E+02  0.20000003574E+02 0.  0.
        -12    1    1    2    0    0 -0.31996419132E+02 -0.29263457866E+02  0.18714706261E+01  0.43400728172E+02  0.00000000000E+00 0.  1.
         11    1    3    3    0    0  0.23969123705E+02  0.26027995595E+02 -0.59986856227E+01  0.35888155084E+02  0.51100000000E-03 0. -1.
        -11    1    3    3    0    0  0.69787893776E+01  0.38511770847E+01  0.57809047814E+01  0.98465184947E+01  0.51100000000E-03 0.  1.
         12    1    3    3    0    0  0.10485060497E+01 -0.61571481422E+00 -0.16536897849E+01  0.20525982494E+01  0.00000000000E+00 0. -1.
</event>
<event>
 7    1  0.2834226E-010  0.4778727E+02  0.7816164E-02  0.1312668E+00
        -11   -1    0    0    0    0  0.00000000000E+00  0.00000000000E+00  0.45593999997E+02  0.45594000000E+02  0.51100000000E-03 0.  1.
         11   -1    0    0    0    0 -0.00000000000E+00 -0.00000000000E+00 -0.45593999997E+02  0.45594000000E+02  0.51100000000E-03 0. -1.
    9900012    2    1    2    0    0 -0.32822982896E+02  0.21307694870E+02 -0.18768510852E+02  0.47787273434E+02  0.20000010893E+02 0.  0.
        -12    1    1    2    0    0  0.32822982896E+02 -0.21307694870E+02  0.18768510852E+02  0.43400726566E+02  0.00000000000E+00 0.  1.
         11    1    3    3    0    0 -0.60608563101E+01  0.76391961031E+01 -0.14749964702E+01  0.98623988543E+01  0.51100000000E-03 0. -1.
        -11    1    3    3    0    0 -0.21156860473E+02  0.43908810072E+01 -0.16248320722E+02  0.27035171678E+02  0.51100000000E-03 0.  1.
        -12    1    3    3    0    0 -0.56052661131E+01  0.92776177594E+01 -0.10451936596E+01  0.10889702901E+02  0.00000000000E+00 0.  1.
</event>
<event>
 7    1  0.2834226E-010  0.4778727E+02  0.7816164E-02  0.1312668E+00
        -11   -1    0    0    0    0  0.00000000000E+00  0.00000000000E+00  0.45593999997E+02  0.45594000000E+02  0.51100000000E-03 0. -1.
         11   -1    0    0    0    0 -0.00000000000E+00 -0.00000000000E+00 -0.45593999997E+02  0.45594000000E+02  0.51100000000E-03 0.  1.
    9900012    2    1    2    0    0  0.16713961254E+02  0.38923039309E+02  0.94479515455E+01  0.47787270994E+02  0.19999999771E+02 0.  0.
        -12    1    1    2    0    0 -0.16713961254E+02 -0.38923039309E+02 -0.94479515455E+01  0.43400729006E+02  0.00000000000E+00 0.  1.
         11    1    3    3    0    0  0.13596259427E+02  0.13362535444E+02  0.37555534308E+01  0.19429868906E+02  0.51100000000E-03 0. -1.
        -11    1    3    3    0    0 -0.12221126689E+01  0.37506342237E+01  0.46468087438E+01  0.60953792514E+01  0.51100000000E-03 0.  1.
         12    1    3    3    0    0  0.43398144958E+01  0.21809869642E+02  0.10455893708E+01  0.22262022837E+02  0.00000000000E+00 0. -1.
</event>
<event>
 7    1  0.2834226E-010  0.4778727E+02  0.7816164E-02  0.1312668E+00
        -11   -1    0    0    0    0  0.00000000000E+00  0.00000000000E+00  0.45593999997E+02  0.45594000000E+02  0.51100000000E-03 0. -1.
         11   -1    0    0    0    0 -0.00000000000E+00 -0.00000000000E+00 -0.45593999997E+02  0.45594000000E+02  0.51100000000E-03 0.  1.
    9900012    2    1    2    0    0 -0.96671024359E+01  0.29287419305E+02 -0.30535512610E+02  0.47787270404E+02  0.19999997081E+02 0.  0.
        -12    1    1    2    0    0  0.96671024359E+01 -0.29287419305E+02  0.30535512610E+02  0.43400729596E+02  0.00000000000E+00 0.  1.
         11    1    3    3    0    0 -0.27934622538E+00  0.94986347371E+01 -0.19066067288E+01  0.96921228666E+01  0.51100000000E-03 0. -1.
        -11    1    3    3    0    0 -0.10019389771E+02  0.12914258192E+02 -0.25993958629E+02  0.30705897177E+02  0.51100000000E-03 0.  1.
        -12    1    3    3    0    0  0.63163356091E+00  0.68745263766E+01 -0.26349472531E+01  0.73892503601E+01  0.00000000000E+00 0.  1.
</event>
<event>
 7    1  0.2834226E-010  0.4778729E+02  0.7816164E-02  0.1312668E+00
        -11   -1    0    0    0    0  0.00000000000E+00  0.00000000000E+00  0.45593999997E+02  0.45594000000E+02  0.51100000000E-03 0. -1.
         11   -1    0    0    0    0 -0.00000000000E+00 -0.00000000000E+00 -0.45593999997E+02  0.45594000000E+02  0.51100000000E-03 0.  1.
    9900012    2    1    2    0    0 -0.24523752639E+02  0.32779685377E+02  0.14411774870E+02  0.47787291805E+02  0.20000094657E+02 0.  0.
        -12    1    1    2    0    0  0.24523752639E+02 -0.32779685377E+02 -0.14411774870E+02  0.43400708195E+02  0.00000000000E+00 0.  1.
         11    1    3    3    0    0 -0.22916564290E+01  0.98033906511E+01 -0.26925103514E+01  0.10421505155E+02  0.51100000000E-03 0. -1.
        -11    1    3    3    0    0 -0.60912583772E+01  0.71453024949E+01  0.66597438836E+00  0.94128793952E+01  0.51100000000E-03 0.  1.
         12    1    3    3    0    0 -0.16140837832E+02  0.15830992231E+02  0.16438310833E+02  0.27952907255E+02  0.00000000000E+00 0. -1.
</event>
<event>
 7    1  0.2834226E-010  0.4778728E+02  0.7816164E-02  0.1312668E+00
        -11   -1    0    0    0    0  0.00000000000E+00  0.00000000000E+00  0.45593999997E+02  0.45594000000E+02  0.51100000000E-03 0.  1.
         11   -1    0    0    0    0 -0.00000000000E+00 -0.00000000000E+00 -0.45593999997E+02  0.45594000000E+02  0.51100000000E-03 0. -1.
    9900012    2    1    2    0    0 -0.41482586323E+02 -0.11481616019E+02 -0.55668936258E+01  0.47787276745E+02  0.20000025991E+02 0.  0.
        -12    1    1    2    0    0  0.41482586323E+02  0.11481616019E+02  0.55668936258E+01  0.43400723255E+02  0.00000000000E+00 0.  1.
         11    1    3    3    0    0 -0.91542694979E+01 -0.16328226292E+01  0.36551383073E+01  0.99913360510E+01  0.51100000000E-03 0.  1.
        -11    1    3    3    0    0 -0.54641195325E+01  0.36439368124E+01 -0.21782685426E+01  0.69195181814E+01  0.51100000000E-03 0. -1.
        -12    1    3    3    0    0 -0.26864197292E+02 -0.13492730202E+02 -0.70437633905E+01  0.30876422512E+02  0.00000000000E+00 0.  1.
</event>
<event>
 7    1  0.2834226E-010  0.4778727E+02  0.7816164E-02  0.1312668E+00
        -11   -1    0    0    0    0  0.00000000000E+00  0.00000000000E+00  0.45593999997E+02  0.45594000000E+02  0.51100000000E-03 0.  1.
         11   -1    0    0    0    0 -0.00000000000E+00 -0.00000000000E+00 -0.45593999997E+02  0.45594000000E+02  0.51100000000E-03 0. -1.
    9900012    2    1    2    0    0 -0.41024812633E+01 -0.25978118563E+02 -0.34524340547E+02  0.47787273200E+02  0.20000009827E+02 0.  0.
        -12    1    1    2    0    0  0.41024812633E+01  0.25978118563E+02  0.34524340547E+02  0.43400726800E+02  0.00000000000E+00 0.  1.
         11    1    3    3    0    0  0.37601396023E+01 -0.41879594706E+01 -0.15878936276E+02  0.16846906893E+02  0.51100000000E-03 0. -1.
        -11    1    3    3    0    0 -0.56375935497E+01 -0.58460303795E+01 -0.35220137734E+01  0.88522942512E+01  0.51100000000E-03 0.  1.
         12    1    3    3    0    0 -0.22250273158E+01 -0.15944128713E+02 -0.15123390498E+02  0.22088072055E+02  0.00000000000E+00 0. -1.
</event>
<event>
 7    1  0.2834226E-010  0.4778728E+02  0.7816164E-02  0.1312668E+00
        -11   -1    0    0    0    0  0.00000000000E+00  0.00000000000E+00  0.45593999997E+02  0.45594000000E+02  0.51100000000E-03 0.  1.
         11   -1    0    0    0    0 -0.00000000000E+00 -0.00000000000E+00 -0.45593999997E+02  0.45594000000E+02  0.51100000000E-03 0. -1.
    9900012    2    1    2    0    0  0.18153880589E+02  0.21439443622E+02 -0.33081861469E+02  0.47787277869E+02  0.20000031115E+02 0.  0.
        -12    1    1    2    0    0 -0.18153880589E+02 -0.21439443622E+02  0.33081861469E+02  0.43400722131E+02  0.00000000000E+00 0.  1.
         11    1    3    3    0    0  0.19225802961E+01  0.94256850047E+01 -0.10743175547E+02  0.14420668289E+02  0.51100000000E-03 0. -1.
        -11    1    3    3    0    0  0.17163016102E+02  0.59991593907E+01 -0.13545164521E+02  0.22672241117E+02  0.51100000000E-03 0.  1.
        -12    1    3    3    0    0 -0.93171580846E+00  0.60145992262E+01 -0.87935214000E+01  0.10694368462E+02  0.00000000000E+00 0.  1.
</event>
<event>
 7    1  0.2834226E-010  0.4778727E+02  0.7816164E-02  0.1312668E+00
        -11   -1    0    0    0    0  0.00000000000E+00  0.00000000000E+00  0.45593999997E+02  0.45594000000E+02  0.51100000000E-03 0.  1.
         11   -1    0    0    0    0 -0.00000000000E+00 -0.00000000000E+00 -0.45593999997E+02  0.45594000000E+02  0.51100000000E-03 0. -1.
    9900012    2    1    2    0    0 -0.58872149949E+01 -0.40466098462E+02 -0.14541628731E+02  0.47787269692E+02  0.19999993832E+02 0.  0.
        -12    1    1    2    0    0  0.58872149949E+01  0.40466098462E+02  0.14541628731E+02  0.43400730308E+02  0.00000000000E+00 0.  1.
         11    1    3    3    0    0  0.77478422718E+00 -0.62048486266E+00  0.24800624059E+01  0.26713296056E+01  0.51100000000E-03 0. -1.
        -11    1    3    3    0    0 -0.37168098419E+01 -0.36680717524E+01 -0.53316870674E+00  0.52491613532E+01  0.51100000000E-03 0.  1.
         12    1    3    3    0    0 -0.29451893803E+01 -0.36177541847E+02 -0.16488522430E+02  0.39866778733E+02  0.00000000000E+00 0. -1.
</event>
<event>
 7    1  0.2834226E-010  0.4778727E+02  0.7816164E-02  0.1312668E+00
        -11   -1    0    0    0    0  0.00000000000E+00  0.00000000000E+00  0.45593999997E+02  0.45594000000E+02  0.51100000000E-03 0. -1.
         11   -1    0    0    0    0 -0.00000000000E+00 -0.00000000000E+00 -0.45593999997E+02  0.45594000000E+02  0.51100000000E-03 0.  1.
    9900012    2    1    2    0    0  0.32644591293E+02  0.18690138543E+02  0.21647920322E+02  0.47787273350E+02  0.20000010513E+02 0.  0.
        -12    1    1    2    0    0 -0.32644591293E+02 -0.18690138543E+02 -0.21647920322E+02  0.43400726650E+02  0.00000000000E+00 0.  1.
         11    1    3    3    0    0  0.34008255234E+02  0.16964808529E+02  0.17624482301E+02  0.41892583223E+02  0.51100000000E-03 0. -1.
        -11    1    3    3    0    0 -0.16460311223E+01  0.27709342249E+01  0.29320170886E+01  0.43570884089E+01  0.51100000000E-03 0.  1.
         12    1    3    3    0    0  0.28236718155E+00 -0.10456042107E+01  0.10914209329E+01  0.15376017181E+01  0.00000000000E+00 0. -1.
</event>
<event>
 7    1  0.2834226E-010  0.4778728E+02  0.7816164E-02  0.1312668E+00
        -11   -1    0    0    0    0  0.00000000000E+00  0.00000000000E+00  0.45593999997E+02  0.45594000000E+02  0.51100000000E-03 0.  1.
         11   -1    0    0    0    0 -0.00000000000E+00 -0.00000000000E+00 -0.45593999997E+02  0.45594000000E+02  0.51100000000E-03 0. -1.
    9900012    2    1    2    0    0  0.43100819921E+02 -0.53939878965E+00  0.50647018433E+01  0.47787276116E+02  0.20000023123E+02 0.  0.
        -12    1    1    2    0    0 -0.43100819921E+02  0.53939878965E+00 -0.50647018433E+01  0.43400723884E+02  0.00000000000E+00 0.  1.
         11    1    3    3    0    0  0.26561654532E+02  0.41467161274E+01 -0.42710988462E+01  0.27220562664E+02  0.51100000000E-03 0. -1.
        -11    1    3    3    0    0  0.76412246926E+01  0.30145100949E+00  0.63453837733E+01  0.99369554193E+01  0.51100000000E-03 0.  1.
         12    1    3    3    0    0  0.88979406961E+01 -0.49875659265E+01  0.29904169162E+01  0.10629758033E+02  0.00000000000E+00 0. -1.
</event>
<event>
 7    1  0.2834226E-010  0.4778727E+02  0.7816164E-02  0.1312668E+00
        -11   -1    0    0    0    0  0.00000000000E+00  0.00000000000E+00  0.45593999997E+02  0.45594000000E+02  0.51100000000E-03 0.  1.
         11   -1    0    0    0    0 -0.00000000000E+00 -0.00000000000E+00 -0.45593999997E+02  0.45594000000E+02  0.51100000000E-03 0. -1.
    9900012    2    1    2    0    0  0.41911128647E+02  0.38682726356E+01 -0.10588532063E+02  0.47787271332E+02  0.20000001313E+02 0.  0.
        -12    1    1    2    0    0 -0.41911128647E+02 -0.38682726356E+01  0.10588532063E+02  0.43400728668E+02  0.00000000000E+00 0.  1.
         11    1    3    3    0    0  0.12432000175E+02 -0.25185828268E+01 -0.82196516832E+01  0.15114911904E+02  0.51100000000E-03 0. -1.
        -11    1    3    3    0    0  0.27529584339E+02  0.91862283432E+01 -0.30893739440E+01  0.29185767708E+02  0.51100000000E-03 0.  1.
        -12    1    3    3    0    0  0.19495441325E+01 -0.27993728808E+01  0.72049356448E+00  0.34865917207E+01  0.00000000000E+00 0.  1.
</event>
<event>
 7    1  0.2834226E-010  0.4778727E+02  0.7816164E-02  0.1312668E+00
        -11   -1    0    0    0    0  0.00000000000E+00  0.00000000000E+00  0.45593999997E+02  0.45594000000E+02  0.51100000000E-03 0. -1.
         11   -1    0    0    0    0 -0.00000000000E+00 -0.00000000000E+00 -0.45593999997E+02  0.45594000000E+02  0.51100000000E-03 0.  1.
    9900012    2    1    2    0    0 -0.29935235399E+02 -0.19621358950E+01  0.31363277425E+02  0.47787268826E+02  0.19999989884E+02 0.  0.
        -12    1    1    2    0    0  0.29935235399E+02  0.19621358950E+01 -0.31363277425E+02  0.43400731174E+02  0.00000000000E+00 0.  1.
         11    1    3    3    0    0 -0.28271379067E+02  0.31595658710E+00  0.31744009928E+02  0.42509444474E+02  0.51100000000E-03 0. -1.
        -11    1    3    3    0    0  0.34763466227E+00  0.11923312237E+01 -0.23458883864E+00  0.12639366241E+01  0.51100000000E-03 0.  1.
         12    1    3    3    0    0 -0.20114909939E+01 -0.34704237058E+01 -0.14614366502E+00  0.40138877273E+01  0.00000000000E+00 0. -1.
</event>
<event>
 7    1  0.2834226E-010  0.4778727E+02  0.7816164E-02  0.1312668E+00
        -11   -1    0    0    0    0  0.00000000000E+00  0.00000000000E+00  0.45593999997E+02  0.45594000000E+02  0.51100000000E-03 0.  1.
         11   -1    0    0    0    0 -0.00000000000E+00 -0.00000000000E+00 -0.45593999997E+02  0.45594000000E+02  0.51100000000E-03 0. -1.
    9900012    2    1    2    0    0 -0.12951427503E+02  0.33591932370E+02 -0.24237688903E+02  0.47787274682E+02  0.20000016586E+02 0.  0.
        -12    1    1    2    0    0  0.12951427503E+02 -0.33591932370E+02  0.24237688903E+02  0.43400725318E+02  0.00000000000E+00 0.  1.
         11    1    3    3    0    0 -0.73860060489E+01  0.31468208449E+01 -0.60491721046E+01  0.10052265923E+02  0.51100000000E-03 0. -1.
        -11    1    3    3    0    0 -0.79706758303E+01  0.24242937920E+02 -0.17715642823E+02  0.31065989652E+02  0.51100000000E-03 0.  1.
        -12    1    3    3    0    0  0.24052543759E+01  0.62021736053E+01 -0.47287397584E+00  0.66690191063E+01  0.00000000000E+00 0.  1.
</event>
<event>
 7    1  0.2834226E-010  0.4778727E+02  0.7816164E-02  0.1312668E+00
        -11   -1    0    0    0    0  0.00000000000E+00  0.00000000000E+00  0.45593999997E+02  0.45594000000E+02  0.51100000000E-03 0.  1.
         11   -1    0    0    0    0 -0.00000000000E+00 -0.00000000000E+00 -0.45593999997E+02  0.45594000000E+02  0.51100000000E-03 0. -1.
    9900012    2    1    2    0    0 -0.15822153355E+02 -0.41600013599E+01 -0.40199219388E+02  0.47787269735E+02  0.19999994030E+02 0.  0.
        -12    1    1    2    0    0  0.15822153355E+02  0.41600013599E+01  0.40199219388E+02  0.43400730265E+02  0.00000000000E+00 0.  1.
         11    1    3    3    0    0 -0.24258760023E+01  0.63745026486E+01 -0.64620872900E+01  0.93956229597E+01  0.51100000000E-03 0. -1.
        -11    1    3    3    0    0 -0.34544104986E+01 -0.69080827907E+01 -0.15044290389E+02  0.16911097933E+02  0.51100000000E-03 0.  1.
         12    1    3    3    0    0 -0.99418668536E+01 -0.36264212178E+01 -0.18692841710E+02  0.21480548842E+02  0.00000000000E+00 0. -1.
</event>
<event>
 7    1  0.2834226E-010  0.4778728E+02  0.7816164E-02  0.1312668E+00
        -11   -1    0    0    0    0  0.00000000000E+00  0.00000000000E+00  0.45593999997E+02  0.45594000000E+02  0.51100000000E-03 0.  1.
         11   -1    0    0    0    0 -0.00000000000E+00 -0.00000000000E+00 -0.45593999997E+02  0.45594000000E+02  0.51100000000E-03 0. -1.
    9900012    2    1    2    0    0  0.14421216100E+02  0.19996845304E-01 -0.40934716252E+02  0.47787275717E+02  0.20000021305E+02 0.  0.
        -12    1    1    2    0    0 -0.14421216100E+02 -0.19996845304E-01  0.40934716252E+02  0.43400724283E+02  0.00000000000E+00 0.  1.
         11    1    3    3    0    0  0.88689709008E+01  0.46953785021E+01 -0.34041546359E+02  0.35489887333E+02  0.51100000000E-03 0. -1.
        -11    1    3    3    0    0 -0.25301816999E+00 -0.89695475108E+00  0.12803761314E+01  0.15836380012E+01  0.51100000000E-03 0.  1.
         12    1    3    3    0    0  0.58052633692E+01 -0.37784269057E+01 -0.81735460235E+01  0.10713750383E+02  0.00000000000E+00 0. -1.
</event>
<event>
 7    1  0.2834226E-010  0.4778727E+02  0.7816164E-02  0.1312668E+00
        -11   -1    0    0    0    0  0.00000000000E+00  0.00000000000E+00  0.45593999997E+02  0.45594000000E+02  0.51100000000E-03 0.  1.
         11   -1    0    0    0    0 -0.00000000000E+00 -0.00000000000E+00 -0.45593999997E+02  0.45594000000E+02  0.51100000000E-03 0. -1.
    9900012    2    1    2    0    0  0.39459632146E+02  0.13917099426E+02 -0.11527143115E+02  0.47787271274E+02  0.20000001047E+02 0.  0.
        -12    1    1    2    0    0 -0.39459632146E+02 -0.13917099426E+02  0.11527143115E+02  0.43400728726E+02  0.00000000000E+00 0.  1.
         11    1    3    3    0    0  0.35045898973E+02  0.12667231612E+02 -0.45514410604E+01  0.37541835431E+02  0.51100000000E-03 0. -1.
        -11    1    3    3    0    0  0.21416646264E+01 -0.22658246680E+01 -0.18413813829E+01  0.36209631946E+01  0.51100000000E-03 0.  1.
         12    1    3    3    0    0  0.22720685469E+01  0.35156924819E+01 -0.51343206718E+01  0.66244726485E+01  0.00000000000E+00 0. -1.
</event>
<event>
 7    1  0.2834226E-010  0.4778727E+02  0.7816164E-02  0.1312668E+00
        -11   -1    0    0    0    0  0.00000000000E+00  0.00000000000E+00  0.45593999997E+02  0.45594000000E+02  0.51100000000E-03 0.  1.
         11   -1    0    0    0    0 -0.00000000000E+00 -0.00000000000E+00 -0.45593999997E+02  0.45594000000E+02  0.51100000000E-03 0. -1.
    9900012    2    1    2    0    0 -0.29988700260E+02 -0.30423055655E+02  0.76641499666E+01  0.47787266673E+02  0.19999980067E+02 0.  0.
        -12    1    1    2    0    0  0.29988700260E+02  0.30423055655E+02 -0.76641499666E+01  0.43400733327E+02  0.00000000000E+00 0.  1.
         11    1    3    3    0    0 -0.26975344109E+02 -0.16123097941E+02  0.21953773777E+01  0.31503065869E+02  0.51100000000E-03 0. -1.
        -11    1    3    3    0    0 -0.16631802101E+00 -0.92441226831E+01  0.48734358816E+01  0.10451403897E+02  0.51100000000E-03 0.  1.
         12    1    3    3    0    0 -0.28470381299E+01 -0.50558350300E+01  0.59533670728E+00  0.58327969071E+01  0.00000000000E+00 0. -1.
</event>
<event>
 7    1  0.2834226E-010  0.4778727E+02  0.7816164E-02  0.1312668E+00
        -11   -1    0    0    0    0  0.00000000000E+00  0.00000000000E+00  0.45593999997E+02  0.45594000000E+02  0.51100000000E-03 0.  1.
         11   -1    0    0    0    0 -0.00000000000E+00 -0.00000000000E+00 -0.45593999997E+02  0.45594000000E+02  0.51100000000E-03 0. -1.
    9900012    2    1    2    0    0  0.70439781096E+00 -0.24981408531E+02 -0.35483182911E+02  0.47787271688E+02  0.20000002936E+02 0.  0.
        -12    1    1    2    0    0 -0.70439781096E+00  0.24981408531E+02  0.35483182911E+02  0.43400728312E+02  0.00000000000E+00 0.  1.
         11    1    3    3    0    0 -0.72068010936E+01 -0.70086676012E+01 -0.77076628115E+01  0.12667575531E+02  0.51100000000E-03 0. -1.
        -11    1    3    3    0    0  0.66864355898E+01 -0.72047741371E+01 -0.84471394928E+01  0.12960376427E+02  0.51100000000E-03 0.  1.
         12    1    3    3    0    0  0.12247633148E+01 -0.10767966793E+02 -0.19328380607E+02  0.22159319730E+02  0.00000000000E+00 0. -1.
</event>
<event>
 7    1  0.2834226E-010  0.4778727E+02  0.7816164E-02  0.1312668E+00
        -11   -1    0    0    0    0  0.00000000000E+00  0.00000000000E+00  0.45593999997E+02  0.45594000000E+02  0.51100000000E-03 0.  1.
         11   -1    0    0    0    0 -0.00000000000E+00 -0.00000000000E+00 -0.45593999997E+02  0.45594000000E+02  0.51100000000E-03 0. -1.
    9900012    2    1    2    0    0  0.22942641842E+02 -0.33271926345E+02 -0.15818888811E+02  0.47787272580E+02  0.20000007000E+02 0.  0.
        -12    1    1    2    0    0 -0.22942641842E+02  0.33271926345E+02  0.15818888811E+02  0.43400727420E+02  0.00000000000E+00 0.  1.
         11    1    3    3    0    0  0.24794425865E+02 -0.34282943015E+02 -0.14403838107E+02  0.44694007297E+02  0.51100000000E-03 0. -1.
        -11    1    3    3    0    0 -0.20855343085E+01  0.46734359692E+00 -0.94201452786E+00  0.23356487367E+01  0.51100000000E-03 0.  1.
         12    1    3    3    0    0  0.23375028614E+00  0.54367307374E+00 -0.47303617602E+00  0.75761654628E+00  0.00000000000E+00 0. -1.
</event>
<event>
 7    1  0.2834226E-010  0.4778727E+02  0.7816164E-02  0.1312668E+00
        -11   -1    0    0    0    0  0.00000000000E+00  0.00000000000E+00  0.45593999997E+02  0.45594000000E+02  0.51100000000E-03 0.  1.
         11   -1    0    0    0    0 -0.00000000000E+00 -0.00000000000E+00 -0.45593999997E+02  0.45594000000E+02  0.51100000000E-03 0. -1.
    9900012    2    1    2    0    0 -0.25376363734E+02  0.32381545781E+02 -0.13823872220E+02  0.47787265136E+02  0.19999973062E+02 0.  0.
        -12    1    1    2    0    0  0.25376363734E+02 -0.32381545781E+02  0.13823872220E+02  0.43400734864E+02  0.00000000000E+00 0.  1.
         11    1    3    3    0    0 -0.18438628909E+02  0.26145171735E+02 -0.13251430940E+02  0.34628795291E+02  0.51100000000E-03 0. -1.
        -11    1    3    3    0    0  0.14613350388E+01  0.27322351869E+01  0.20162292816E+01  0.36967269292E+01  0.51100000000E-03 0.  1.
         12    1    3    3    0    0 -0.83990698642E+01  0.35041388597E+01 -0.25886705614E+01  0.94617429159E+01  0.00000000000E+00 0. -1.
</event>
<event>
 7    1  0.2834226E-010  0.4778727E+02  0.7816164E-02  0.1312668E+00
        -11   -1    0    0    0    0  0.00000000000E+00  0.00000000000E+00  0.45593999997E+02  0.45594000000E+02  0.51100000000E-03 0. -1.
         11   -1    0    0    0    0 -0.00000000000E+00 -0.00000000000E+00 -0.45593999997E+02  0.45594000000E+02  0.51100000000E-03 0.  1.
    9900012    2    1    2    0    0 -0.42179648521E+02 -0.10101885216E+02 -0.15659629072E+01  0.47787273346E+02  0.20000010495E+02 0.  0.
        -12    1    1    2    0    0  0.42179648521E+02  0.10101885216E+02  0.15659629072E+01  0.43400726654E+02  0.00000000000E+00 0.  1.
         11    1    3    3    0    0 -0.15426286642E+02 -0.12462960618E+02 -0.71027492299E+00  0.19844399655E+02  0.51100000000E-03 0.  1.
        -11    1    3    3    0    0 -0.25846453347E+02  0.98611418685E+00  0.40538152490E+00  0.25868434554E+02  0.51100000000E-03 0. -1.
         12    1    3    3    0    0 -0.90690853109E+00  0.13749612154E+01 -0.12610695091E+01  0.20744391373E+01  0.00000000000E+00 0. -1.
</event>
<event>
 7    1  0.2834226E-010  0.4778727E+02  0.7816164E-02  0.1312668E+00
        -11   -1    0    0    0    0  0.00000000000E+00  0.00000000000E+00  0.45593999997E+02  0.45594000000E+02  0.51100000000E-03 0.  1.
         11   -1    0    0    0    0 -0.00000000000E+00 -0.00000000000E+00 -0.45593999997E+02  0.45594000000E+02  0.51100000000E-03 0. -1.
    9900012    2    1    2    0    0 -0.89001065876E+01  0.42411239409E+02 -0.23870987409E+01  0.47787269985E+02  0.19999995168E+02 0.  0.
        -12    1    1    2    0    0  0.89001065876E+01 -0.42411239409E+02  0.23870987409E+01  0.43400730015E+02  0.00000000000E+00 0.  1.
         11    1    3    3    0    0 -0.27741023607E+01  0.17997450119E+02  0.62226042901E+01  0.19243821323E+02  0.51100000000E-03 0. -1.
        -11    1    3    3    0    0 -0.87506207913E+01  0.15762602332E+02 -0.71066948578E+01  0.19378805654E+02  0.51100000000E-03 0.  1.
         12    1    3    3    0    0  0.26246165644E+01  0.86511869582E+01 -0.15030081731E+01  0.91646430080E+01  0.00000000000E+00 0. -1.
</event>
<event>
 7    1  0.2834226E-010  0.4778728E+02  0.7816164E-02  0.1312668E+00
        -11   -1    0    0    0    0  0.00000000000E+00  0.00000000000E+00  0.45593999997E+02  0.45594000000E+02  0.51100000000E-03 0. -1.
         11   -1    0    0    0    0 -0.00000000000E+00 -0.00000000000E+00 -0.45593999997E+02  0.45594000000E+02  0.51100000000E-03 0.  1.
    9900012    2    1    2    0    0  0.10721073088E+02 -0.42052546411E+02 -0.51386903592E+00  0.47787284231E+02  0.20000060125E+02 0.  0.
        -12    1    1    2    0    0 -0.10721073088E+02  0.42052546411E+02  0.51386903592E+00  0.43400715769E+02  0.00000000000E+00 0.  1.
         11    1    3    3    0    0  0.89922447474E+01 -0.14437374581E+02  0.56556930911E+01  0.17924427885E+02  0.51100000000E-03 0. -1.
        -11    1    3    3    0    0  0.24539552213E+01 -0.79758171636E+01 -0.58793920020E+01  0.10207977578E+02  0.51100000000E-03 0.  1.
         12    1    3    3    0    0 -0.72512688083E+00 -0.19639354666E+02 -0.29017012502E+00  0.19654878769E+02  0.00000000000E+00 0. -1.
</event>
<event>
 7    1  0.2834226E-010  0.4778727E+02  0.7816164E-02  0.1312668E+00
        -11   -1    0    0    0    0  0.00000000000E+00  0.00000000000E+00  0.45593999997E+02  0.45594000000E+02  0.51100000000E-03 0.  1.
         11   -1    0    0    0    0 -0.00000000000E+00 -0.00000000000E+00 -0.45593999997E+02  0.45594000000E+02  0.51100000000E-03 0. -1.
    9900012    2    1    2    0    0  0.17840027304E+02 -0.19678472902E+02 -0.34323666969E+02  0.47787274382E+02  0.20000015217E+02 0.  0.
        -12    1    1    2    0    0 -0.17840027304E+02  0.19678472902E+02  0.34323666969E+02  0.43400725618E+02  0.00000000000E+00 0.  1.
         11    1    3    3    0    0  0.59688711569E+01 -0.13149286735E+02 -0.69474796169E+01  0.16024937998E+02  0.51100000000E-03 0. -1.
        -11    1    3    3    0    0  0.52587981615E+01 -0.35622252445E+01 -0.45501307620E+01  0.78133281647E+01  0.51100000000E-03 0.  1.
         12    1    3    3    0    0  0.66123579858E+01 -0.29669609224E+01 -0.22826056590E+02  0.23949008220E+02  0.00000000000E+00 0. -1.
</event>
<event>
 7    1  0.2834226E-010  0.4778727E+02  0.7816164E-02  0.1312668E+00
        -11   -1    0    0    0    0  0.00000000000E+00  0.00000000000E+00  0.45593999997E+02  0.45594000000E+02  0.51100000000E-03 0. -1.
         11   -1    0    0    0    0 -0.00000000000E+00 -0.00000000000E+00 -0.45593999997E+02  0.45594000000E+02  0.51100000000E-03 0.  1.
    9900012    2    1    2    0    0  0.20952148810E+02 -0.37399732078E+02 -0.67742499912E+01  0.47787274635E+02  0.20000016369E+02 0.  0.
        -12    1    1    2    0    0 -0.20952148810E+02  0.37399732078E+02  0.67742499912E+01  0.43400725365E+02  0.00000000000E+00 0.  1.
         11    1    3    3    0    0  0.12809998122E+02 -0.25450101691E+02 -0.11379474553E+02  0.30680550343E+02  0.51100000000E-03 0. -1.
        -11    1    3    3    0    0  0.32219757640E+01  0.12156026574E+00  0.20571131681E+01  0.38246071131E+01  0.51100000000E-03 0.  1.
         12    1    3    3    0    0  0.49201749243E+01 -0.12071190653E+02  0.25481113942E+01  0.13282117178E+02  0.00000000000E+00 0. -1.
</event>
<event>
 7    1  0.2834226E-010  0.4778727E+02  0.7816164E-02  0.1312668E+00
        -11   -1    0    0    0    0  0.00000000000E+00  0.00000000000E+00  0.45593999997E+02  0.45594000000E+02  0.51100000000E-03 0.  1.
         11   -1    0    0    0    0 -0.00000000000E+00 -0.00000000000E+00 -0.45593999997E+02  0.45594000000E+02  0.51100000000E-03 0. -1.
    9900012    2    1    2    0    0 -0.21746650680E+02 -0.13162030500E+02 -0.35177659837E+02  0.47787267122E+02  0.19999982117E+02 0.  0.
        -12    1    1    2    0    0  0.21746650680E+02  0.13162030500E+02  0.35177659837E+02  0.43400732878E+02  0.00000000000E+00 0.  1.
         11    1    3    3    0    0  0.89501201938E-01 -0.16892097176E+00 -0.19041894490E+01  0.19137613431E+01  0.51100000000E-03 0. -1.
        -11    1    3    3    0    0  0.33402654534E+01 -0.54128773590E+00 -0.48483516863E+01  0.59124343588E+01  0.51100000000E-03 0.  1.
        -12    1    3    3    0    0 -0.25176417336E+02 -0.12451821793E+02 -0.28425118702E+02  0.39961071420E+02  0.00000000000E+00 0.  1.
</event>
<event>
 7    1  0.2834226E-010  0.4778728E+02  0.7816164E-02  0.1312668E+00
        -11   -1    0    0    0    0  0.00000000000E+00  0.00000000000E+00  0.45593999997E+02  0.45594000000E+02  0.51100000000E-03 0.  1.
         11   -1    0    0    0    0 -0.00000000000E+00 -0.00000000000E+00 -0.45593999997E+02  0.45594000000E+02  0.51100000000E-03 0. -1.
    9900012    2    1    2    0    0  0.30540713130E+02 -0.68177034011E+01 -0.30073346229E+02  0.47787281209E+02  0.20000046345E+02 0.  0.
        -12    1    1    2    0    0 -0.30540713130E+02  0.68177034011E+01  0.30073346229E+02  0.43400718791E+02  0.00000000000E+00 0.  1.
         11    1    3    3    0    0  0.47342883451E+01 -0.16946393436E+01 -0.11494791204E+02  0.12546533932E+02  0.51100000000E-03 0. -1.
        -11    1    3    3    0    0  0.21614086665E+02  0.12412696213E+01 -0.10256321116E+02  0.23956243773E+02  0.51100000000E-03 0.  1.
        -12    1    3    3    0    0  0.41923381203E+01 -0.63643336788E+01 -0.83222339092E+01  0.11284503504E+02  0.00000000000E+00 0.  1.
</event>
<event>
 7    1  0.2834226E-010  0.4778727E+02  0.7816164E-02  0.1312668E+00
        -11   -1    0    0    0    0  0.00000000000E+00  0.00000000000E+00  0.45593999997E+02  0.45594000000E+02  0.51100000000E-03 0.  1.
         11   -1    0    0    0    0 -0.00000000000E+00 -0.00000000000E+00 -0.45593999997E+02  0.45594000000E+02  0.51100000000E-03 0. -1.
    9900012    2    1    2    0    0 -0.18104506183E+02  0.26038703169E+02 -0.29628301427E+02  0.47787268989E+02  0.19999990626E+02 0.  0.
        -12    1    1    2    0    0  0.18104506183E+02 -0.26038703169E+02  0.29628301427E+02  0.43400731011E+02  0.00000000000E+00 0.  1.
         11    1    3    3    0    0 -0.99142345622E+01  0.48568659047E+01 -0.19951148153E+02  0.22801962772E+02  0.51100000000E-03 0. -1.
        -11    1    3    3    0    0 -0.33092551301E+01  0.10107565545E+02 -0.25375040327E+01  0.10934028432E+02  0.51100000000E-03 0.  1.
         12    1    3    3    0    0 -0.48810164909E+01  0.11074271719E+02 -0.71396492414E+01  0.14051277785E+02  0.00000000000E+00 0. -1.
</event>
<event>
 7    1  0.2834226E-010  0.4778727E+02  0.7816164E-02  0.1312668E+00
        -11   -1    0    0    0    0  0.00000000000E+00  0.00000000000E+00  0.45593999997E+02  0.45594000000E+02  0.51100000000E-03 0. -1.
         11   -1    0    0    0    0 -0.00000000000E+00 -0.00000000000E+00 -0.45593999997E+02  0.45594000000E+02  0.51100000000E-03 0.  1.
    9900012    2    1    2    0    0 -0.37870743929E+02 -0.20307031432E+02  0.60872416082E+01  0.47787270954E+02  0.19999999589E+02 0.  0.
        -12    1    1    2    0    0  0.37870743929E+02  0.20307031432E+02 -0.60872416082E+01  0.43400729046E+02  0.00000000000E+00 0.  1.
         11    1    3    3    0    0 -0.37703349433E+01 -0.44051283595E+01 -0.36318364623E+01  0.68418431580E+01  0.51100000000E-03 0. -1.
        -11    1    3    3    0    0 -0.32991145836E+02 -0.11340314772E+02  0.98479162693E+01  0.36249136511E+02  0.51100000000E-03 0.  1.
        -12    1    3    3    0    0 -0.11092631499E+01 -0.45615883001E+01 -0.12883819876E+00  0.46962912854E+01  0.00000000000E+00 0.  1.
</event>
<event>
 7    1  0.2834226E-010  0.4778727E+02  0.7816164E-02  0.1312668E+00
        -11   -1    0    0    0    0  0.00000000000E+00  0.00000000000E+00  0.45593999997E+02  0.45594000000E+02  0.51100000000E-03 0. -1.
         11   -1    0    0    0    0 -0.00000000000E+00 -0.00000000000E+00 -0.45593999997E+02  0.45594000000E+02  0.51100000000E-03 0.  1.
    9900012    2    1    2    0    0 -0.34897756846E+01 -0.25035640835E+02  0.35279758334E+02  0.47787271959E+02  0.20000004172E+02 0.  0.
        -12    1    1    2    0    0  0.34897756846E+01  0.25035640835E+02 -0.35279758334E+02  0.43400728041E+02  0.00000000000E+00 0.  1.
         11    1    3    3    0    0  0.54108772325E+01 -0.66340697907E+01  0.20029056421E+02  0.21781909369E+02  0.51100000000E-03 0. -1.
        -11    1    3    3    0    0 -0.26214060039E+01 -0.74897738234E+01  0.31325028451E+01  0.85311813777E+01  0.51100000000E-03 0.  1.
         12    1    3    3    0    0 -0.62792469133E+01 -0.10911797221E+02  0.12118199068E+02  0.17474181212E+02  0.00000000000E+00 0. -1.
</event>
<event>
 7    1  0.2834226E-010  0.4778727E+02  0.7816164E-02  0.1312668E+00
        -11   -1    0    0    0    0  0.00000000000E+00  0.00000000000E+00  0.45593999997E+02  0.45594000000E+02  0.51100000000E-03 0.  1.
         11   -1    0    0    0    0 -0.00000000000E+00 -0.00000000000E+00 -0.45593999997E+02  0.45594000000E+02  0.51100000000E-03 0. -1.
    9900012    2    1    2    0    0  0.17824371060E+02 -0.79932544394E+01 -0.38755939053E+02  0.47787272678E+02  0.20000007449E+02 0.  0.
        -12    1    1    2    0    0 -0.17824371060E+02  0.79932544394E+01  0.38755939053E+02  0.43400727322E+02  0.00000000000E+00 0.  1.
         11    1    3    3    0    0  0.77243026714E+01 -0.98606294584E+01 -0.15370035596E+02  0.19827628692E+02  0.51100000000E-03 0. -1.
        -11    1    3    3    0    0  0.37600650116E+01  0.49159153849E+01 -0.18189747617E+02  0.19213829176E+02  0.51100000000E-03 0.  1.
        -12    1    3    3    0    0  0.63400033772E+01 -0.30485403659E+01 -0.51961558393E+01  0.87458148100E+01  0.00000000000E+00 0.  1.
</event>
<event>
 7    1  0.2834226E-010  0.4778727E+02  0.7816164E-02  0.1312668E+00
        -11   -1    0    0    0    0  0.00000000000E+00  0.00000000000E+00  0.45593999997E+02  0.45594000000E+02  0.51100000000E-03 0.  1.
         11   -1    0    0    0    0 -0.00000000000E+00 -0.00000000000E+00 -0.45593999997E+02  0.45594000000E+02  0.51100000000E-03 0. -1.
    9900012    2    1    2    0    0  0.35758686092E+02  0.15497232007E+02 -0.19099090735E+02  0.47787273072E+02  0.20000009246E+02 0.  0.
        -12    1    1    2    0    0 -0.35758686092E+02 -0.15497232007E+02  0.19099090735E+02  0.43400726928E+02  0.00000000000E+00 0.  1.
         11    1    3    3    0    0  0.28089294921E+02  0.15491969650E+02 -0.15130923907E+02  0.35467653874E+02  0.51100000000E-03 0. -1.
        -11    1    3    3    0    0 -0.52308546183E+00 -0.25075815047E+01 -0.25855637398E+01  0.36396048572E+01  0.51100000000E-03 0.  1.
        -12    1    3    3    0    0  0.81924766332E+01  0.25128438615E+01 -0.13826030882E+01  0.86800143409E+01  0.00000000000E+00 0.  1.
</event>
<event>
 7    1  0.2834226E-010  0.4778726E+02  0.7816164E-02  0.1312668E+00
        -11   -1    0    0    0    0  0.00000000000E+00  0.00000000000E+00  0.45593999997E+02  0.45594000000E+02  0.51100000000E-03 0.  1.
         11   -1    0    0    0    0 -0.00000000000E+00 -0.00000000000E+00 -0.45593999997E+02  0.45594000000E+02  0.51100000000E-03 0. -1.
    9900012    2    1    2    0    0 -0.33139582480E+02  0.20331590723E+02 -0.19287780331E+02  0.47787262928E+02  0.19999962992E+02 0.  0.
        -12    1    1    2    0    0  0.33139582480E+02 -0.20331590723E+02  0.19287780331E+02  0.43400737072E+02  0.00000000000E+00 0.  1.
         11    1    3    3    0    0 -0.18781079397E+02  0.78319979079E+01 -0.10439338234E+01  0.20375449262E+02  0.51100000000E-03 0. -1.
        -11    1    3    3    0    0 -0.71708785244E+01  0.35154893902E+01 -0.11729353584E+02  0.14190063432E+02  0.51100000000E-03 0.  1.
        -12    1    3    3    0    0 -0.71876245587E+01  0.89841034253E+01 -0.65144929242E+01  0.13221750233E+02  0.00000000000E+00 0.  1.
</event>
<event>
 7    1  0.2834226E-010  0.4778727E+02  0.7816164E-02  0.1312668E+00
        -11   -1    0    0    0    0  0.00000000000E+00  0.00000000000E+00  0.45593999997E+02  0.45594000000E+02  0.51100000000E-03 0. -1.
         11   -1    0    0    0    0 -0.00000000000E+00 -0.00000000000E+00 -0.45593999997E+02  0.45594000000E+02  0.51100000000E-03 0.  1.
    9900012    2    1    2    0    0 -0.39806145784E+02  0.26204217987E+01 -0.17094664721E+02  0.47787269425E+02  0.19999992615E+02 0.  0.
        -12    1    1    2    0    0  0.39806145784E+02 -0.26204217987E+01  0.17094664721E+02  0.43400730575E+02  0.00000000000E+00 0.  1.
         11    1    3    3    0    0 -0.25952429840E+02 -0.47123648300E+01 -0.32089634817E+01  0.26571271023E+02  0.51100000000E-03 0. -1.
        -11    1    3    3    0    0 -0.65839845661E+01  0.33332433950E+01 -0.87973832238E+01  0.11482739923E+02  0.51100000000E-03 0.  1.
         12    1    3    3    0    0 -0.72697313772E+01  0.39995432336E+01 -0.50883180154E+01  0.97332584781E+01  0.00000000000E+00 0. -1.
</event>
<event>
 7    1  0.2834226E-010  0.4778727E+02  0.7816164E-02  0.1312668E+00
        -11   -1    0    0    0    0  0.00000000000E+00  0.00000000000E+00  0.45593999997E+02  0.45594000000E+02  0.51100000000E-03 0.  1.
         11   -1    0    0    0    0 -0.00000000000E+00 -0.00000000000E+00 -0.45593999997E+02  0.45594000000E+02  0.51100000000E-03 0. -1.
    9900012    2    1    2    0    0 -0.22327029253E+02 -0.27367833130E+02 -0.25221590629E+02  0.47787272364E+02  0.20000006016E+02 0.  0.
        -12    1    1    2    0    0  0.22327029253E+02  0.27367833130E+02  0.25221590629E+02  0.43400727636E+02  0.00000000000E+00 0.  1.
         11    1    3    3    0    0 -0.71316729010E+01 -0.12997291098E+02 -0.18413545338E+02  0.23639987022E+02  0.51100000000E-03 0. -1.
        -11    1    3    3    0    0 -0.11586046249E+02 -0.42255825902E+01 -0.45504097488E+01  0.13145274628E+02  0.51100000000E-03 0.  1.
        -12    1    3    3    0    0 -0.36093101030E+01 -0.10144959442E+02 -0.22576355423E+01  0.11002010714E+02  0.00000000000E+00 0.  1.
</event>
<event>
 7    1  0.2834226E-010  0.4778728E+02  0.7816164E-02  0.1312668E+00
        -11   -1    0    0    0    0  0.00000000000E+00  0.00000000000E+00  0.45593999997E+02  0.45594000000E+02  0.51100000000E-03 0. -1.
         11   -1    0    0    0    0 -0.00000000000E+00 -0.00000000000E+00 -0.45593999997E+02  0.45594000000E+02  0.51100000000E-03 0.  1.
    9900012    2    1    2    0    0  0.12536314931E+02 -0.28781303268E+02  0.29968320741E+02  0.47787275837E+02  0.20000021852E+02 0.  0.
        -12    1    1    2    0    0 -0.12536314931E+02  0.28781303268E+02 -0.29968320741E+02  0.43400724163E+02  0.00000000000E+00 0.  1.
         11    1    3    3    0    0  0.14809650784E+02 -0.13916773561E+02  0.19566369079E+02  0.28210727426E+02  0.51100000000E-03 0. -1.
        -11    1    3    3    0    0 -0.23428321807E+01 -0.35789246914E+01  0.62030264156E+01  0.75349254507E+01  0.51100000000E-03 0.  1.
         12    1    3    3    0    0  0.69496327438E-01 -0.11285605015E+02  0.41989252462E+01  0.12041622960E+02  0.00000000000E+00 0. -1.
</event>
<event>
 7    1  0.2834226E-010  0.4778727E+02  0.7816164E-02  0.1312668E+00
        -11   -1    0    0    0    0  0.00000000000E+00  0.00000000000E+00  0.45593999997E+02  0.45594000000E+02  0.51100000000E-03 0. -1.
         11   -1    0    0    0    0 -0.00000000000E+00 -0.00000000000E+00 -0.45593999997E+02  0.45594000000E+02  0.51100000000E-03 0.  1.
    9900012    2    1    2    0    0 -0.26736232632E+02 -0.32654451073E+01  0.34031365358E+02  0.47787273102E+02  0.20000009382E+02 0.  0.
        -12    1    1    2    0    0  0.26736232632E+02  0.32654451073E+01 -0.34031365358E+02  0.43400726898E+02  0.00000000000E+00 0.  1.
         11    1    3    3    0    0 -0.10079237089E+02 -0.27839160184E+01  0.86860262933E+01  0.13593684626E+02  0.51100000000E-03 0. -1.
        -11    1    3    3    0    0 -0.99253386216E+01  0.36649927749E+01  0.37977905475E+01  0.11241340316E+02  0.51100000000E-03 0.  1.
        -12    1    3    3    0    0 -0.67316569214E+01 -0.41465218639E+01  0.21547548518E+02  0.22952248160E+02  0.00000000000E+00 0.  1.
</event>
<event>
 7    1  0.2834226E-010  0.4778727E+02  0.7816164E-02  0.1312668E+00
        -11   -1    0    0    0    0  0.00000000000E+00  0.00000000000E+00  0.45593999997E+02  0.45594000000E+02  0.51100000000E-03 0. -1.
         11   -1    0    0    0    0 -0.00000000000E+00 -0.00000000000E+00 -0.45593999997E+02  0.45594000000E+02  0.51100000000E-03 0.  1.
    9900012    2    1    2    0    0  0.10390194417E+02  0.29386022073E+02  0.30201471117E+02  0.47787270848E+02  0.19999999104E+02 0.  0.
        -12    1    1    2    0    0 -0.10390194417E+02 -0.29386022073E+02 -0.30201471117E+02  0.43400729152E+02  0.00000000000E+00 0.  1.
         11    1    3    3    0    0 -0.27334218138E+01  0.13767426935E+02  0.13886822374E+02  0.19744808814E+02  0.51100000000E-03 0. -1.
        -11    1    3    3    0    0  0.13509997585E+02  0.91895246909E+01  0.12322698469E+02  0.20465001749E+02  0.51100000000E-03 0.  1.
        -12    1    3    3    0    0 -0.38638135386E+00  0.64290704469E+01  0.39919502747E+01  0.75774602841E+01  0.00000000000E+00 0.  1.
</event>
<event>
 7    1  0.2834226E-010  0.4778727E+02  0.7816164E-02  0.1312668E+00
        -11   -1    0    0    0    0  0.00000000000E+00  0.00000000000E+00  0.45593999997E+02  0.45594000000E+02  0.51100000000E-03 0. -1.
         11   -1    0    0    0    0 -0.00000000000E+00 -0.00000000000E+00 -0.45593999997E+02  0.45594000000E+02  0.51100000000E-03 0.  1.
    9900012    2    1    2    0    0  0.33626135925E+02 -0.24650406691E+02  0.12052528120E+02  0.47787274184E+02  0.20000014315E+02 0.  0.
        -12    1    1    2    0    0 -0.33626135925E+02  0.24650406691E+02 -0.12052528120E+02  0.43400725816E+02  0.00000000000E+00 0.  1.
         11    1    3    3    0    0  0.11722312050E+02 -0.18583853961E+02  0.97857680192E+01  0.24052723002E+02  0.51100000000E-03 0. -1.
        -11    1    3    3    0    0  0.13421625188E+02 -0.88020654822E+00  0.29458088147E+01  0.13769262003E+02  0.51100000000E-03 0.  1.
         12    1    3    3    0    0  0.84821986858E+01 -0.51863461822E+01 -0.67904871432E+00  0.99652891792E+01  0.00000000000E+00 0. -1.
</event>
<event>
 7    1  0.2834226E-010  0.4778727E+02  0.7816164E-02  0.1312668E+00
        -11   -1    0    0    0    0  0.00000000000E+00  0.00000000000E+00  0.45593999997E+02  0.45594000000E+02  0.51100000000E-03 0. -1.
         11   -1    0    0    0    0 -0.00000000000E+00 -0.00000000000E+00 -0.45593999997E+02  0.45594000000E+02  0.51100000000E-03 0.  1.
    9900012    2    1    2    0    0  0.14948438445E+02 -0.12286138108E+02  0.38848657219E+02  0.47787272250E+02  0.20000005496E+02 0.  0.
        -12    1    1    2    0    0 -0.14948438445E+02  0.12286138108E+02 -0.38848657219E+02  0.43400727750E+02  0.00000000000E+00 0.  1.
         11    1    3    3    0    0 -0.32435595670E+01 -0.41782455725E+01  0.55534785599E+01  0.76693897479E+01  0.51100000000E-03 0. -1.
        -11    1    3    3    0    0  0.17792081212E+02 -0.92182932953E+01  0.26512208332E+02  0.33232999805E+02  0.51100000000E-03 0.  1.
        -12    1    3    3    0    0  0.39991679978E+00  0.11104007601E+01  0.67829703268E+01  0.68848826968E+01  0.00000000000E+00 0.  1.
</event>
<event>
 7    1  0.2834226E-010  0.4778727E+02  0.7816164E-02  0.1312668E+00
        -11   -1    0    0    0    0  0.00000000000E+00  0.00000000000E+00  0.45593999997E+02  0.45594000000E+02  0.51100000000E-03 0.  1.
         11   -1    0    0    0    0 -0.00000000000E+00 -0.00000000000E+00 -0.45593999997E+02  0.45594000000E+02  0.51100000000E-03 0. -1.
    9900012    2    1    2    0    0  0.73959285566E+01 -0.25427222437E+02 -0.34385752453E+02  0.47787269916E+02  0.19999994854E+02 0.  0.
        -12    1    1    2    0    0 -0.73959285566E+01  0.25427222437E+02  0.34385752453E+02  0.43400730084E+02  0.00000000000E+00 0.  1.
         11    1    3    3    0    0  0.11980396219E+02 -0.17554085998E+02 -0.17216263920E+02  0.27350970228E+02  0.51100000000E-03 0. -1.
        -11    1    3    3    0    0 -0.35632356845E+01 -0.18165631938E+01 -0.30214600984E+01  0.50125613979E+01  0.51100000000E-03 0.  1.
         12    1    3    3    0    0 -0.10212319785E+01 -0.60565732449E+01 -0.14148028435E+02  0.15423738290E+02  0.00000000000E+00 0. -1.
</event>
<event>
 7    1  0.2834226E-010  0.4778727E+02  0.7816164E-02  0.1312668E+00
        -11   -1    0    0    0    0  0.00000000000E+00  0.00000000000E+00  0.45593999997E+02  0.45594000000E+02  0.51100000000E-03 0.  1.
         11   -1    0    0    0    0 -0.00000000000E+00 -0.00000000000E+00 -0.45593999997E+02  0.45594000000E+02  0.51100000000E-03 0. -1.
    9900012    2    1    2    0    0  0.51321829443E+01  0.27289331147E+02 -0.33355311321E+02  0.47787266255E+02  0.19999978164E+02 0.  0.
        -12    1    1    2    0    0 -0.51321829443E+01 -0.27289331147E+02  0.33355311321E+02  0.43400733745E+02  0.00000000000E+00 0.  1.
         11    1    3    3    0    0  0.89668719447E+01  0.19593835872E+02 -0.14387030355E+02  0.25909647611E+02  0.51100000000E-03 0. -1.
        -11    1    3    3    0    0 -0.43365275635E+01  0.13921129301E+01 -0.72431892904E+01  0.85561230167E+01  0.51100000000E-03 0.  1.
         12    1    3    3    0    0  0.50183856304E+00  0.63033823456E+01 -0.11725091676E+02  0.13321495628E+02  0.00000000000E+00 0. -1.
</event>
<event>
 7    1  0.2834226E-010  0.4778726E+02  0.7816164E-02  0.1312668E+00
        -11   -1    0    0    0    0  0.00000000000E+00  0.00000000000E+00  0.45593999997E+02  0.45594000000E+02  0.51100000000E-03 0.  1.
         11   -1    0    0    0    0 -0.00000000000E+00 -0.00000000000E+00 -0.45593999997E+02  0.45594000000E+02  0.51100000000E-03 0. -1.
    9900012    2    1    2    0    0  0.37691792947E+01 -0.40783898833E+02  0.14355860642E+02  0.47787264391E+02  0.19999969664E+02 0.  0.
        -12    1    1    2    0    0 -0.37691792947E+01  0.40783898833E+02 -0.14355860642E+02  0.43400735609E+02  0.00000000000E+00 0.  1.
         11    1    3    3    0    0 -0.10728622420E+01 -0.22349207796E+02  0.15258179378E+02  0.27082284998E+02  0.51100000000E-03 0. -1.
        -11    1    3    3    0    0 -0.13322133211E+00 -0.11469066086E+02 -0.30724068523E+01  0.11874211929E+02  0.51100000000E-03 0.  1.
         12    1    3    3    0    0  0.49752628688E+01 -0.69656249509E+01  0.21700881172E+01  0.88307674642E+01  0.00000000000E+00 0. -1.
</event>
<event>
 7    1  0.2834226E-010  0.4778727E+02  0.7816164E-02  0.1312668E+00
        -11   -1    0    0    0    0  0.00000000000E+00  0.00000000000E+00  0.45593999997E+02  0.45594000000E+02  0.51100000000E-03 0. -1.
         11   -1    0    0    0    0 -0.00000000000E+00 -0.00000000000E+00 -0.45593999997E+02  0.45594000000E+02  0.51100000000E-03 0.  1.
    9900012    2    1    2    0    0  0.37795075750E+02 -0.15262874588E+02  0.14906373380E+02  0.47787273520E+02  0.20000011288E+02 0.  0.
        -12    1    1    2    0    0 -0.37795075750E+02  0.15262874588E+02 -0.14906373380E+02  0.43400726480E+02  0.00000000000E+00 0.  1.
         11    1    3    3    0    0  0.27609501330E+02 -0.15572500836E+02  0.73271047243E+01  0.32534194471E+02  0.51100000000E-03 0. -1.
        -11    1    3    3    0    0  0.27540709156E+01  0.40459776791E+01  0.32589400492E+01  0.58800962996E+01  0.51100000000E-03 0.  1.
        -12    1    3    3    0    0  0.74315035045E+01 -0.37363514319E+01  0.43203286068E+01  0.93729827500E+01  0.00000000000E+00 0.  1.
</event>
<event>
 7    1  0.2834226E-010  0.4778727E+02  0.7816164E-02  0.1312668E+00
        -11   -1    0    0    0    0  0.00000000000E+00  0.00000000000E+00  0.45593999997E+02  0.45594000000E+02  0.51100000000E-03 0.  1.
         11   -1    0    0    0    0 -0.00000000000E+00 -0.00000000000E+00 -0.45593999997E+02  0.45594000000E+02  0.51100000000E-03 0. -1.
    9900012    2    1    2    0    0 -0.69262759710E+01  0.19351776693E+02 -0.38225105078E+02  0.47787271685E+02  0.20000002923E+02 0.  0.
        -12    1    1    2    0    0  0.69262759710E+01 -0.19351776693E+02  0.38225105078E+02  0.43400728315E+02  0.00000000000E+00 0.  1.
         11    1    3    3    0    0  0.50919045658E+01  0.47544152773E+01 -0.16280402230E+02  0.17708287714E+02  0.51100000000E-03 0. -1.
        -11    1    3    3    0    0 -0.71446212068E+01  0.75297582981E+01 -0.17658883956E+02  0.20483628952E+02  0.51100000000E-03 0.  1.
         12    1    3    3    0    0 -0.48735593300E+01  0.70676031173E+01 -0.42858188922E+01  0.95953550191E+01  0.00000000000E+00 0. -1.
</event>
<event>
 7    1  0.2834226E-010  0.4778726E+02  0.7816164E-02  0.1312668E+00
        -11   -1    0    0    0    0  0.00000000000E+00  0.00000000000E+00  0.45593999997E+02  0.45594000000E+02  0.51100000000E-03 0.  1.
         11   -1    0    0    0    0 -0.00000000000E+00 -0.00000000000E+00 -0.45593999997E+02  0.45594000000E+02  0.51100000000E-03 0. -1.
    9900012    2    1    2    0    0  0.72173721456E+01  0.34684368176E+02 -0.25070461306E+02  0.47787263986E+02  0.19999967819E+02 0.  0.
        -12    1    1    2    0    0 -0.72173721456E+01 -0.34684368176E+02  0.25070461306E+02  0.43400736014E+02  0.00000000000E+00 0.  1.
         11    1    3    3    0    0  0.35102624878E+01  0.19429615343E+02 -0.23206307768E+02  0.30469076382E+02  0.51100000000E-03 0. -1.
        -11    1    3    3    0    0  0.25806783301E+01  0.34549089851E+01  0.21302035751E+01  0.48097883811E+01  0.51100000000E-03 0.  1.
         12    1    3    3    0    0  0.11264313277E+01  0.11799843848E+02 -0.39943571132E+01  0.12508399223E+02  0.00000000000E+00 0. -1.
</event>
<event>
 7    1  0.2834226E-010  0.4778727E+02  0.7816164E-02  0.1312668E+00
        -11   -1    0    0    0    0  0.00000000000E+00  0.00000000000E+00  0.45593999997E+02  0.45594000000E+02  0.51100000000E-03 0.  1.
         11   -1    0    0    0    0 -0.00000000000E+00 -0.00000000000E+00 -0.45593999997E+02  0.45594000000E+02  0.51100000000E-03 0. -1.
    9900012    2    1    2    0    0  0.25477278681E+02 -0.27761569979E+02 -0.21536635784E+02  0.47787272154E+02  0.20000005057E+02 0.  0.
        -12    1    1    2    0    0 -0.25477278681E+02  0.27761569979E+02  0.21536635784E+02  0.43400727846E+02  0.00000000000E+00 0.  1.
         11    1    3    3    0    0 -0.88755686188E+00  0.15100432479E+01 -0.24967643033E+01  0.30498885292E+01  0.51100000000E-03 0. -1.
        -11    1    3    3    0    0  0.27083704133E+01 -0.82508151189E+01 -0.57409758720E+01  0.10410092442E+02  0.51100000000E-03 0.  1.
         12    1    3    3    0    0  0.23656465129E+02 -0.21020798108E+02 -0.13298895609E+02  0.34327291183E+02  0.00000000000E+00 0. -1.
</event>
<event>
 7    1  0.2834226E-010  0.4778727E+02  0.7816164E-02  0.1312668E+00
        -11   -1    0    0    0    0  0.00000000000E+00  0.00000000000E+00  0.45593999997E+02  0.45594000000E+02  0.51100000000E-03 0.  1.
         11   -1    0    0    0    0 -0.00000000000E+00 -0.00000000000E+00 -0.45593999997E+02  0.45594000000E+02  0.51100000000E-03 0. -1.
    9900012    2    1    2    0    0 -0.69670720138E+01 -0.36303069993E+02 -0.22741376289E+02  0.47787272139E+02  0.20000004989E+02 0.  0.
        -12    1    1    2    0    0  0.69670720138E+01  0.36303069993E+02  0.22741376289E+02  0.43400727861E+02  0.00000000000E+00 0.  1.
         11    1    3    3    0    0  0.16447258930E+01 -0.27011410981E+01 -0.15640347291E+01  0.35281002522E+01  0.51100000000E-03 0. -1.
        -11    1    3    3    0    0 -0.18230256406E+01 -0.64944913120E+01  0.29287112399E+01  0.73538554294E+01  0.51100000000E-03 0.  1.
        -12    1    3    3    0    0 -0.67887722662E+01 -0.27107437583E+02 -0.24106052800E+02  0.36905316457E+02  0.00000000000E+00 0.  1.
</event>
<event>
 7    1  0.2834226E-010  0.4778727E+02  0.7816164E-02  0.1312668E+00
        -11   -1    0    0    0    0  0.00000000000E+00  0.00000000000E+00  0.45593999997E+02  0.45594000000E+02  0.51100000000E-03 0. -1.
         11   -1    0    0    0    0 -0.00000000000E+00 -0.00000000000E+00 -0.45593999997E+02  0.45594000000E+02  0.51100000000E-03 0.  1.
    9900012    2    1    2    0    0  0.21915903931E+02  0.28256833254E+02  0.24594061841E+02  0.47787270185E+02  0.19999996081E+02 0.  0.
        -12    1    1    2    0    0 -0.21915903931E+02 -0.28256833254E+02 -0.24594061841E+02  0.43400729815E+02  0.00000000000E+00 0.  1.
         11    1    3    3    0    0  0.75608471366E+01  0.98920263140E+01  0.41911583327E+00  0.12457698518E+02  0.51100000000E-03 0. -1.
        -11    1    3    3    0    0  0.37349174648E+01  0.73067333588E+01  0.21311752476E+01  0.84781996345E+01  0.51100000000E-03 0.  1.
         12    1    3    3    0    0  0.10620139329E+02  0.11058073581E+02  0.22043770760E+02  0.26851372033E+02  0.00000000000E+00 0. -1.
</event>
<event>
 7    1  0.2834226E-010  0.4778727E+02  0.7816164E-02  0.1312668E+00
        -11   -1    0    0    0    0  0.00000000000E+00  0.00000000000E+00  0.45593999997E+02  0.45594000000E+02  0.51100000000E-03 0.  1.
         11   -1    0    0    0    0 -0.00000000000E+00 -0.00000000000E+00 -0.45593999997E+02  0.45594000000E+02  0.51100000000E-03 0. -1.
    9900012    2    1    2    0    0 -0.16681127440E+01  0.91680660661E+01 -0.42388530514E+02  0.47787267809E+02  0.19999985249E+02 0.  0.
        -12    1    1    2    0    0  0.16681127440E+01 -0.91680660661E+01  0.42388530514E+02  0.43400732191E+02  0.00000000000E+00 0.  1.
         11    1    3    3    0    0 -0.59690461656E+01  0.87421600647E+01 -0.39563796612E+02  0.40955449910E+02  0.51100000000E-03 0. -1.
        -11    1    3    3    0    0  0.32270322660E+01  0.18342096625E+01 -0.26792815158E+00  0.37215384034E+01  0.51100000000E-03 0.  1.
         12    1    3    3    0    0  0.10739011556E+01 -0.14083036611E+01 -0.25568057512E+01  0.31102794960E+01  0.00000000000E+00 0. -1.
</event>
<event>
 7    1  0.2834226E-010  0.4778725E+02  0.7816164E-02  0.1312668E+00
        -11   -1    0    0    0    0  0.00000000000E+00  0.00000000000E+00  0.45593999997E+02  0.45594000000E+02  0.51100000000E-03 0. -1.
         11   -1    0    0    0    0 -0.00000000000E+00 -0.00000000000E+00 -0.45593999997E+02  0.45594000000E+02  0.51100000000E-03 0.  1.
    9900012    2    1    2    0    0 -0.18858454793E+02 -0.31808201274E+02  0.22720518599E+02  0.47787251724E+02  0.19999911912E+02 0.  0.
        -12    1    1    2    0    0  0.18858454793E+02  0.31808201274E+02 -0.22720518599E+02  0.43400748276E+02  0.00000000000E+00 0.  1.
         11    1    3    3    0    0 -0.10085347988E+01 -0.90897746404E+01  0.19460771108E+01  0.93503134619E+01  0.51100000000E-03 0. -1.
        -11    1    3    3    0    0 -0.20038606722E+02 -0.20594840080E+02  0.16342272704E+02  0.33056967113E+02  0.51100000000E-03 0.  1.
        -12    1    3    3    0    0  0.21886867278E+01 -0.21235865535E+01  0.44321687839E+01  0.53799711497E+01  0.00000000000E+00 0.  1.
</event>
<event>
 7    1  0.2834226E-010  0.4778727E+02  0.7816164E-02  0.1312668E+00
        -11   -1    0    0    0    0  0.00000000000E+00  0.00000000000E+00  0.45593999997E+02  0.45594000000E+02  0.51100000000E-03 0.  1.
         11   -1    0    0    0    0 -0.00000000000E+00 -0.00000000000E+00 -0.45593999997E+02  0.45594000000E+02  0.51100000000E-03 0. -1.
    9900012    2    1    2    0    0 -0.36687538249E+02 -0.10720449509E+02 -0.20560152114E+02  0.47787270105E+02  0.19999995717E+02 0.  0.
        -12    1    1    2    0    0  0.36687538249E+02  0.10720449509E+02  0.20560152114E+02  0.43400729895E+02  0.00000000000E+00 0.  1.
         11    1    3    3    0    0 -0.10022436996E+02  0.16978707413E+01 -0.97263057797E+01  0.14068867501E+02  0.51100000000E-03 0. -1.
        -11    1    3    3    0    0 -0.19145842705E+02 -0.10123759049E+02 -0.17843846555E+01  0.21731033547E+02  0.51100000000E-03 0.  1.
        -12    1    3    3    0    0 -0.75192585485E+01 -0.22945612014E+01 -0.90494616783E+01  0.11987369056E+02  0.00000000000E+00 0.  1.
</event>
<event>
 7    1  0.2834226E-010  0.4778727E+02  0.7816164E-02  0.1312668E+00
        -11   -1    0    0    0    0  0.00000000000E+00  0.00000000000E+00  0.45593999997E+02  0.45594000000E+02  0.51100000000E-03 0.  1.
         11   -1    0    0    0    0 -0.00000000000E+00 -0.00000000000E+00 -0.45593999997E+02  0.45594000000E+02  0.51100000000E-03 0. -1.
    9900012    2    1    2    0    0 -0.36479693966E+02 -0.19790001749E+02  0.12696884981E+02  0.47787272710E+02  0.20000007595E+02 0.  0.
        -12    1    1    2    0    0  0.36479693966E+02  0.19790001749E+02 -0.12696884981E+02  0.43400727290E+02  0.00000000000E+00 0.  1.
         11    1    3    3    0    0 -0.27765620386E+02 -0.74843704042E+01  0.46441524282E+01  0.29129257248E+02  0.51100000000E-03 0. -1.
        -11    1    3    3    0    0 -0.41058576573E+01 -0.35803479231E+01  0.67974719016E+01  0.87110609495E+01  0.51100000000E-03 0.  1.
         12    1    3    3    0    0 -0.46082159218E+01 -0.87252834217E+01  0.12552606515E+01  0.99469545125E+01  0.00000000000E+00 0. -1.
</event>
<event>
 7    1  0.2834226E-010  0.4778725E+02  0.7816164E-02  0.1312668E+00
        -11   -1    0    0    0    0  0.00000000000E+00  0.00000000000E+00  0.45593999997E+02  0.45594000000E+02  0.51100000000E-03 0. -1.
         11   -1    0    0    0    0 -0.00000000000E+00 -0.00000000000E+00 -0.45593999997E+02  0.45594000000E+02  0.51100000000E-03 0.  1.
    9900012    2    1    2    0    0  0.41207908256E+01  0.42637364349E+02 -0.69784958084E+01  0.47787249322E+02  0.19999900960E+02 0.  0.
        -12    1    1    2    0    0 -0.41207908256E+01 -0.42637364349E+02  0.69784958084E+01  0.43400750678E+02  0.00000000000E+00 0.  1.
         11    1    3    3    0    0 -0.96508665042E+00  0.21154414854E+02 -0.30866432657E+01  0.21400187545E+02  0.51100000000E-03 0. -1.
        -11    1    3    3    0    0  0.16680442804E+00  0.83949174480E+00  0.37387266517E+01  0.38354461727E+01  0.51100000000E-03 0.  1.
        -12    1    3    3    0    0  0.49190730480E+01  0.20643457750E+02 -0.76305791943E+01  0.22551615604E+02  0.00000000000E+00 0.  1.
</event>
<event>
 7    1  0.2834226E-010  0.4778727E+02  0.7816164E-02  0.1312668E+00
        -11   -1    0    0    0    0  0.00000000000E+00  0.00000000000E+00  0.45593999997E+02  0.45594000000E+02  0.51100000000E-03 0.  1.
         11   -1    0    0    0    0 -0.00000000000E+00 -0.00000000000E+00 -0.45593999997E+02  0.45594000000E+02  0.51100000000E-03 0. -1.
    9900012    2    1    2    0    0 -0.30499943272E+02  0.23869548037E+02 -0.19586254947E+02  0.47787271366E+02  0.20000001468E+02 0.  0.
        -12    1    1    2    0    0  0.30499943272E+02 -0.23869548037E+02  0.19586254947E+02  0.43400728634E+02  0.00000000000E+00 0.  1.
         11    1    3    3    0    0 -0.19268840099E+02  0.18906164313E+02 -0.21982630220E+02  0.34813320431E+02  0.51100000000E-03 0. -1.
        -11    1    3    3    0    0 -0.55946315249E+01  0.37587221737E+01  0.25548823771E+01  0.72080037805E+01  0.51100000000E-03 0.  1.
         12    1    3    3    0    0 -0.56364716483E+01  0.12046615509E+01 -0.15850710410E+00  0.57659471552E+01  0.00000000000E+00 0. -1.
</event>
<event>
 7    1  0.2834226E-010  0.4778728E+02  0.7816164E-02  0.1312668E+00
        -11   -1    0    0    0    0  0.00000000000E+00  0.00000000000E+00  0.45593999997E+02  0.45594000000E+02  0.51100000000E-03 0. -1.
         11   -1    0    0    0    0 -0.00000000000E+00 -0.00000000000E+00 -0.45593999997E+02  0.45594000000E+02  0.51100000000E-03 0.  1.
    9900012    2    1    2    0    0 -0.27785240196E+02 -0.32142781318E+02 -0.88569160477E+01  0.47787275059E+02  0.20000018302E+02 0.  0.
        -12    1    1    2    0    0  0.27785240196E+02  0.32142781318E+02  0.88569160477E+01  0.43400724941E+02  0.00000000000E+00 0.  1.
         11    1    3    3    0    0 -0.21520453043E+02 -0.15851619662E+02 -0.86253535567E+01  0.28085591846E+02  0.51100000000E-03 0. -1.
        -11    1    3    3    0    0 -0.41389017399E+01 -0.41029279489E+01 -0.36365716069E+01  0.68694380177E+01  0.51100000000E-03 0.  1.
         12    1    3    3    0    0 -0.21258854129E+01 -0.12188233706E+02  0.34050091160E+01  0.12832245195E+02  0.00000000000E+00 0. -1.
</event>
<event>
 7    1  0.2834226E-010  0.4778727E+02  0.7816164E-02  0.1312668E+00
        -11   -1    0    0    0    0  0.00000000000E+00  0.00000000000E+00  0.45593999997E+02  0.45594000000E+02  0.51100000000E-03 0. -1.
         11   -1    0    0    0    0 -0.00000000000E+00 -0.00000000000E+00 -0.45593999997E+02  0.45594000000E+02  0.51100000000E-03 0.  1.
    9900012    2    1    2    0    0  0.93214707515E+01  0.41656322043E+02 -0.78411851972E+01  0.47787272259E+02  0.20000005537E+02 0.  0.
        -12    1    1    2    0    0 -0.93214707515E+01 -0.41656322043E+02  0.78411851972E+01  0.43400727741E+02  0.00000000000E+00 0.  1.
         11    1    3    3    0    0  0.84259324189E+01  0.21832278601E+02 -0.10641853371E+02  0.25707854237E+02  0.51100000000E-03 0. -1.
        -11    1    3    3    0    0 -0.28562951538E+01  0.26010209590E+01 -0.11190246615E+01  0.40219334267E+01  0.51100000000E-03 0.  1.
         12    1    3    3    0    0  0.37518334864E+01  0.17223022483E+02  0.39196928358E+01  0.18057484595E+02  0.00000000000E+00 0. -1.
</event>
<event>
 7    1  0.2834226E-010  0.4778727E+02  0.7816164E-02  0.1312668E+00
        -11   -1    0    0    0    0  0.00000000000E+00  0.00000000000E+00  0.45593999997E+02  0.45594000000E+02  0.51100000000E-03 0.  1.
         11   -1    0    0    0    0 -0.00000000000E+00 -0.00000000000E+00 -0.45593999997E+02  0.45594000000E+02  0.51100000000E-03 0. -1.
    9900012    2    1    2    0    0  0.14274556753E+02  0.33300450097E+02  0.23894350597E+02  0.47787274918E+02  0.20000017662E+02 0.  0.
        -12    1    1    2    0    0 -0.14274556753E+02 -0.33300450097E+02 -0.23894350597E+02  0.43400725082E+02  0.00000000000E+00 0.  1.
         11    1    3    3    0    0  0.79321059976E+01  0.82596508411E+01 -0.12594832379E+01  0.11520695980E+02  0.51100000000E-03 0. -1.
        -11    1    3    3    0    0  0.27275278555E+01  0.13476673143E+02  0.10809935415E+02  0.17490421126E+02  0.51100000000E-03 0.  1.
         12    1    3    3    0    0  0.36149229002E+01  0.11564126113E+02  0.14343898420E+02  0.18776157813E+02  0.00000000000E+00 0. -1.
</event>
<event>
 7    1  0.2834226E-010  0.4778727E+02  0.7816164E-02  0.1312668E+00
        -11   -1    0    0    0    0  0.00000000000E+00  0.00000000000E+00  0.45593999997E+02  0.45594000000E+02  0.51100000000E-03 0.  1.
         11   -1    0    0    0    0 -0.00000000000E+00 -0.00000000000E+00 -0.45593999997E+02  0.45594000000E+02  0.51100000000E-03 0. -1.
    9900012    2    1    2    0    0  0.25492082706E+02 -0.34768274676E+02  0.49944127463E+01  0.47787270014E+02  0.19999995304E+02 0.  0.
        -12    1    1    2    0    0 -0.25492082706E+02  0.34768274676E+02 -0.49944127463E+01  0.43400729986E+02  0.00000000000E+00 0.  1.
         11    1    3    3    0    0  0.14800581388E+02 -0.20098173074E+02 -0.50908942062E+01  0.25473731066E+02  0.51100000000E-03 0. -1.
        -11    1    3    3    0    0  0.10300168479E+02 -0.13243067242E+02  0.11440852523E+02  0.20306782300E+02  0.51100000000E-03 0.  1.
        -12    1    3    3    0    0  0.39133283875E+00 -0.14270343588E+01 -0.13555455702E+01  0.20067566481E+01  0.00000000000E+00 0.  1.
</event>
<event>
 7    1  0.2834226E-010  0.4778727E+02  0.7816164E-02  0.1312668E+00
        -11   -1    0    0    0    0  0.00000000000E+00  0.00000000000E+00  0.45593999997E+02  0.45594000000E+02  0.51100000000E-03 0.  1.
         11   -1    0    0    0    0 -0.00000000000E+00 -0.00000000000E+00 -0.45593999997E+02  0.45594000000E+02  0.51100000000E-03 0. -1.
    9900012    2    1    2    0    0 -0.16382453913E+02  0.35151245808E+02 -0.19484049342E+02  0.47787273545E+02  0.20000011402E+02 0.  0.
        -12    1    1    2    0    0  0.16382453913E+02 -0.35151245808E+02  0.19484049342E+02  0.43400726455E+02  0.00000000000E+00 0.  1.
         11    1    3    3    0    0 -0.11111478894E+01  0.22622441265E+02 -0.13965354349E+02  0.26609032692E+02  0.51100000000E-03 0. -1.
        -11    1    3    3    0    0 -0.13798244025E+02  0.11261633358E+02 -0.65520023461E+01  0.18977477679E+02  0.51100000000E-03 0.  1.
         12    1    3    3    0    0 -0.14730619986E+01  0.12671711846E+01  0.10333073533E+01  0.22007631743E+01  0.00000000000E+00 0. -1.
</event>
<event>
 7    1  0.2834226E-010  0.4778727E+02  0.7816164E-02  0.1312668E+00
        -11   -1    0    0    0    0  0.00000000000E+00  0.00000000000E+00  0.45593999997E+02  0.45594000000E+02  0.51100000000E-03 0. -1.
         11   -1    0    0    0    0 -0.00000000000E+00 -0.00000000000E+00 -0.45593999997E+02  0.45594000000E+02  0.51100000000E-03 0.  1.
    9900012    2    1    2    0    0  0.20659111344E+01  0.18617709371E+02  0.39150173674E+02  0.47787272014E+02  0.20000004422E+02 0.  0.
        -12    1    1    2    0    0 -0.20659111344E+01 -0.18617709371E+02 -0.39150173674E+02  0.43400727986E+02  0.00000000000E+00 0.  1.
         11    1    3    3    0    0  0.39795510339E+01  0.25645489588E+01  0.49150510342E+01  0.68243288845E+01  0.51100000000E-03 0. -1.
        -11    1    3    3    0    0  0.35192159878E+01  0.16269871633E+02  0.22120381916E+02  0.27684018865E+02  0.51100000000E-03 0.  1.
        -12    1    3    3    0    0 -0.54328558873E+01 -0.21671122125E+00  0.12114740723E+02  0.13278924265E+02  0.00000000000E+00 0.  1.
</event>
<event>
 7    1  0.2834226E-010  0.4778727E+02  0.7816164E-02  0.1312668E+00
        -11   -1    0    0    0    0  0.00000000000E+00  0.00000000000E+00  0.45593999997E+02  0.45594000000E+02  0.51100000000E-03 0. -1.
         11   -1    0    0    0    0 -0.00000000000E+00 -0.00000000000E+00 -0.45593999997E+02  0.45594000000E+02  0.51100000000E-03 0.  1.
    9900012    2    1    2    0    0 -0.35956514780E+02 -0.24256192938E+02 -0.15457286153E+01  0.47787272726E+02  0.20000007668E+02 0.  0.
        -12    1    1    2    0    0  0.35956514780E+02  0.24256192938E+02  0.15457286153E+01  0.43400727274E+02  0.00000000000E+00 0.  1.
         11    1    3    3    0    0 -0.66879995175E+01 -0.27906908484E+01 -0.18668755488E+01  0.74834829814E+01  0.51100000000E-03 0. -1.
        -11    1    3    3    0    0 -0.75472337463E+01 -0.15051829313E+02 -0.38548607646E+01  0.17273628880E+02  0.51100000000E-03 0.  1.
        -12    1    3    3    0    0 -0.21721281516E+02 -0.64136727758E+01  0.41760076980E+01  0.23030160865E+02  0.00000000000E+00 0.  1.
</event>
<event>
 7    1  0.2834226E-010  0.4778727E+02  0.7816164E-02  0.1312668E+00
        -11   -1    0    0    0    0  0.00000000000E+00  0.00000000000E+00  0.45593999997E+02  0.45594000000E+02  0.51100000000E-03 0.  1.
         11   -1    0    0    0    0 -0.00000000000E+00 -0.00000000000E+00 -0.45593999997E+02  0.45594000000E+02  0.51100000000E-03 0. -1.
    9900012    2    1    2    0    0 -0.19222867141E+02  0.15988438675E+02 -0.35474986133E+02  0.47787269205E+02  0.19999991615E+02 0.  0.
        -12    1    1    2    0    0  0.19222867141E+02 -0.15988438675E+02  0.35474986133E+02  0.43400730795E+02  0.00000000000E+00 0.  1.
         11    1    3    3    0    0 -0.14621026246E+02  0.19149075836E+02 -0.27955597118E+02  0.36904971540E+02  0.51100000000E-03 0. -1.
        -11    1    3    3    0    0 -0.52463326034E+01 -0.27381971229E+01 -0.36854371240E+01  0.69716695508E+01  0.51100000000E-03 0.  1.
         12    1    3    3    0    0  0.64449170885E+00 -0.42244003900E+00 -0.38339518907E+01  0.39106281144E+01  0.00000000000E+00 0. -1.
</event>
<event>
 7    1  0.2834226E-010  0.4778727E+02  0.7816164E-02  0.1312668E+00
        -11   -1    0    0    0    0  0.00000000000E+00  0.00000000000E+00  0.45593999997E+02  0.45594000000E+02  0.51100000000E-03 0. -1.
         11   -1    0    0    0    0 -0.00000000000E+00 -0.00000000000E+00 -0.45593999997E+02  0.45594000000E+02  0.51100000000E-03 0.  1.
    9900012    2    1    2    0    0 -0.19655430233E+02  0.24223377188E+02  0.30174746555E+02  0.47787271093E+02  0.20000000222E+02 0.  0.
        -12    1    1    2    0    0  0.19655430233E+02 -0.24223377188E+02 -0.30174746555E+02  0.43400728907E+02  0.00000000000E+00 0.  1.
         11    1    3    3    0    0 -0.13821372898E+02  0.15186365157E+02  0.27369316783E+02  0.34216012872E+02  0.51100000000E-03 0. -1.
        -11    1    3    3    0    0 -0.31869493609E+01  0.99701731909E+01  0.23513348204E+01  0.10727990277E+02  0.51100000000E-03 0.  1.
         12    1    3    3    0    0 -0.26471079737E+01 -0.93316116004E+00  0.45409495129E+00  0.28432679437E+01  0.00000000000E+00 0. -1.
</event>
<event>
 7    1  0.2834226E-010  0.4778728E+02  0.7816164E-02  0.1312668E+00
        -11   -1    0    0    0    0  0.00000000000E+00  0.00000000000E+00  0.45593999997E+02  0.45594000000E+02  0.51100000000E-03 0.  1.
         11   -1    0    0    0    0 -0.00000000000E+00 -0.00000000000E+00 -0.45593999997E+02  0.45594000000E+02  0.51100000000E-03 0. -1.
    9900012    2    1    2    0    0  0.21339885422E+02  0.36355348821E+02 -0.10320880004E+02  0.47787278096E+02  0.20000032152E+02 0.  0.
        -12    1    1    2    0    0 -0.21339885422E+02 -0.36355348821E+02  0.10320880004E+02  0.43400721904E+02  0.00000000000E+00 0.  1.
         11    1    3    3    0    0  0.11994700756E+01  0.47992605374E+01 -0.30917074172E+00  0.49565327576E+01  0.51100000000E-03 0. -1.
        -11    1    3    3    0    0  0.14273400982E+02  0.30214870913E+02 -0.13307730544E+02  0.35968932321E+02  0.51100000000E-03 0.  1.
        -12    1    3    3    0    0  0.58670143653E+01  0.13412173706E+01  0.32960212817E+01  0.68618130175E+01  0.00000000000E+00 0.  1.
</event>
<event>
 7    1  0.2834226E-010  0.4778727E+02  0.7816164E-02  0.1312668E+00
        -11   -1    0    0    0    0  0.00000000000E+00  0.00000000000E+00  0.45593999997E+02  0.45594000000E+02  0.51100000000E-03 0.  1.
         11   -1    0    0    0    0 -0.00000000000E+00 -0.00000000000E+00 -0.45593999997E+02  0.45594000000E+02  0.51100000000E-03 0. -1.
    9900012    2    1    2    0    0 -0.81162651758E+01 -0.42611640655E+02 -0.14134051015E+01  0.47787269664E+02  0.19999993705E+02 0.  0.
        -12    1    1    2    0    0  0.81162651758E+01  0.42611640655E+02  0.14134051015E+01  0.43400730336E+02  0.00000000000E+00 0.  1.
         11    1    3    3    0    0 -0.27304469304E+01 -0.26921471448E+02 -0.66660459429E+01  0.27868568929E+02  0.51100000000E-03 0. -1.
        -11    1    3    3    0    0 -0.27821627750E+01 -0.14515152349E+02  0.72215726595E+01  0.16449352247E+02  0.51100000000E-03 0.  1.
        -12    1    3    3    0    0 -0.26036554703E+01 -0.11750168584E+01 -0.19689318180E+01  0.34693484878E+01  0.00000000000E+00 0.  1.
</event>
<event>
 7    1  0.2834226E-010  0.4778727E+02  0.7816164E-02  0.1312668E+00
        -11   -1    0    0    0    0  0.00000000000E+00  0.00000000000E+00  0.45593999997E+02  0.45594000000E+02  0.51100000000E-03 0.  1.
         11   -1    0    0    0    0 -0.00000000000E+00 -0.00000000000E+00 -0.45593999997E+02  0.45594000000E+02  0.51100000000E-03 0. -1.
    9900012    2    1    2    0    0 -0.68081986050E+01 -0.16823590194E+02 -0.39423832681E+02  0.47787270299E+02  0.19999996603E+02 0.  0.
        -12    1    1    2    0    0  0.68081986050E+01  0.16823590194E+02  0.39423832681E+02  0.43400729701E+02  0.00000000000E+00 0.  1.
         11    1    3    3    0    0 -0.12779979538E+01 -0.14706385404E+02 -0.34589101299E+02  0.37607405911E+02  0.51100000000E-03 0. -1.
        -11    1    3    3    0    0 -0.34921614963E+01 -0.40934334459E+01 -0.11054917285E+01  0.54930411900E+01  0.51100000000E-03 0.  1.
         12    1    3    3    0    0 -0.20380391550E+01  0.19762286559E+01 -0.37292396543E+01  0.46868231988E+01  0.00000000000E+00 0. -1.
</event>
<event>
 7    1  0.2834226E-010  0.4778727E+02  0.7816164E-02  0.1312668E+00
        -11   -1    0    0    0    0  0.00000000000E+00  0.00000000000E+00  0.45593999997E+02  0.45594000000E+02  0.51100000000E-03 0.  1.
         11   -1    0    0    0    0 -0.00000000000E+00 -0.00000000000E+00 -0.45593999997E+02  0.45594000000E+02  0.51100000000E-03 0. -1.
    9900012    2    1    2    0    0  0.37961214738E+02  0.11799980303E+02 -0.17416370156E+02  0.47787270640E+02  0.19999998158E+02 0.  0.
        -12    1    1    2    0    0 -0.37961214738E+02 -0.11799980303E+02  0.17416370156E+02  0.43400729360E+02  0.00000000000E+00 0.  1.
         11    1    3    3    0    0  0.12137209215E+01 -0.14258915038E+01 -0.58551456919E+01  0.61472771526E+01  0.51100000000E-03 0.  1.
        -11    1    3    3    0    0  0.25702383031E+02  0.11051427682E+02 -0.11839099937E+02  0.30379447574E+02  0.51100000000E-03 0. -1.
         12    1    3    3    0    0  0.11045110785E+02  0.21744441249E+01  0.27787547309E+00  0.11260545914E+02  0.00000000000E+00 0. -1.
</event>
<event>
 7    1  0.2834226E-010  0.4778729E+02  0.7816164E-02  0.1312668E+00
        -11   -1    0    0    0    0  0.00000000000E+00  0.00000000000E+00  0.45593999997E+02  0.45594000000E+02  0.51100000000E-03 0.  1.
         11   -1    0    0    0    0 -0.00000000000E+00 -0.00000000000E+00 -0.45593999997E+02  0.45594000000E+02  0.51100000000E-03 0. -1.
    9900012    2    1    2    0    0 -0.35359079402E+02 -0.66851947905E+00 -0.25157702638E+02  0.47787292443E+02  0.20000097563E+02 0.  0.
        -12    1    1    2    0    0  0.35359079402E+02  0.66851947905E+00  0.25157702638E+02  0.43400707557E+02  0.00000000000E+00 0.  1.
         11    1    3    3    0    0 -0.22028158542E+02 -0.24036640077E+01 -0.91049496206E+01  0.23956574823E+02  0.51100000000E-03 0. -1.
        -11    1    3    3    0    0 -0.48690223247E+01  0.26529309236E+01 -0.14024526459E+02  0.15080874097E+02  0.51100000000E-03 0.  1.
        -12    1    3    3    0    0 -0.84618985351E+01 -0.91778639496E+00 -0.20282265591E+01  0.87498435221E+01  0.00000000000E+00 0.  1.
</event>
<event>
 7    1  0.2834226E-010  0.4778727E+02  0.7816164E-02  0.1312668E+00
        -11   -1    0    0    0    0  0.00000000000E+00  0.00000000000E+00  0.45593999997E+02  0.45594000000E+02  0.51100000000E-03 0.  1.
         11   -1    0    0    0    0 -0.00000000000E+00 -0.00000000000E+00 -0.45593999997E+02  0.45594000000E+02  0.51100000000E-03 0. -1.
    9900012    2    1    2    0    0 -0.90410880383E+01 -0.35020186355E+02 -0.23988925944E+02  0.47787270822E+02  0.19999998986E+02 0.  0.
        -12    1    1    2    0    0  0.90410880383E+01  0.35020186355E+02  0.23988925944E+02  0.43400729178E+02  0.00000000000E+00 0.  1.
         11    1    3    3    0    0 -0.65162329143E+01 -0.80374960415E+01 -0.12270461472E+02  0.16050758829E+02  0.51100000000E-03 0.  1.
        -11    1    3    3    0    0 -0.18065964879E+01 -0.17694635467E+02 -0.14101387350E+01  0.17842432757E+02  0.51100000000E-03 0. -1.
         12    1    3    3    0    0 -0.71825863615E+00 -0.92880548459E+01 -0.10308325737E+02  0.13894079235E+02  0.00000000000E+00 0. -1.
</event>
<event>
 7    1  0.2834226E-010  0.4778727E+02  0.7816164E-02  0.1312668E+00
        -11   -1    0    0    0    0  0.00000000000E+00  0.00000000000E+00  0.45593999997E+02  0.45594000000E+02  0.51100000000E-03 0.  1.
         11   -1    0    0    0    0 -0.00000000000E+00 -0.00000000000E+00 -0.45593999997E+02  0.45594000000E+02  0.51100000000E-03 0. -1.
    9900012    2    1    2    0    0 -0.19556305036E+02 -0.15262464588E+02 -0.35612242237E+02  0.47787266261E+02  0.19999978189E+02 0.  0.
        -12    1    1    2    0    0  0.19556305036E+02  0.15262464588E+02  0.35612242237E+02  0.43400733739E+02  0.00000000000E+00 0.  1.
         11    1    3    3    0    0 -0.14619166187E+02 -0.11285851954E+02 -0.13519169370E+02  0.22887953492E+02  0.51100000000E-03 0. -1.
        -11    1    3    3    0    0  0.22116098751E+01  0.64130512956E+00 -0.89493876715E+01  0.92408890517E+01  0.51100000000E-03 0.  1.
        -12    1    3    3    0    0 -0.71487487242E+01 -0.46179177635E+01 -0.13143685195E+02  0.15658423717E+02  0.00000000000E+00 0.  1.
</event>
<event>
 7    1  0.2834226E-010  0.4778728E+02  0.7816164E-02  0.1312668E+00
        -11   -1    0    0    0    0  0.00000000000E+00  0.00000000000E+00  0.45593999997E+02  0.45594000000E+02  0.51100000000E-03 0.  1.
         11   -1    0    0    0    0 -0.00000000000E+00 -0.00000000000E+00 -0.45593999997E+02  0.45594000000E+02  0.51100000000E-03 0. -1.
    9900012    2    1    2    0    0 -0.18353807047E+02 -0.36530617093E+02 -0.14569640202E+02  0.47787278417E+02  0.20000033614E+02 0.  0.
        -12    1    1    2    0    0  0.18353807047E+02  0.36530617093E+02  0.14569640202E+02  0.43400721583E+02  0.00000000000E+00 0.  1.
         11    1    3    3    0    0 -0.10126348343E+02 -0.18404682476E+02 -0.68261892608E+01  0.22087827595E+02  0.51100000000E-03 0. -1.
        -11    1    3    3    0    0 -0.41261554692E-02 -0.54746000924E+01 -0.90254451598E+01  0.10556037315E+02  0.51100000000E-03 0.  1.
        -12    1    3    3    0    0 -0.82233325490E+01 -0.12651334525E+02  0.12819942186E+01  0.15143413507E+02  0.00000000000E+00 0.  1.
</event>
<event>
 7    1  0.2834226E-010  0.4778727E+02  0.7816164E-02  0.1312668E+00
        -11   -1    0    0    0    0  0.00000000000E+00  0.00000000000E+00  0.45593999997E+02  0.45594000000E+02  0.51100000000E-03 0. -1.
         11   -1    0    0    0    0 -0.00000000000E+00 -0.00000000000E+00 -0.45593999997E+02  0.45594000000E+02  0.51100000000E-03 0.  1.
    9900012    2    1    2    0    0  0.16247160516E+02  0.33021515270E+02  0.23005056121E+02  0.47787270713E+02  0.19999998488E+02 0.  0.
        -12    1    1    2    0    0 -0.16247160516E+02 -0.33021515270E+02 -0.23005056121E+02  0.43400729287E+02  0.00000000000E+00 0.  1.
         11    1    3    3    0    0  0.13757622952E+02  0.28092859281E+02  0.19166361084E+02  0.36685560229E+02  0.51100000000E-03 0. -1.
        -11    1    3    3    0    0 -0.12311889433E+01  0.52902566746E+01 -0.40451799036E+00  0.54466757718E+01  0.51100000000E-03 0.  1.
         12    1    3    3    0    0  0.37207265069E+01 -0.36160068575E+00  0.42432130273E+01  0.56550347116E+01  0.00000000000E+00 0. -1.
</event>
<event>
 7    1  0.2834226E-010  0.4778727E+02  0.7816164E-02  0.1312668E+00
        -11   -1    0    0    0    0  0.00000000000E+00  0.00000000000E+00  0.45593999997E+02  0.45594000000E+02  0.51100000000E-03 0.  1.
         11   -1    0    0    0    0 -0.00000000000E+00 -0.00000000000E+00 -0.45593999997E+02  0.45594000000E+02  0.51100000000E-03 0. -1.
    9900012    2    1    2    0    0 -0.24674622660E+02  0.11138043908E+02 -0.33922411765E+02  0.47787273676E+02  0.20000012000E+02 0.  0.
        -12    1    1    2    0    0  0.24674622660E+02 -0.11138043908E+02  0.33922411765E+02  0.43400726324E+02  0.00000000000E+00 0.  1.
         11    1    3    3    0    0  0.85958358278E+00  0.43374362209E+01 -0.47253198996E+00  0.44469679163E+01  0.51100000000E-03 0.  1.
        -11    1    3    3    0    0 -0.94298360864E+01 -0.12212625336E+01 -0.12930514773E+02  0.16050280476E+02  0.51100000000E-03 0. -1.
         12    1    3    3    0    0 -0.16104370156E+02  0.80218702203E+01 -0.20519365002E+02  0.27290025284E+02  0.00000000000E+00 0. -1.
</event>
<event>
 7    1  0.2834226E-010  0.4778726E+02  0.7816164E-02  0.1312668E+00
        -11   -1    0    0    0    0  0.00000000000E+00  0.00000000000E+00  0.45593999997E+02  0.45594000000E+02  0.51100000000E-03 0.  1.
         11   -1    0    0    0    0 -0.00000000000E+00 -0.00000000000E+00 -0.45593999997E+02  0.45594000000E+02  0.51100000000E-03 0. -1.
    9900012    2    1    2    0    0 -0.28896125837E+02  0.21679511859E+02 -0.24054873099E+02  0.47787259883E+02  0.19999949112E+02 0.  0.
        -12    1    1    2    0    0  0.28896125837E+02 -0.21679511859E+02  0.24054873099E+02  0.43400740117E+02  0.00000000000E+00 0.  1.
         11    1    3    3    0    0 -0.82201312971E+01  0.64581561409E+00 -0.86470680910E+01  0.11948197487E+02  0.51100000000E-03 0. -1.
        -11    1    3    3    0    0 -0.81969336739E+00 -0.10693493202E+00  0.18943330258E+01  0.20668406252E+01  0.51100000000E-03 0.  1.
        -12    1    3    3    0    0 -0.19856301173E+02  0.21140631177E+02 -0.17302138034E+02  0.33772221772E+02  0.00000000000E+00 0.  1.
</event>
<event>
 7    1  0.2834226E-010  0.4778726E+02  0.7816164E-02  0.1312668E+00
        -11   -1    0    0    0    0  0.00000000000E+00  0.00000000000E+00  0.45593999997E+02  0.45594000000E+02  0.51100000000E-03 0. -1.
         11   -1    0    0    0    0 -0.00000000000E+00 -0.00000000000E+00 -0.45593999997E+02  0.45594000000E+02  0.51100000000E-03 0.  1.
    9900012    2    1    2    0    0 -0.39971835794E+02 -0.15368980677E+02 -0.70477356187E+01  0.47787264970E+02  0.19999972305E+02 0.  0.
        -12    1    1    2    0    0  0.39971835794E+02  0.15368980677E+02  0.70477356187E+01  0.43400735030E+02  0.00000000000E+00 0.  1.
         11    1    3    3    0    0 -0.32024650723E+02 -0.14700449104E+02 -0.22661409196E+01  0.35310293863E+02  0.51100000000E-03 0. -1.
        -11    1    3    3    0    0 -0.91014908655E+01  0.12005976277E+01 -0.46117142781E+01  0.10273581629E+02  0.51100000000E-03 0.  1.
         12    1    3    3    0    0  0.11543057944E+01 -0.18691292006E+01 -0.16988042109E+00  0.22033894783E+01  0.00000000000E+00 0. -1.
</event>
<event>
 7    1  0.2834226E-010  0.4778727E+02  0.7816164E-02  0.1312668E+00
        -11   -1    0    0    0    0  0.00000000000E+00  0.00000000000E+00  0.45593999997E+02  0.45594000000E+02  0.51100000000E-03 0.  1.
         11   -1    0    0    0    0 -0.00000000000E+00 -0.00000000000E+00 -0.45593999997E+02  0.45594000000E+02  0.51100000000E-03 0. -1.
    9900012    2    1    2    0    0  0.15391621783E+02  0.47483700384E+00 -0.40577040935E+02  0.47787265648E+02  0.19999975394E+02 0.  0.
        -12    1    1    2    0    0 -0.15391621783E+02 -0.47483700384E+00  0.40577040935E+02  0.43400734352E+02  0.00000000000E+00 0.  1.
         11    1    3    3    0    0  0.84106946458E+01 -0.31960642391E+01 -0.75924274506E+01  0.11772831686E+02  0.51100000000E-03 0.  1.
        -11    1    3    3    0    0 -0.11456279349E+00 -0.13716056647E+01  0.46338710073E+00  0.14522928766E+01  0.51100000000E-03 0. -1.
         12    1    3    3    0    0  0.70954899305E+01  0.50425069077E+01 -0.33448000585E+02  0.34562141085E+02  0.00000000000E+00 0. -1.
</event>
<event>
 7    1  0.2834226E-010  0.4778727E+02  0.7816164E-02  0.1312668E+00
        -11   -1    0    0    0    0  0.00000000000E+00  0.00000000000E+00  0.45593999997E+02  0.45594000000E+02  0.51100000000E-03 0.  1.
         11   -1    0    0    0    0 -0.00000000000E+00 -0.00000000000E+00 -0.45593999997E+02  0.45594000000E+02  0.51100000000E-03 0. -1.
    9900012    2    1    2    0    0  0.42836578636E+02 -0.60413129851E+01 -0.34861317230E+01  0.47787273667E+02  0.20000011957E+02 0.  0.
        -12    1    1    2    0    0 -0.42836578636E+02  0.60413129851E+01  0.34861317230E+01  0.43400726333E+02  0.00000000000E+00 0.  1.
         11    1    3    3    0    0  0.18674679870E+01 -0.87946081619E+00 -0.19831538338E+01  0.28624792400E+01  0.51100000000E-03 0. -1.
        -11    1    3    3    0    0  0.13492490479E+02 -0.10182095758E+02  0.60262570116E+00  0.16914063123E+02  0.51100000000E-03 0.  1.
        -12    1    3    3    0    0  0.27476620171E+02  0.50202435890E+01 -0.21056035903E+01  0.28010731304E+02  0.00000000000E+00 0.  1.
</event>
<event>
 7    1  0.2834226E-010  0.4778727E+02  0.7816164E-02  0.1312668E+00
        -11   -1    0    0    0    0  0.00000000000E+00  0.00000000000E+00  0.45593999997E+02  0.45594000000E+02  0.51100000000E-03 0. -1.
         11   -1    0    0    0    0 -0.00000000000E+00 -0.00000000000E+00 -0.45593999997E+02  0.45594000000E+02  0.51100000000E-03 0.  1.
    9900012    2    1    2    0    0  0.32041603758E+02  0.17077171905E+02  0.23776649035E+02  0.47787271769E+02  0.20000003305E+02 0.  0.
        -12    1    1    2    0    0 -0.32041603758E+02 -0.17077171905E+02 -0.23776649035E+02  0.43400728231E+02  0.00000000000E+00 0.  1.
         11    1    3    3    0    0  0.10664311424E+02  0.25528238033E+01  0.27440896955E+00  0.10969035877E+02  0.51100000000E-03 0. -1.
        -11    1    3    3    0    0  0.18582495087E+02  0.16506054302E+02  0.19830831915E+02  0.31796554011E+02  0.51100000000E-03 0.  1.
        -12    1    3    3    0    0  0.27947972460E+01 -0.19817062005E+01  0.36714081498E+01  0.50216818810E+01  0.00000000000E+00 0.  1.
</event>
<event>
 7    1  0.2834226E-010  0.4778727E+02  0.7816164E-02  0.1312668E+00
        -11   -1    0    0    0    0  0.00000000000E+00  0.00000000000E+00  0.45593999997E+02  0.45594000000E+02  0.51100000000E-03 0.  1.
         11   -1    0    0    0    0 -0.00000000000E+00 -0.00000000000E+00 -0.45593999997E+02  0.45594000000E+02  0.51100000000E-03 0. -1.
    9900012    2    1    2    0    0 -0.95930684480E+01 -0.24832943633E+02 -0.34277128965E+02  0.47787267036E+02  0.19999981724E+02 0.  0.
        -12    1    1    2    0    0  0.95930684480E+01  0.24832943633E+02  0.34277128965E+02  0.43400732964E+02  0.00000000000E+00 0.  1.
         11    1    3    3    0    0 -0.91085600215E+01 -0.70906701869E+01 -0.17209164109E+02  0.20721940039E+02  0.51100000000E-03 0. -1.
        -11    1    3    3    0    0  0.43929081304E+01 -0.14293115443E+02 -0.11112177492E+02  0.18629849161E+02  0.51100000000E-03 0.  1.
         12    1    3    3    0    0 -0.48774165568E+01 -0.34491580030E+01 -0.59557873643E+01  0.84354778364E+01  0.00000000000E+00 0. -1.
</event>
<event>
 7    1  0.2834226E-010  0.4778727E+02  0.7816164E-02  0.1312668E+00
        -11   -1    0    0    0    0  0.00000000000E+00  0.00000000000E+00  0.45593999997E+02  0.45594000000E+02  0.51100000000E-03 0. -1.
         11   -1    0    0    0    0 -0.00000000000E+00 -0.00000000000E+00 -0.45593999997E+02  0.45594000000E+02  0.51100000000E-03 0.  1.
    9900012    2    1    2    0    0  0.39694996086E+02 -0.16853004484E+02  0.48894773468E+01  0.47787268864E+02  0.19999990058E+02 0.  0.
        -12    1    1    2    0    0 -0.39694996086E+02  0.16853004484E+02 -0.48894773468E+01  0.43400731136E+02  0.00000000000E+00 0.  1.
         11    1    3    3    0    0  0.16869464426E+02 -0.10349883843E+01  0.58142011177E+00  0.16911182116E+02  0.51100000000E-03 0. -1.
        -11    1    3    3    0    0  0.10949575035E+01 -0.70036811851E+01  0.37756737204E+00  0.70988054952E+01  0.51100000000E-03 0.  1.
        -12    1    3    3    0    0  0.21730574157E+02 -0.88143349142E+01  0.39304898630E+01  0.23777281252E+02  0.00000000000E+00 0.  1.
</event>
<event>
 7    1  0.2834226E-010  0.4778723E+02  0.7816164E-02  0.1312668E+00
        -11   -1    0    0    0    0  0.00000000000E+00  0.00000000000E+00  0.45593999997E+02  0.45594000000E+02  0.51100000000E-03 0. -1.
         11   -1    0    0    0    0 -0.00000000000E+00 -0.00000000000E+00 -0.45593999997E+02  0.45594000000E+02  0.51100000000E-03 0.  1.
    9900012    2    1    2    0    0 -0.23593392553E+02 -0.35789150778E+02  0.67908401649E+01  0.47787228167E+02  0.19999804502E+02 0.  0.
        -12    1    1    2    0    0  0.23593392553E+02  0.35789150778E+02 -0.67908401649E+01  0.43400771833E+02  0.00000000000E+00 0.  1.
         11    1    3    3    0    0 -0.90114121012E+01 -0.39420057218E+01  0.79364534015E+01  0.12638522462E+02  0.51100000000E-03 0. -1.
        -11    1    3    3    0    0 -0.83909488487E+01 -0.17076436927E+02 -0.18582300142E+01  0.19117158255E+02  0.51100000000E-03 0.  1.
         12    1    3    3    0    0 -0.61910316030E+01 -0.14770708130E+02  0.71261677757E+00  0.16031547450E+02  0.00000000000E+00 0. -1.
</event>
<event>
 7    1  0.2834226E-010  0.4778729E+02  0.7816164E-02  0.1312668E+00
        -11   -1    0    0    0    0  0.00000000000E+00  0.00000000000E+00  0.45593999997E+02  0.45594000000E+02  0.51100000000E-03 0.  1.
         11   -1    0    0    0    0 -0.00000000000E+00 -0.00000000000E+00 -0.45593999997E+02  0.45594000000E+02  0.51100000000E-03 0. -1.
    9900012    2    1    2    0    0 -0.25224343125E+01  0.96585868499E+01 -0.42237076936E+02  0.47787289834E+02  0.20000085670E+02 0.  0.
        -12    1    1    2    0    0  0.25224343125E+01 -0.96585868499E+01  0.42237076936E+02  0.43400710166E+02  0.00000000000E+00 0.  1.
         11    1    3    3    0    0  0.27006942749E+01 -0.30669042437E+01 -0.20288088494E+02  0.20695559577E+02  0.51100000000E-03 0. -1.
        -11    1    3    3    0    0  0.43562147310E+00  0.19222552351E+00  0.54723387771E+00  0.72538396574E+00  0.51100000000E-03 0.  1.
         12    1    3    3    0    0 -0.56587500604E+01  0.12533265570E+02 -0.22496222320E+02  0.26366346292E+02  0.00000000000E+00 0. -1.
</event>
<event>
 7    1  0.2834226E-010  0.4778728E+02  0.7816164E-02  0.1312668E+00
        -11   -1    0    0    0    0  0.00000000000E+00  0.00000000000E+00  0.45593999997E+02  0.45594000000E+02  0.51100000000E-03 0.  1.
         11   -1    0    0    0    0 -0.00000000000E+00 -0.00000000000E+00 -0.45593999997E+02  0.45594000000E+02  0.51100000000E-03 0. -1.
    9900012    2    1    2    0    0 -0.35127295059E+02 -0.42739727366E+01 -0.25128249538E+02  0.47787278509E+02  0.20000034034E+02 0.  0.
        -12    1    1    2    0    0  0.35127295059E+02  0.42739727366E+01  0.25128249538E+02  0.43400721491E+02  0.00000000000E+00 0.  1.
         11    1    3    3    0    0  0.18849849100E+01 -0.51249482069E+00 -0.27079403300E+01  0.33389759125E+01  0.51100000000E-03 0.  1.
        -11    1    3    3    0    0 -0.25147200106E+02 -0.16678319598E+01 -0.99134343649E+01  0.27082088505E+02  0.51100000000E-03 0. -1.
         12    1    3    3    0    0 -0.11865079863E+02 -0.20936459562E+01 -0.12506874843E+02  0.17366214092E+02  0.00000000000E+00 0. -1.
</event>
<event>
 7    1  0.2834226E-010  0.4778727E+02  0.7816164E-02  0.1312668E+00
        -11   -1    0    0    0    0  0.00000000000E+00  0.00000000000E+00  0.45593999997E+02  0.45594000000E+02  0.51100000000E-03 0. -1.
         11   -1    0    0    0    0 -0.00000000000E+00 -0.00000000000E+00 -0.45593999997E+02  0.45594000000E+02  0.51100000000E-03 0.  1.
    9900012    2    1    2    0    0 -0.29997282074E+02  0.31364881887E+02 -0.17436869611E+00  0.47787272448E+02  0.20000006399E+02 0.  0.
        -12    1    1    2    0    0  0.29997282074E+02 -0.31364881887E+02  0.17436869611E+00  0.43400727552E+02  0.00000000000E+00 0.  1.
         11    1    3    3    0    0 -0.55892967125E+01  0.41742909977E+01 -0.10245988840E+01  0.70508684719E+01  0.51100000000E-03 0. -1.
        -11    1    3    3    0    0 -0.24552219838E+02  0.23917842251E+02 -0.43900325701E+01  0.34556433021E+02  0.51100000000E-03 0.  1.
        -12    1    3    3    0    0  0.14423447639E+00  0.32727486383E+01  0.52402627580E+01  0.61799709552E+01  0.00000000000E+00 0.  1.
</event>
<event>
 7    1  0.2834226E-010  0.4778727E+02  0.7816164E-02  0.1312668E+00
        -11   -1    0    0    0    0  0.00000000000E+00  0.00000000000E+00  0.45593999997E+02  0.45594000000E+02  0.51100000000E-03 0. -1.
         11   -1    0    0    0    0 -0.00000000000E+00 -0.00000000000E+00 -0.45593999997E+02  0.45594000000E+02  0.51100000000E-03 0.  1.
    9900012    2    1    2    0    0  0.43267198512E+02  0.30211870165E+01 -0.15638296233E+01  0.47787267274E+02  0.19999982810E+02 0.  0.
        -12    1    1    2    0    0 -0.43267198512E+02 -0.30211870165E+01  0.15638296233E+01  0.43400732726E+02  0.00000000000E+00 0.  1.
         11    1    3    3    0    0  0.21661952909E+02  0.67100497573E+01 -0.64265426555E+01  0.23570435345E+02  0.51100000000E-03 0. -1.
        -11    1    3    3    0    0  0.16010431581E+02 -0.54836746010E+00  0.69604845857E+01  0.17466624523E+02  0.51100000000E-03 0.  1.
         12    1    3    3    0    0  0.55948140215E+01 -0.31404952807E+01 -0.20977715535E+01  0.67502074068E+01  0.00000000000E+00 0. -1.
</event>
<event>
 7    1  0.2834226E-010  0.4778728E+02  0.7816164E-02  0.1312668E+00
        -11   -1    0    0    0    0  0.00000000000E+00  0.00000000000E+00  0.45593999997E+02  0.45594000000E+02  0.51100000000E-03 0.  1.
         11   -1    0    0    0    0 -0.00000000000E+00 -0.00000000000E+00 -0.45593999997E+02  0.45594000000E+02  0.51100000000E-03 0. -1.
    9900012    2    1    2    0    0 -0.20068177017E+01 -0.14330086555E+02 -0.40917527232E+02  0.47787277279E+02  0.20000028424E+02 0.  0.
        -12    1    1    2    0    0  0.20068177017E+01  0.14330086555E+02  0.40917527232E+02  0.43400722721E+02  0.00000000000E+00 0.  1.
         11    1    3    3    0    0  0.50422520911E+01 -0.13220460574E+02 -0.23349774130E+02  0.27302322907E+02  0.51100000000E-03 0. -1.
        -11    1    3    3    0    0 -0.36865703794E+01 -0.30067214238E+00 -0.14055431962E+01  0.39568619937E+01  0.51100000000E-03 0.  1.
         12    1    3    3    0    0 -0.33624994134E+01 -0.80895383913E+00 -0.16162209906E+02  0.16528092378E+02  0.00000000000E+00 0. -1.
</event>
<event>
 7    1  0.2834226E-010  0.4778725E+02  0.7816164E-02  0.1312668E+00
        -11   -1    0    0    0    0  0.00000000000E+00  0.00000000000E+00  0.45593999997E+02  0.45594000000E+02  0.51100000000E-03 0.  1.
         11   -1    0    0    0    0 -0.00000000000E+00 -0.00000000000E+00 -0.45593999997E+02  0.45594000000E+02  0.51100000000E-03 0. -1.
    9900012    2    1    2    0    0 -0.62465273712E+01 -0.30447157149E+02 -0.30291522454E+02  0.47787253287E+02  0.19999919037E+02 0.  0.
        -12    1    1    2    0    0  0.62465273712E+01  0.30447157149E+02  0.30291522454E+02  0.43400746713E+02  0.00000000000E+00 0.  1.
         11    1    3    3    0    0  0.13152864150E+01 -0.16783359195E+02 -0.63949576025E+01  0.18008514853E+02  0.51100000000E-03 0. -1.
        -11    1    3    3    0    0 -0.33373550749E+01 -0.13346691462E+01 -0.10458136549E+02  0.11058566858E+02  0.51100000000E-03 0.  1.
         12    1    3    3    0    0 -0.42244587113E+01 -0.12329128808E+02 -0.13438428303E+02  0.18720171575E+02  0.00000000000E+00 0. -1.
</event>
<event>
 7    1  0.2834226E-010  0.4778727E+02  0.7816164E-02  0.1312668E+00
        -11   -1    0    0    0    0  0.00000000000E+00  0.00000000000E+00  0.45593999997E+02  0.45594000000E+02  0.51100000000E-03 0.  1.
         11   -1    0    0    0    0 -0.00000000000E+00 -0.00000000000E+00 -0.45593999997E+02  0.45594000000E+02  0.51100000000E-03 0. -1.
    9900012    2    1    2    0    0  0.32447665549E+02 -0.11543871287E+02 -0.26410436369E+02  0.47787272897E+02  0.20000008445E+02 0.  0.
        -12    1    1    2    0    0 -0.32447665549E+02  0.11543871287E+02  0.26410436369E+02  0.43400727103E+02  0.00000000000E+00 0.  1.
         11    1    3    3    0    0  0.15758860721E+02 -0.41377908687E+01 -0.20285756572E+02  0.26018741792E+02  0.51100000000E-03 0. -1.
        -11    1    3    3    0    0  0.56325711383E+01 -0.59408349667E+01  0.14126560692E+01  0.83075252128E+01  0.51100000000E-03 0.  1.
         12    1    3    3    0    0  0.11056233690E+02 -0.14652454512E+01 -0.75373358667E+01  0.13461005892E+02  0.00000000000E+00 0. -1.
</event>
<event>
 7    1  0.2834226E-010  0.4778726E+02  0.7816164E-02  0.1312668E+00
        -11   -1    0    0    0    0  0.00000000000E+00  0.00000000000E+00  0.45593999997E+02  0.45594000000E+02  0.51100000000E-03 0.  1.
         11   -1    0    0    0    0 -0.00000000000E+00 -0.00000000000E+00 -0.45593999997E+02  0.45594000000E+02  0.51100000000E-03 0. -1.
    9900012    2    1    2    0    0  0.35183245767E+02  0.21922262983E+02 -0.12852157165E+02  0.47787258753E+02  0.19999943959E+02 0.  0.
        -12    1    1    2    0    0 -0.35183245767E+02 -0.21922262983E+02  0.12852157165E+02  0.43400741247E+02  0.00000000000E+00 0.  1.
         11    1    3    3    0    0  0.33656936624E+02  0.18855864495E+02 -0.10250995287E+02  0.39917614075E+02  0.51100000000E-03 0. -1.
        -11    1    3    3    0    0 -0.14022012137E+01 -0.42063754719E-01  0.14255028763E+01  0.19999990786E+01  0.51100000000E-03 0.  1.
        -12    1    3    3    0    0  0.29285103562E+01  0.31084622425E+01 -0.40266647544E+01  0.58696455995E+01  0.00000000000E+00 0.  1.
</event>
<event>
 7    1  0.2834226E-010  0.4778727E+02  0.7816164E-02  0.1312668E+00
        -11   -1    0    0    0    0  0.00000000000E+00  0.00000000000E+00  0.45593999997E+02  0.45594000000E+02  0.51100000000E-03 0.  1.
         11   -1    0    0    0    0 -0.00000000000E+00 -0.00000000000E+00 -0.45593999997E+02  0.45594000000E+02  0.51100000000E-03 0. -1.
    9900012    2    1    2    0    0 -0.14328606759E+02  0.40924808641E+02  0.18640079702E+01  0.47787268903E+02  0.19999990238E+02 0.  0.
        -12    1    1    2    0    0  0.14328606759E+02 -0.40924808641E+02 -0.18640079702E+01  0.43400731097E+02  0.00000000000E+00 0.  1.
         11    1    3    3    0    0 -0.12877799969E+02  0.17166083275E+02 -0.41937777307E+01  0.21865496083E+02  0.51100000000E-03 0. -1.
        -11    1    3    3    0    0  0.15685156330E+01  0.19527982958E+02  0.28061770065E+01  0.19790830941E+02  0.51100000000E-03 0.  1.
        -12    1    3    3    0    0 -0.30193224229E+01  0.42307424093E+01  0.32516086944E+01  0.61309418794E+01  0.00000000000E+00 0.  1.
</event>
<event>
 7    1  0.2834226E-010  0.4778727E+02  0.7816164E-02  0.1312668E+00
        -11   -1    0    0    0    0  0.00000000000E+00  0.00000000000E+00  0.45593999997E+02  0.45594000000E+02  0.51100000000E-03 0.  1.
         11   -1    0    0    0    0 -0.00000000000E+00 -0.00000000000E+00 -0.45593999997E+02  0.45594000000E+02  0.51100000000E-03 0. -1.
    9900012    2    1    2    0    0  0.20532802603E+02  0.30497794309E+02 -0.23063214165E+02  0.47787270881E+02  0.19999999255E+02 0.  0.
        -12    1    1    2    0    0 -0.20532802603E+02 -0.30497794309E+02  0.23063214165E+02  0.43400729119E+02  0.00000000000E+00 0.  1.
         11    1    3    3    0    0  0.13678836374E+02  0.19056989155E+02 -0.19518811846E+02  0.30516608861E+02  0.51100000000E-03 0. -1.
        -11    1    3    3    0    0  0.48224400793E+01  0.36949913717E+01  0.31408210148E+01  0.68391261477E+01  0.51100000000E-03 0.  1.
        -12    1    3    3    0    0  0.20315261495E+01  0.77458137821E+01 -0.66852233332E+01  0.10431535872E+02  0.00000000000E+00 0.  1.
</event>
<event>
 7    1  0.2834226E-010  0.4778727E+02  0.7816164E-02  0.1312668E+00
        -11   -1    0    0    0    0  0.00000000000E+00  0.00000000000E+00  0.45593999997E+02  0.45594000000E+02  0.51100000000E-03 0.  1.
         11   -1    0    0    0    0 -0.00000000000E+00 -0.00000000000E+00 -0.45593999997E+02  0.45594000000E+02  0.51100000000E-03 0. -1.
    9900012    2    1    2    0    0  0.32574402593E+02  0.21525721384E+02 -0.18951913753E+02  0.47787269358E+02  0.19999992311E+02 0.  0.
        -12    1    1    2    0    0 -0.32574402593E+02 -0.21525721384E+02  0.18951913753E+02  0.43400730642E+02  0.00000000000E+00 0.  1.
         11    1    3    3    0    0  0.56880517658E+01  0.55348548929E+01 -0.65541788263E+01  0.10292998199E+02  0.51100000000E-03 0. -1.
        -11    1    3    3    0    0  0.13097828942E+02 -0.97507765377E+00 -0.20010200425E+01  0.13285630618E+02  0.51100000000E-03 0.  1.
        -12    1    3    3    0    0  0.13788521885E+02  0.16965944145E+02 -0.10396714884E+02  0.24208640541E+02  0.00000000000E+00 0.  1.
</event>
<event>
 7    1  0.2834226E-010  0.4778728E+02  0.7816164E-02  0.1312668E+00
        -11   -1    0    0    0    0  0.00000000000E+00  0.00000000000E+00  0.45593999997E+02  0.45594000000E+02  0.51100000000E-03 0.  1.
         11   -1    0    0    0    0 -0.00000000000E+00 -0.00000000000E+00 -0.45593999997E+02  0.45594000000E+02  0.51100000000E-03 0. -1.
    9900012    2    1    2    0    0 -0.32818975732E+02  0.21170011240E+02 -0.18930597880E+02  0.47787284797E+02  0.20000062702E+02 0.  0.
        -12    1    1    2    0    0  0.32818975732E+02 -0.21170011240E+02  0.18930597880E+02  0.43400715203E+02  0.00000000000E+00 0.  1.
         11    1    3    3    0    0 -0.44673574846E+01 -0.29086957026E+01 -0.69866159620E+00  0.53764227765E+01  0.51100000000E-03 0. -1.
        -11    1    3    3    0    0 -0.22747222109E+00  0.20747110158E+01  0.41230164078E+00  0.21274779234E+01  0.51100000000E-03 0.  1.
         12    1    3    3    0    0 -0.28124146027E+02  0.22003995927E+02 -0.18644237925E+02  0.40283384097E+02  0.00000000000E+00 0. -1.
</event>
<event>
 7    1  0.2834226E-010  0.4778726E+02  0.7816164E-02  0.1312668E+00
        -11   -1    0    0    0    0  0.00000000000E+00  0.00000000000E+00  0.45593999997E+02  0.45594000000E+02  0.51100000000E-03 0.  1.
         11   -1    0    0    0    0 -0.00000000000E+00 -0.00000000000E+00 -0.45593999997E+02  0.45594000000E+02  0.51100000000E-03 0. -1.
    9900012    2    1    2    0    0 -0.65619057701E+00  0.37095616730E+02 -0.22519070750E+02  0.47787263668E+02  0.19999966370E+02 0.  0.
        -12    1    1    2    0    0  0.65619057701E+00 -0.37095616730E+02  0.22519070750E+02  0.43400736332E+02  0.00000000000E+00 0.  1.
         11    1    3    3    0    0 -0.26174936446E+01 -0.21167930181E+00 -0.15900709035E+00  0.26308486506E+01  0.51100000000E-03 0.  1.
        -11    1    3    3    0    0  0.40250509070E+01  0.33404997494E+02 -0.15610715606E+02  0.37091634291E+02  0.51100000000E-03 0. -1.
         12    1    3    3    0    0 -0.20637478394E+01  0.39022985384E+01 -0.67493480539E+01  0.80647807274E+01  0.00000000000E+00 0. -1.
</event>
<event>
 7    1  0.2834226E-010  0.4778728E+02  0.7816164E-02  0.1312668E+00
        -11   -1    0    0    0    0  0.00000000000E+00  0.00000000000E+00  0.45593999997E+02  0.45594000000E+02  0.51100000000E-03 0.  1.
         11   -1    0    0    0    0 -0.00000000000E+00 -0.00000000000E+00 -0.45593999997E+02  0.45594000000E+02  0.51100000000E-03 0. -1.
    9900012    2    1    2    0    0 -0.35783295372E+02  0.14609088851E+02 -0.19742167181E+02  0.47787275700E+02  0.20000021227E+02 0.  0.
        -12    1    1    2    0    0  0.35783295372E+02 -0.14609088851E+02  0.19742167181E+02  0.43400724300E+02  0.00000000000E+00 0.  1.
         11    1    3    3    0    0 -0.36966384960E+01 -0.78405740337E+00 -0.26703420465E+01  0.46271599377E+01  0.51100000000E-03 0. -1.
        -11    1    3    3    0    0 -0.25399943552E+02  0.10333478625E+02 -0.20359601057E+02  0.34153349300E+02  0.51100000000E-03 0.  1.
        -12    1    3    3    0    0 -0.66867133243E+01  0.50596676292E+01  0.32877759224E+01  0.90067664628E+01  0.00000000000E+00 0.  1.
</event>
<event>
 7    1  0.2834226E-010  0.4778727E+02  0.7816164E-02  0.1312668E+00
        -11   -1    0    0    0    0  0.00000000000E+00  0.00000000000E+00  0.45593999997E+02  0.45594000000E+02  0.51100000000E-03 0. -1.
         11   -1    0    0    0    0 -0.00000000000E+00 -0.00000000000E+00 -0.45593999997E+02  0.45594000000E+02  0.51100000000E-03 0.  1.
    9900012    2    1    2    0    0  0.20912539738E+02 -0.31586318505E+02 -0.21180016738E+02  0.47787274845E+02  0.20000017326E+02 0.  0.
        -12    1    1    2    0    0 -0.20912539738E+02  0.31586318505E+02  0.21180016738E+02  0.43400725155E+02  0.00000000000E+00 0.  1.
         11    1    3    3    0    0  0.61522354959E+01 -0.21303435679E+02 -0.14113704740E+02  0.26284653984E+02  0.51100000000E-03 0. -1.
        -11    1    3    3    0    0  0.27357341063E+01 -0.73912694025E+01 -0.35583595923E+01  0.86473711456E+01  0.51100000000E-03 0.  1.
         12    1    3    3    0    0  0.12024570136E+02 -0.28916134239E+01 -0.35079524056E+01  0.12855249715E+02  0.00000000000E+00 0. -1.
</event>
<event>
 7    1  0.2834226E-010  0.4778727E+02  0.7816164E-02  0.1312668E+00
        -11   -1    0    0    0    0  0.00000000000E+00  0.00000000000E+00  0.45593999997E+02  0.45594000000E+02  0.51100000000E-03 0. -1.
         11   -1    0    0    0    0 -0.00000000000E+00 -0.00000000000E+00 -0.45593999997E+02  0.45594000000E+02  0.51100000000E-03 0.  1.
    9900012    2    1    2    0    0 -0.28799447685E+02  0.27297659056E+02  0.17579896426E+02  0.47787272642E+02  0.20000007282E+02 0.  0.
        -12    1    1    2    0    0  0.28799447685E+02 -0.27297659056E+02 -0.17579896426E+02  0.43400727358E+02  0.00000000000E+00 0.  1.
         11    1    3    3    0    0 -0.11769759522E+02  0.16803763989E+01  0.70709897785E+01  0.13832924520E+02  0.51100000000E-03 0. -1.
        -11    1    3    3    0    0 -0.18892392934E+01  0.98328699354E+01  0.58341326670E+01  0.11588427871E+02  0.51100000000E-03 0.  1.
         12    1    3    3    0    0 -0.15140448869E+02  0.15784412721E+02  0.46747739804E+01  0.22365920251E+02  0.00000000000E+00 0. -1.
</event>
<event>
 7    1  0.2834226E-010  0.4778727E+02  0.7816164E-02  0.1312668E+00
        -11   -1    0    0    0    0  0.00000000000E+00  0.00000000000E+00  0.45593999997E+02  0.45594000000E+02  0.51100000000E-03 0.  1.
         11   -1    0    0    0    0 -0.00000000000E+00 -0.00000000000E+00 -0.45593999997E+02  0.45594000000E+02  0.51100000000E-03 0. -1.
    9900012    2    1    2    0    0 -0.11341935696E+02  0.35490981838E+02 -0.22256999604E+02  0.47787270415E+02  0.19999997129E+02 0.  0.
        -12    1    1    2    0    0  0.11341935696E+02 -0.35490981838E+02  0.22256999604E+02  0.43400729585E+02  0.00000000000E+00 0.  1.
         11    1    3    3    0    0 -0.13387549038E+02  0.17059043611E+02 -0.72299630324E+01  0.22858473350E+02  0.51100000000E-03 0. -1.
        -11    1    3    3    0    0  0.32431487348E+01  0.62635291501E+01 -0.85767571049E+01  0.11104529428E+02  0.51100000000E-03 0.  1.
         12    1    3    3    0    0 -0.11975353927E+01  0.12168409077E+02 -0.64502794665E+01  0.13824267636E+02  0.00000000000E+00 0. -1.
</event>
<event>
 7    1  0.2834226E-010  0.4778727E+02  0.7816164E-02  0.1312668E+00
        -11   -1    0    0    0    0  0.00000000000E+00  0.00000000000E+00  0.45593999997E+02  0.45594000000E+02  0.51100000000E-03 0.  1.
         11   -1    0    0    0    0 -0.00000000000E+00 -0.00000000000E+00 -0.45593999997E+02  0.45594000000E+02  0.51100000000E-03 0. -1.
    9900012    2    1    2    0    0  0.62319698880E+01 -0.30723825864E+02 -0.30013869345E+02  0.47787271003E+02  0.19999999811E+02 0.  0.
        -12    1    1    2    0    0 -0.62319698880E+01  0.30723825864E+02  0.30013869345E+02  0.43400728997E+02  0.00000000000E+00 0.  1.
         11    1    3    3    0    0 -0.10062023945E+00 -0.15926934231E+02 -0.52305244926E+01  0.16764120769E+02  0.51100000000E-03 0. -1.
        -11    1    3    3    0    0 -0.54590803048E+00 -0.44735596588E+01 -0.13578574157E+02  0.14306936359E+02  0.51100000000E-03 0.  1.
        -12    1    3    3    0    0  0.68784981580E+01 -0.10323331974E+02 -0.11204770696E+02  0.16716213875E+02  0.00000000000E+00 0.  1.
</event>
<event>
 7    1  0.2834226E-010  0.4778727E+02  0.7816164E-02  0.1312668E+00
        -11   -1    0    0    0    0  0.00000000000E+00  0.00000000000E+00  0.45593999997E+02  0.45594000000E+02  0.51100000000E-03 0.  1.
         11   -1    0    0    0    0 -0.00000000000E+00 -0.00000000000E+00 -0.45593999997E+02  0.45594000000E+02  0.51100000000E-03 0. -1.
    9900012    2    1    2    0    0  0.11059370007E+02 -0.25240965223E+02 -0.33529198697E+02  0.47787272407E+02  0.20000006213E+02 0.  0.
        -12    1    1    2    0    0 -0.11059370007E+02  0.25240965223E+02  0.33529198697E+02  0.43400727593E+02  0.00000000000E+00 0.  1.
         11    1    3    3    0    0  0.10682703710E+02 -0.24996473826E+02 -0.24008020721E+02  0.36267463676E+02  0.51100000000E-03 0. -1.
        -11    1    3    3    0    0 -0.19459749288E+01  0.96214172856E+00 -0.83937885836E+01  0.86699609098E+01  0.51100000000E-03 0.  1.
         12    1    3    3    0    0  0.23226412260E+01 -0.12066331253E+01 -0.11273893924E+01  0.28498478216E+01  0.00000000000E+00 0. -1.
</event>
<event>
 7    1  0.2834226E-010  0.4778727E+02  0.7816164E-02  0.1312668E+00
        -11   -1    0    0    0    0  0.00000000000E+00  0.00000000000E+00  0.45593999997E+02  0.45594000000E+02  0.51100000000E-03 0.  1.
         11   -1    0    0    0    0 -0.00000000000E+00 -0.00000000000E+00 -0.45593999997E+02  0.45594000000E+02  0.51100000000E-03 0. -1.
    9900012    2    1    2    0    0 -0.19769566170E+01  0.36450808814E+02 -0.23474532982E+02  0.47787268216E+02  0.19999987106E+02 0.  0.
        -12    1    1    2    0    0  0.19769566170E+01 -0.36450808814E+02  0.23474532982E+02  0.43400731784E+02  0.00000000000E+00 0.  1.
         11    1    3    3    0    0 -0.15096539730E+01  0.96713632181E+01 -0.79581420482E+01  0.12615321904E+02  0.51100000000E-03 0. -1.
        -11    1    3    3    0    0 -0.21263282842E+01  0.23329747087E+02 -0.49638387868E+01  0.23946566912E+02  0.51100000000E-03 0.  1.
        -12    1    3    3    0    0  0.16590256401E+01  0.34496985084E+01 -0.10552552147E+02  0.11225379400E+02  0.00000000000E+00 0.  1.
</event>
<event>
 7    1  0.2834226E-010  0.4778727E+02  0.7816164E-02  0.1312668E+00
        -11   -1    0    0    0    0  0.00000000000E+00  0.00000000000E+00  0.45593999997E+02  0.45594000000E+02  0.51100000000E-03 0.  1.
         11   -1    0    0    0    0 -0.00000000000E+00 -0.00000000000E+00 -0.45593999997E+02  0.45594000000E+02  0.51100000000E-03 0. -1.
    9900012    2    1    2    0    0  0.24740978725E+01  0.21703295915E+02 -0.37502925731E+02  0.47787266686E+02  0.19999980127E+02 0.  0.
        -12    1    1    2    0    0 -0.24740978725E+01 -0.21703295915E+02  0.37502925731E+02  0.43400733314E+02  0.00000000000E+00 0.  1.
         11    1    3    3    0    0  0.58367780606E+01  0.15960831082E+02 -0.30080979823E+02  0.34549695430E+02  0.51100000000E-03 0. -1.
        -11    1    3    3    0    0 -0.27616348299E+01 -0.14391878200E+00 -0.67352584910E+01  0.72808685437E+01  0.51100000000E-03 0.  1.
         12    1    3    3    0    0 -0.60104535820E+00  0.58863836152E+01 -0.68668741644E+00  0.59567027117E+01  0.00000000000E+00 0. -1.
</event>
<event>
 7    1  0.2834226E-010  0.4778728E+02  0.7816164E-02  0.1312668E+00
        -11   -1    0    0    0    0  0.00000000000E+00  0.00000000000E+00  0.45593999997E+02  0.45594000000E+02  0.51100000000E-03 0.  1.
         11   -1    0    0    0    0 -0.00000000000E+00 -0.00000000000E+00 -0.45593999997E+02  0.45594000000E+02  0.51100000000E-03 0. -1.
    9900012    2    1    2    0    0 -0.18343645384E+02  0.37030581447E+02 -0.13261582115E+02  0.47787275945E+02  0.20000022344E+02 0.  0.
        -12    1    1    2    0    0  0.18343645384E+02 -0.37030581447E+02  0.13261582115E+02  0.43400724055E+02  0.00000000000E+00 0.  1.
         11    1    3    3    0    0  0.24664502883E+01  0.52040479312E+01 -0.47994832941E+01  0.74967014110E+01  0.51100000000E-03 0. -1.
        -11    1    3    3    0    0 -0.10359791861E+02  0.71334229306E+01 -0.27778453572E+01  0.12881282358E+02  0.51100000000E-03 0.  1.
         12    1    3    3    0    0 -0.10450303811E+02  0.24693110586E+02 -0.56842534635E+01  0.27409292176E+02  0.00000000000E+00 0. -1.
</event>
<event>
 7    1  0.2834226E-010  0.4778727E+02  0.7816164E-02  0.1312668E+00
        -11   -1    0    0    0    0  0.00000000000E+00  0.00000000000E+00  0.45593999997E+02  0.45594000000E+02  0.51100000000E-03 0. -1.
         11   -1    0    0    0    0 -0.00000000000E+00 -0.00000000000E+00 -0.45593999997E+02  0.45594000000E+02  0.51100000000E-03 0.  1.
    9900012    2    1    2    0    0  0.83531585602E+01 -0.38184285333E+02  0.18862886547E+02  0.47787269670E+02  0.19999993733E+02 0.  0.
        -12    1    1    2    0    0 -0.83531585602E+01  0.38184285333E+02 -0.18862886547E+02  0.43400730330E+02  0.00000000000E+00 0.  1.
         11    1    3    3    0    0  0.67011643296E+01 -0.17839899984E+02 -0.14460116298E+00  0.19057506253E+02  0.51100000000E-03 0.  1.
        -11    1    3    3    0    0 -0.24611398335E+01 -0.10203450454E+02  0.78984684507E+01  0.13135958837E+02  0.51100000000E-03 0. -1.
        -12    1    3    3    0    0  0.41131340641E+01 -0.10140934894E+02  0.11109019260E+02  0.15593804580E+02  0.00000000000E+00 0.  1.
</event>
<event>
 7    1  0.2834226E-010  0.4778727E+02  0.7816164E-02  0.1312668E+00
        -11   -1    0    0    0    0  0.00000000000E+00  0.00000000000E+00  0.45593999997E+02  0.45594000000E+02  0.51100000000E-03 0. -1.
         11   -1    0    0    0    0 -0.00000000000E+00 -0.00000000000E+00 -0.45593999997E+02  0.45594000000E+02  0.51100000000E-03 0.  1.
    9900012    2    1    2    0    0  0.12686188057E+02 -0.54881483053E+01  0.41140785370E+02  0.47787270051E+02  0.19999995471E+02 0.  0.
        -12    1    1    2    0    0 -0.12686188057E+02  0.54881483053E+01 -0.41140785370E+02  0.43400729949E+02  0.00000000000E+00 0.  1.
         11    1    3    3    0    0  0.22528590954E+01  0.34500897946E+01  0.42187059090E+01  0.58971156934E+01  0.51100000000E-03 0. -1.
        -11    1    3    3    0    0  0.13208490150E+02 -0.82428470998E+01  0.35347464127E+02  0.38624499489E+02  0.51100000000E-03 0.  1.
        -12    1    3    3    0    0 -0.27751611890E+01 -0.69539100013E+00  0.15746153346E+01  0.32656548685E+01  0.00000000000E+00 0.  1.
</event>
<event>
 7    1  0.2834226E-010  0.4778727E+02  0.7816164E-02  0.1312668E+00
        -11   -1    0    0    0    0  0.00000000000E+00  0.00000000000E+00  0.45593999997E+02  0.45594000000E+02  0.51100000000E-03 0. -1.
         11   -1    0    0    0    0 -0.00000000000E+00 -0.00000000000E+00 -0.45593999997E+02  0.45594000000E+02  0.51100000000E-03 0.  1.
    9900012    2    1    2    0    0 -0.25740377488E+02  0.32938769694E+02  0.11665909787E+02  0.47787273816E+02  0.20000012637E+02 0.  0.
        -12    1    1    2    0    0  0.25740377488E+02 -0.32938769694E+02 -0.11665909787E+02  0.43400726184E+02  0.00000000000E+00 0.  1.
         11    1    3    3    0    0 -0.25522868932E+02  0.25951998030E+02  0.94244900054E+01  0.37599787930E+02  0.51100000000E-03 0. -1.
        -11    1    3    3    0    0 -0.64807152560E+00  0.76462341844E+01 -0.14442765073E+00  0.76750083721E+01  0.51100000000E-03 0.  1.
         12    1    3    3    0    0  0.43056297024E+00 -0.65946252066E+00  0.23858474319E+01  0.25124775135E+01  0.00000000000E+00 0. -1.
</event>
<event>
 7    1  0.2834226E-010  0.4778727E+02  0.7816164E-02  0.1312668E+00
        -11   -1    0    0    0    0  0.00000000000E+00  0.00000000000E+00  0.45593999997E+02  0.45594000000E+02  0.51100000000E-03 0.  1.
         11   -1    0    0    0    0 -0.00000000000E+00 -0.00000000000E+00 -0.45593999997E+02  0.45594000000E+02  0.51100000000E-03 0. -1.
    9900012    2    1    2    0    0  0.41825266513E+02  0.66475852425E+01 -0.94910404816E+01  0.47787272381E+02  0.20000006094E+02 0.  0.
        -12    1    1    2    0    0 -0.41825266513E+02 -0.66475852425E+01  0.94910404816E+01  0.43400727619E+02  0.00000000000E+00 0.  1.
         11    1    3    3    0    0  0.15598281214E+02 -0.20755490105E+01 -0.88283014062E+01  0.18043092487E+02  0.51100000000E-03 0. -1.
        -11    1    3    3    0    0  0.15195089606E+02  0.97426626670E+01  0.25003767483E+01  0.18222571391E+02  0.51100000000E-03 0.  1.
         12    1    3    3    0    0  0.11031895693E+02 -0.10195284140E+01 -0.31631158236E+01  0.11521608502E+02  0.00000000000E+00 0. -1.
</event>
<event>
 7    1  0.2834226E-010  0.4778727E+02  0.7816164E-02  0.1312668E+00
        -11   -1    0    0    0    0  0.00000000000E+00  0.00000000000E+00  0.45593999997E+02  0.45594000000E+02  0.51100000000E-03 0.  1.
         11   -1    0    0    0    0 -0.00000000000E+00 -0.00000000000E+00 -0.45593999997E+02  0.45594000000E+02  0.51100000000E-03 0. -1.
    9900012    2    1    2    0    0  0.39666156516E+02  0.12412733827E+02 -0.12495731986E+02  0.47787271300E+02  0.20000001167E+02 0.  0.
        -12    1    1    2    0    0 -0.39666156516E+02 -0.12412733827E+02  0.12495731986E+02  0.43400728700E+02  0.00000000000E+00 0.  1.
         11    1    3    3    0    0  0.11453494398E+02  0.99663024855E+01 -0.10301260572E+02  0.18347361903E+02  0.51100000000E-03 0. -1.
        -11    1    3    3    0    0  0.15048406437E+02  0.41235077112E+01  0.14710559503E+01  0.15672327779E+02  0.51100000000E-03 0.  1.
         12    1    3    3    0    0  0.13164255680E+02 -0.16770763696E+01 -0.36655273646E+01  0.13767581619E+02  0.00000000000E+00 0. -1.
</event>
<event>
 7    1  0.2834226E-010  0.4778727E+02  0.7816164E-02  0.1312668E+00
        -11   -1    0    0    0    0  0.00000000000E+00  0.00000000000E+00  0.45593999997E+02  0.45594000000E+02  0.51100000000E-03 0.  1.
         11   -1    0    0    0    0 -0.00000000000E+00 -0.00000000000E+00 -0.45593999997E+02  0.45594000000E+02  0.51100000000E-03 0. -1.
    9900012    2    1    2    0    0  0.33979786993E+02  0.25306876969E+02 -0.94105936202E+01  0.47787271685E+02  0.20000002919E+02 0.  0.
        -12    1    1    2    0    0 -0.33979786993E+02 -0.25306876969E+02  0.94105936202E+01  0.43400728315E+02  0.00000000000E+00 0.  1.
         11    1    3    3    0    0  0.16909034032E+02  0.99080766072E+01 -0.10985015416E+02  0.22466774978E+02  0.51100000000E-03 0. -1.
        -11    1    3    3    0    0  0.13015528652E+02  0.16467420851E+02  0.52058109251E+00  0.20996450665E+02  0.51100000000E-03 0.  1.
        -12    1    3    3    0    0  0.40552243089E+01 -0.10686204891E+01  0.10538407037E+01  0.43240460421E+01  0.00000000000E+00 0.  1.
</event>
<event>
 7    1  0.2834226E-010  0.4778726E+02  0.7816164E-02  0.1312668E+00
        -11   -1    0    0    0    0  0.00000000000E+00  0.00000000000E+00  0.45593999997E+02  0.45594000000E+02  0.51100000000E-03 0. -1.
         11   -1    0    0    0    0 -0.00000000000E+00 -0.00000000000E+00 -0.45593999997E+02  0.45594000000E+02  0.51100000000E-03 0.  1.
    9900012    2    1    2    0    0 -0.67112154890E+01 -0.26171595230E+02  0.33965146959E+02  0.47787262469E+02  0.19999960902E+02 0.  0.
        -12    1    1    2    0    0  0.67112154890E+01  0.26171595230E+02 -0.33965146959E+02  0.43400737531E+02  0.00000000000E+00 0.  1.
         11    1    3    3    0    0  0.23957538235E+00 -0.22856821075E+02  0.20355391359E+02  0.30607737970E+02  0.51100000000E-03 0. -1.
        -11    1    3    3    0    0 -0.29548448203E+01  0.16350033367E+01  0.80548280053E+01  0.87341054654E+01  0.51100000000E-03 0.  1.
         12    1    3    3    0    0 -0.39959460510E+01 -0.49497774920E+01  0.55549275954E+01  0.84454190335E+01  0.00000000000E+00 0. -1.
</event>
<event>
 7    1  0.2834226E-010  0.4778726E+02  0.7816164E-02  0.1312668E+00
        -11   -1    0    0    0    0  0.00000000000E+00  0.00000000000E+00  0.45593999997E+02  0.45594000000E+02  0.51100000000E-03 0.  1.
         11   -1    0    0    0    0 -0.00000000000E+00 -0.00000000000E+00 -0.45593999997E+02  0.45594000000E+02  0.51100000000E-03 0. -1.
    9900012    2    1    2    0    0  0.35772394540E+02  0.49752169059E+01 -0.24066719770E+02  0.47787262738E+02  0.19999962126E+02 0.  0.
        -12    1    1    2    0    0 -0.35772394540E+02 -0.49752169059E+01  0.24066719770E+02  0.43400737262E+02  0.00000000000E+00 0.  1.
         11    1    3    3    0    0  0.84005325983E+01  0.31842015188E+01 -0.61181913381E+01  0.10869238831E+02  0.51100000000E-03 0. -1.
        -11    1    3    3    0    0  0.26538541039E+02 -0.88295317684E+00 -0.20168353569E+02  0.33344208684E+02  0.51100000000E-03 0.  1.
        -12    1    3    3    0    0  0.83332090305E+00  0.26739685639E+01  0.22198251373E+01  0.35738152231E+01  0.00000000000E+00 0.  1.
</event>
<event>
 7    1  0.2834226E-010  0.4778725E+02  0.7816164E-02  0.1312668E+00
        -11   -1    0    0    0    0  0.00000000000E+00  0.00000000000E+00  0.45593999997E+02  0.45594000000E+02  0.51100000000E-03 0. -1.
         11   -1    0    0    0    0 -0.00000000000E+00 -0.00000000000E+00 -0.45593999997E+02  0.45594000000E+02  0.51100000000E-03 0.  1.
    9900012    2    1    2    0    0  0.56394538823E+01 -0.17431333084E+01  0.42997479231E+02  0.47787249153E+02  0.19999900189E+02 0.  0.
        -12    1    1    2    0    0 -0.56394538823E+01  0.17431333084E+01 -0.42997479231E+02  0.43400750847E+02  0.00000000000E+00 0.  1.
         11    1    3    3    0    0  0.25448199832E+01  0.75360325628E+01  0.13654690033E+02  0.15802482580E+02  0.51100000000E-03 0.  1.
        -11    1    3    3    0    0  0.17802228290E+01 -0.84705728210E+01  0.29175661662E+02  0.30432532443E+02  0.51100000000E-03 0. -1.
         12    1    3    3    0    0  0.13144110701E+01 -0.80859305025E+00  0.16712753669E+00  0.15522341304E+01  0.00000000000E+00 0. -1.
</event>
<event>
 7    1  0.2834226E-010  0.4778726E+02  0.7816164E-02  0.1312668E+00
        -11   -1    0    0    0    0  0.00000000000E+00  0.00000000000E+00  0.45593999997E+02  0.45594000000E+02  0.51100000000E-03 0.  1.
         11   -1    0    0    0    0 -0.00000000000E+00 -0.00000000000E+00 -0.45593999997E+02  0.45594000000E+02  0.51100000000E-03 0. -1.
    9900012    2    1    2    0    0 -0.32449698345E+02  0.11266576071E+02 -0.26527441726E+02  0.47787264711E+02  0.19999971125E+02 0.  0.
        -12    1    1    2    0    0  0.32449698345E+02 -0.11266576071E+02  0.26527441726E+02  0.43400735289E+02  0.00000000000E+00 0.  1.
         11    1    3    3    0    0 -0.62535202031E+00  0.22929672556E+01 -0.17044826519E+01  0.29247265439E+01  0.51100000000E-03 0. -1.
        -11    1    3    3    0    0 -0.45387796050E+01  0.82869307512E+01 -0.10177894977E+02  0.13887522746E+02  0.51100000000E-03 0.  1.
        -12    1    3    3    0    0 -0.27285566720E+02  0.68667806427E+00 -0.14645064097E+02  0.30975015422E+02  0.00000000000E+00 0.  1.
</event>
<event>
 7    1  0.2834226E-010  0.4778727E+02  0.7816164E-02  0.1312668E+00
        -11   -1    0    0    0    0  0.00000000000E+00  0.00000000000E+00  0.45593999997E+02  0.45594000000E+02  0.51100000000E-03 0.  1.
         11   -1    0    0    0    0 -0.00000000000E+00 -0.00000000000E+00 -0.45593999997E+02  0.45594000000E+02  0.51100000000E-03 0. -1.
    9900012    2    1    2    0    0 -0.11109238536E+02 -0.39092588948E+02 -0.15230806139E+02  0.47787272504E+02  0.20000006656E+02 0.  0.
        -12    1    1    2    0    0  0.11109238536E+02  0.39092588948E+02  0.15230806139E+02  0.43400727496E+02  0.00000000000E+00 0.  1.
         11    1    3    3    0    0 -0.10111985552E+02 -0.18420437218E+02 -0.13911119429E+02  0.25200873063E+02  0.51100000000E-03 0. -1.
        -11    1    3    3    0    0  0.29767968818E+01 -0.25118437185E+01 -0.86988105938E+00  0.39909111566E+01  0.51100000000E-03 0.  1.
         12    1    3    3    0    0 -0.39740498659E+01 -0.18160308012E+02 -0.44980565025E+00  0.18595488284E+02  0.00000000000E+00 0. -1.
</event>
<event>
 7    1  0.2834226E-010  0.4778727E+02  0.7816164E-02  0.1312668E+00
        -11   -1    0    0    0    0  0.00000000000E+00  0.00000000000E+00  0.45593999997E+02  0.45594000000E+02  0.51100000000E-03 0.  1.
         11   -1    0    0    0    0 -0.00000000000E+00 -0.00000000000E+00 -0.45593999997E+02  0.45594000000E+02  0.51100000000E-03 0. -1.
    9900012    2    1    2    0    0  0.21222999868E+02  0.15037148466E+01 -0.37827850827E+02  0.47787272127E+02  0.20000004936E+02 0.  0.
        -12    1    1    2    0    0 -0.21222999868E+02 -0.15037148466E+01  0.37827850827E+02  0.43400727873E+02  0.00000000000E+00 0.  1.
         11    1    3    3    0    0  0.15613258391E+02 -0.76610534241E+01 -0.29141910876E+02  0.33936949582E+02  0.51100000000E-03 0. -1.
        -11    1    3    3    0    0  0.29723972050E+01  0.41587967012E+01 -0.45249148917E+01  0.68268287062E+01  0.51100000000E-03 0.  1.
         12    1    3    3    0    0  0.26373442716E+01  0.50059715695E+01 -0.41610250589E+01  0.70234938387E+01  0.00000000000E+00 0. -1.
</event>
<event>
 7    1  0.2834226E-010  0.4778727E+02  0.7816164E-02  0.1312668E+00
        -11   -1    0    0    0    0  0.00000000000E+00  0.00000000000E+00  0.45593999997E+02  0.45594000000E+02  0.51100000000E-03 0.  1.
         11   -1    0    0    0    0 -0.00000000000E+00 -0.00000000000E+00 -0.45593999997E+02  0.45594000000E+02  0.51100000000E-03 0. -1.
    9900012    2    1    2    0    0 -0.39618926623E+02 -0.82257607861E+01 -0.15693974266E+02  0.47787270564E+02  0.19999997810E+02 0.  0.
        -12    1    1    2    0    0  0.39618926623E+02  0.82257607861E+01  0.15693974266E+02  0.43400729436E+02  0.00000000000E+00 0.  1.
         11    1    3    3    0    0 -0.30858542342E+02  0.26672506610E+00 -0.58574436121E+01  0.31410673722E+02  0.51100000000E-03 0. -1.
        -11    1    3    3    0    0 -0.10931129224E+01 -0.40058155501E+01 -0.24339903552E+01  0.48130825250E+01  0.51100000000E-03 0.  1.
         12    1    3    3    0    0 -0.76672713590E+01 -0.44866703022E+01 -0.74025402987E+01  0.11563514317E+02  0.00000000000E+00 0. -1.
</event>
<event>
 7    1  0.2834226E-010  0.4778727E+02  0.7816164E-02  0.1312668E+00
        -11   -1    0    0    0    0  0.00000000000E+00  0.00000000000E+00  0.45593999997E+02  0.45594000000E+02  0.51100000000E-03 0.  1.
         11   -1    0    0    0    0 -0.00000000000E+00 -0.00000000000E+00 -0.45593999997E+02  0.45594000000E+02  0.51100000000E-03 0. -1.
    9900012    2    1    2    0    0  0.21740370636E+02  0.53932385754E+01 -0.37173817209E+02  0.47787269319E+02  0.19999992134E+02 0.  0.
        -12    1    1    2    0    0 -0.21740370636E+02 -0.53932385754E+01  0.37173817209E+02  0.43400730681E+02  0.00000000000E+00 0.  1.
         11    1    3    3    0    0  0.21262369879E+02  0.10601306959E+02 -0.31742340057E+02  0.39649113921E+02  0.51100000000E-03 0. -1.
        -11    1    3    3    0    0  0.85086058498E+00 -0.49700869847E+01 -0.57082091886E+01  0.76163889588E+01  0.51100000000E-03 0.  1.
         12    1    3    3    0    0 -0.37285982796E+00 -0.23798139849E+00  0.27673203682E+00  0.52176643964E+00  0.00000000000E+00 0. -1.
</event>
<event>
 7    1  0.2834226E-010  0.4778727E+02  0.7816164E-02  0.1312668E+00
        -11   -1    0    0    0    0  0.00000000000E+00  0.00000000000E+00  0.45593999997E+02  0.45594000000E+02  0.51100000000E-03 0.  1.
         11   -1    0    0    0    0 -0.00000000000E+00 -0.00000000000E+00 -0.45593999997E+02  0.45594000000E+02  0.51100000000E-03 0. -1.
    9900012    2    1    2    0    0  0.10490920737E+02 -0.28240311483E+02 -0.31241780604E+02  0.47787268833E+02  0.19999989916E+02 0.  0.
        -12    1    1    2    0    0 -0.10490920737E+02  0.28240311483E+02  0.31241780604E+02  0.43400731167E+02  0.00000000000E+00 0.  1.
         11    1    3    3    0    0  0.41258044553E+01 -0.11878352132E+02 -0.11336487425E+02  0.16930252780E+02  0.51100000000E-03 0. -1.
        -11    1    3    3    0    0 -0.33108031434E+01  0.58791159649E+00 -0.62050919401E+00  0.34193697403E+01  0.51100000000E-03 0.  1.
        -12    1    3    3    0    0  0.96759194248E+01 -0.16949870947E+02 -0.19284783984E+02  0.27437646313E+02  0.00000000000E+00 0.  1.
</event>
<event>
 7    1  0.2834226E-010  0.4778726E+02  0.7816164E-02  0.1312668E+00
        -11   -1    0    0    0    0  0.00000000000E+00  0.00000000000E+00  0.45593999997E+02  0.45594000000E+02  0.51100000000E-03 0. -1.
         11   -1    0    0    0    0 -0.00000000000E+00 -0.00000000000E+00 -0.45593999997E+02  0.45594000000E+02  0.51100000000E-03 0.  1.
    9900012    2    1    2    0    0 -0.28606120545E+02  0.32478845010E+02  0.32308405175E+01  0.47787264566E+02  0.19999970461E+02 0.  0.
        -12    1    1    2    0    0  0.28606120545E+02 -0.32478845010E+02 -0.32308405175E+01  0.43400735434E+02  0.00000000000E+00 0.  1.
         11    1    3    3    0    0 -0.12971148714E+02  0.11677209555E+02 -0.10518399521E+01  0.17484687286E+02  0.51100000000E-03 0. -1.
        -11    1    3    3    0    0  0.21305978498E+01  0.85083941750E+00 -0.17863335679E+01  0.29076386964E+01  0.51100000000E-03 0.  1.
        -12    1    3    3    0    0 -0.17765569681E+02  0.19950796037E+02  0.60690140376E+01  0.27394938583E+02  0.00000000000E+00 0.  1.
</event>
<event>
 7    1  0.2834226E-010  0.4778728E+02  0.7816164E-02  0.1312668E+00
        -11   -1    0    0    0    0  0.00000000000E+00  0.00000000000E+00  0.45593999997E+02  0.45594000000E+02  0.51100000000E-03 0.  1.
         11   -1    0    0    0    0 -0.00000000000E+00 -0.00000000000E+00 -0.45593999997E+02  0.45594000000E+02  0.51100000000E-03 0. -1.
    9900012    2    1    2    0    0 -0.23367479544E+02 -0.18097153467E+02 -0.31781706447E+02  0.47787275023E+02  0.20000018140E+02 0.  0.
        -12    1    1    2    0    0  0.23367479544E+02  0.18097153467E+02  0.31781706447E+02  0.43400724977E+02  0.00000000000E+00 0.  1.
         11    1    3    3    0    0 -0.18590736905E+01 -0.11619144131E+02 -0.98905904803E+01  0.15371546625E+02  0.51100000000E-03 0. -1.
        -11    1    3    3    0    0 -0.80654005821E+01  0.15673551912E+01 -0.82338033894E+01  0.11631973494E+02  0.51100000000E-03 0.  1.
         12    1    3    3    0    0 -0.13443005271E+02 -0.80453645270E+01 -0.13657312577E+02  0.20783754904E+02  0.00000000000E+00 0. -1.
</event>
<event>
 7    1  0.2834226E-010  0.4778727E+02  0.7816164E-02  0.1312668E+00
        -11   -1    0    0    0    0  0.00000000000E+00  0.00000000000E+00  0.45593999997E+02  0.45594000000E+02  0.51100000000E-03 0.  1.
         11   -1    0    0    0    0 -0.00000000000E+00 -0.00000000000E+00 -0.45593999997E+02  0.45594000000E+02  0.51100000000E-03 0. -1.
    9900012    2    1    2    0    0 -0.69262962191E+01  0.61270218084E+01 -0.42404124314E+02  0.47787265739E+02  0.19999975812E+02 0.  0.
        -12    1    1    2    0    0  0.69262962191E+01 -0.61270218084E+01  0.42404124314E+02  0.43400734261E+02  0.00000000000E+00 0.  1.
         11    1    3    3    0    0 -0.71750089265E+01  0.17306099484E+01 -0.22692785065E+02  0.23862905484E+02  0.51100000000E-03 0. -1.
        -11    1    3    3    0    0  0.53620023752E+01  0.57705563221E+01 -0.88944744825E+01  0.11881164350E+02  0.51100000000E-03 0.  1.
        -12    1    3    3    0    0 -0.51132896678E+01 -0.13741444621E+01 -0.10816864766E+02  0.12043195905E+02  0.00000000000E+00 0.  1.
</event>
<event>
 7    1  0.2834226E-010  0.4778727E+02  0.7816164E-02  0.1312668E+00
        -11   -1    0    0    0    0  0.00000000000E+00  0.00000000000E+00  0.45593999997E+02  0.45594000000E+02  0.51100000000E-03 0.  1.
         11   -1    0    0    0    0 -0.00000000000E+00 -0.00000000000E+00 -0.45593999997E+02  0.45594000000E+02  0.51100000000E-03 0. -1.
    9900012    2    1    2    0    0  0.37187681265E+02 -0.14674845866E+02 -0.16892277201E+02  0.47787265351E+02  0.19999974042E+02 0.  0.
        -12    1    1    2    0    0 -0.37187681265E+02  0.14674845866E+02  0.16892277201E+02  0.43400734649E+02  0.00000000000E+00 0.  1.
         11    1    3    3    0    0  0.17015740578E+02 -0.25762761400E+01 -0.65619618010E+01  0.18418250978E+02  0.51100000000E-03 0. -1.
        -11    1    3    3    0    0  0.15129222275E+02 -0.14529109676E+02 -0.48378185638E+01  0.21526562274E+02  0.51100000000E-03 0.  1.
        -12    1    3    3    0    0  0.50427184122E+01  0.24305399502E+01 -0.54924968360E+01  0.78424520992E+01  0.00000000000E+00 0.  1.
</event>
<event>
 7    1  0.2834226E-010  0.4778727E+02  0.7816164E-02  0.1312668E+00
        -11   -1    0    0    0    0  0.00000000000E+00  0.00000000000E+00  0.45593999997E+02  0.45594000000E+02  0.51100000000E-03 0.  1.
         11   -1    0    0    0    0 -0.00000000000E+00 -0.00000000000E+00 -0.45593999997E+02  0.45594000000E+02  0.51100000000E-03 0. -1.
    9900012    2    1    2    0    0 -0.61711937891E+01  0.28253237171E+01 -0.42866735887E+02  0.47787272673E+02  0.20000007426E+02 0.  0.
        -12    1    1    2    0    0  0.61711937891E+01 -0.28253237171E+01  0.42866735887E+02  0.43400727327E+02  0.00000000000E+00 0.  1.
         11    1    3    3    0    0 -0.65208512749E+01  0.81696263891E+01 -0.14779581268E+02  0.18102494839E+02  0.51100000000E-03 0. -1.
        -11    1    3    3    0    0 -0.22030913837E+01 -0.54172860270E+01 -0.25016340129E+02  0.25690813013E+02  0.51100000000E-03 0.  1.
        -12    1    3    3    0    0  0.25527488695E+01  0.72983355091E-01 -0.30708144899E+01  0.39939648211E+01  0.00000000000E+00 0.  1.
</event>
<event>
 7    1  0.2834226E-010  0.4778727E+02  0.7816164E-02  0.1312668E+00
        -11   -1    0    0    0    0  0.00000000000E+00  0.00000000000E+00  0.45593999997E+02  0.45594000000E+02  0.51100000000E-03 0. -1.
         11   -1    0    0    0    0 -0.00000000000E+00 -0.00000000000E+00 -0.45593999997E+02  0.45594000000E+02  0.51100000000E-03 0.  1.
    9900012    2    1    2    0    0 -0.33985251376E+02 -0.12182306846E+02  0.24087708046E+02  0.47787267401E+02  0.19999983390E+02 0.  0.
        -12    1    1    2    0    0  0.33985251376E+02  0.12182306846E+02 -0.24087708046E+02  0.43400732599E+02  0.00000000000E+00 0.  1.
         11    1    3    3    0    0 -0.10293723194E+02 -0.26636487263E+01  0.28188121124E+01  0.11000066533E+02  0.51100000000E-03 0. -1.
        -11    1    3    3    0    0 -0.91484336629E+01 -0.72901700006E+01  0.99892412800E+00  0.11740454284E+02  0.51100000000E-03 0.  1.
        -12    1    3    3    0    0 -0.14543094519E+02 -0.22284881189E+01  0.20269971805E+02  0.25046746585E+02  0.00000000000E+00 0.  1.
</event>
<event>
 7    1  0.2834226E-010  0.4778727E+02  0.7816164E-02  0.1312668E+00
        -11   -1    0    0    0    0  0.00000000000E+00  0.00000000000E+00  0.45593999997E+02  0.45594000000E+02  0.51100000000E-03 0.  1.
         11   -1    0    0    0    0 -0.00000000000E+00 -0.00000000000E+00 -0.45593999997E+02  0.45594000000E+02  0.51100000000E-03 0. -1.
    9900012    2    1    2    0    0 -0.48351453203E+01 -0.21561324937E+02 -0.37354434244E+02  0.47787272806E+02  0.20000008031E+02 0.  0.
        -12    1    1    2    0    0  0.48351453203E+01  0.21561324937E+02  0.37354434244E+02  0.43400727194E+02  0.00000000000E+00 0.  1.
         11    1    3    3    0    0 -0.58641460515E+01 -0.11372581546E+02 -0.18002654325E+02  0.22086633581E+02  0.51100000000E-03 0. -1.
        -11    1    3    3    0    0 -0.68995252850E+00  0.26130579149E+01 -0.82069903054E+01  0.86405321765E+01  0.51100000000E-03 0.  1.
        -12    1    3    3    0    0  0.17189532597E+01 -0.12801801306E+02 -0.11144789614E+02  0.17060107049E+02  0.00000000000E+00 0.  1.
</event>
<event>
 7    1  0.2834226E-010  0.4778727E+02  0.7816164E-02  0.1312668E+00
        -11   -1    0    0    0    0  0.00000000000E+00  0.00000000000E+00  0.45593999997E+02  0.45594000000E+02  0.51100000000E-03 0.  1.
         11   -1    0    0    0    0 -0.00000000000E+00 -0.00000000000E+00 -0.45593999997E+02  0.45594000000E+02  0.51100000000E-03 0. -1.
    9900012    2    1    2    0    0  0.94056777469E+01 -0.21174883100E+02 -0.36698515450E+02  0.47787268618E+02  0.19999988938E+02 0.  0.
        -12    1    1    2    0    0 -0.94056777469E+01  0.21174883100E+02  0.36698515450E+02  0.43400731382E+02  0.00000000000E+00 0.  1.
         11    1    3    3    0    0  0.97385668474E+01 -0.46095048848E+01 -0.11181691576E+02  0.15527956926E+02  0.51100000000E-03 0. -1.
        -11    1    3    3    0    0  0.10620555993E+01  0.93800158833E+00 -0.52794647032E+01  0.54663110860E+01  0.51100000000E-03 0.  1.
         12    1    3    3    0    0 -0.13949446998E+01 -0.17503379804E+02 -0.20237359171E+02  0.26793000606E+02  0.00000000000E+00 0. -1.
</event>
<event>
 7    1  0.2834226E-010  0.4778727E+02  0.7816164E-02  0.1312668E+00
        -11   -1    0    0    0    0  0.00000000000E+00  0.00000000000E+00  0.45593999997E+02  0.45594000000E+02  0.51100000000E-03 0.  1.
         11   -1    0    0    0    0 -0.00000000000E+00 -0.00000000000E+00 -0.45593999997E+02  0.45594000000E+02  0.51100000000E-03 0. -1.
    9900012    2    1    2    0    0  0.60010610315E+01 -0.12846920967E+01 -0.42964637599E+02  0.47787271305E+02  0.20000001187E+02 0.  0.
        -12    1    1    2    0    0 -0.60010610315E+01  0.12846920967E+01  0.42964637599E+02  0.43400728695E+02  0.00000000000E+00 0.  1.
         11    1    3    3    0    0 -0.22106208935E+01  0.46254623304E+01 -0.79951427647E+01  0.94975815129E+01  0.51100000000E-03 0. -1.
        -11    1    3    3    0    0 -0.83429532071E+00  0.17270688995E+00  0.62933989667E+00  0.10592192024E+01  0.51100000000E-03 0.  1.
         12    1    3    3    0    0  0.90459772457E+01 -0.60828613171E+01 -0.35598834731E+02  0.37230470590E+02  0.00000000000E+00 0. -1.
</event>
<event>
 7    1  0.2834226E-010  0.4778726E+02  0.7816164E-02  0.1312668E+00
        -11   -1    0    0    0    0  0.00000000000E+00  0.00000000000E+00  0.45593999997E+02  0.45594000000E+02  0.51100000000E-03 0.  1.
         11   -1    0    0    0    0 -0.00000000000E+00 -0.00000000000E+00 -0.45593999997E+02  0.45594000000E+02  0.51100000000E-03 0. -1.
    9900012    2    1    2    0    0  0.80462397601E+01  0.10311633023E+02 -0.41382993320E+02  0.47787263993E+02  0.19999967848E+02 0.  0.
        -12    1    1    2    0    0 -0.80462397601E+01 -0.10311633023E+02  0.41382993320E+02  0.43400736007E+02  0.00000000000E+00 0.  1.
         11    1    3    3    0    0  0.22361562982E-01  0.52595817082E+01 -0.26240893009E+01  0.58778860745E+01  0.51100000000E-03 0.  1.
        -11    1    3    3    0    0  0.11104060110E+02  0.30251592308E+01 -0.33962403295E+02  0.35859400123E+02  0.51100000000E-03 0. -1.
         12    1    3    3    0    0 -0.30801819127E+01  0.20268920837E+01 -0.47965007237E+01  0.60499777955E+01  0.00000000000E+00 0. -1.
</event>
<event>
 7    1  0.2834226E-010  0.4778727E+02  0.7816164E-02  0.1312668E+00
        -11   -1    0    0    0    0  0.00000000000E+00  0.00000000000E+00  0.45593999997E+02  0.45594000000E+02  0.51100000000E-03 0.  1.
         11   -1    0    0    0    0 -0.00000000000E+00 -0.00000000000E+00 -0.45593999997E+02  0.45594000000E+02  0.51100000000E-03 0. -1.
    9900012    2    1    2    0    0  0.39199818244E+02  0.15407521980E+01  0.18564053303E+02  0.47787265643E+02  0.19999975374E+02 0.  0.
        -12    1    1    2    0    0 -0.39199818244E+02 -0.15407521980E+01 -0.18564053303E+02  0.43400734357E+02  0.00000000000E+00 0.  1.
         11    1    3    3    0    0  0.12807000217E+02  0.46903750499E+01  0.22109628098E+01  0.13816918234E+02  0.51100000000E-03 0. -1.
        -11    1    3    3    0    0  0.98375614867E+01  0.50508735727E+01  0.40644200234E+01  0.11781699803E+02  0.51100000000E-03 0.  1.
         12    1    3    3    0    0  0.16555256540E+02 -0.82004964245E+01  0.12288670469E+02  0.22188647607E+02  0.00000000000E+00 0. -1.
</event>
<event>
 7    1  0.2834226E-010  0.4778727E+02  0.7816164E-02  0.1312668E+00
        -11   -1    0    0    0    0  0.00000000000E+00  0.00000000000E+00  0.45593999997E+02  0.45594000000E+02  0.51100000000E-03 0.  1.
         11   -1    0    0    0    0 -0.00000000000E+00 -0.00000000000E+00 -0.45593999997E+02  0.45594000000E+02  0.51100000000E-03 0. -1.
    9900012    2    1    2    0    0  0.38431907452E+02 -0.70652528070E+01  0.18886344342E+02  0.47787270625E+02  0.19999998089E+02 0.  0.
        -12    1    1    2    0    0 -0.38431907452E+02  0.70652528070E+01 -0.18886344342E+02  0.43400729375E+02  0.00000000000E+00 0.  1.
         11    1    3    3    0    0  0.29931721930E+02 -0.61865293918E+01  0.14382899016E+02  0.33779415448E+02  0.51100000000E-03 0. -1.
        -11    1    3    3    0    0  0.73397931040E+01 -0.49982976571E+01  0.38485152262E+01  0.96781512690E+01  0.51100000000E-03 0.  1.
         12    1    3    3    0    0  0.11603924177E+01  0.41195742420E+01  0.65493010048E+00  0.43297039084E+01  0.00000000000E+00 0. -1.
</event>
<event>
 7    1  0.2834226E-010  0.4778727E+02  0.7816164E-02  0.1312668E+00
        -11   -1    0    0    0    0  0.00000000000E+00  0.00000000000E+00  0.45593999997E+02  0.45594000000E+02  0.51100000000E-03 0.  1.
         11   -1    0    0    0    0 -0.00000000000E+00 -0.00000000000E+00 -0.45593999997E+02  0.45594000000E+02  0.51100000000E-03 0. -1.
    9900012    2    1    2    0    0  0.25785639523E+02 -0.61167018237E+01 -0.34370189271E+02  0.47787272387E+02  0.20000006122E+02 0.  0.
        -12    1    1    2    0    0 -0.25785639523E+02  0.61167018237E+01  0.34370189271E+02  0.43400727613E+02  0.00000000000E+00 0.  1.
         11    1    3    3    0    0  0.92365366585E+01  0.42912969894E+01 -0.11131151850E+02  0.15087457740E+02  0.51100000000E-03 0. -1.
        -11    1    3    3    0    0  0.15457391337E+02 -0.78005120558E+01 -0.11888935778E+02  0.21002993346E+02  0.51100000000E-03 0.  1.
        -12    1    3    3    0    0  0.10917115276E+01 -0.26074867572E+01 -0.11350101643E+02  0.11696821301E+02  0.00000000000E+00 0.  1.
</event>
<event>
 7    1  0.2834226E-010  0.4778727E+02  0.7816164E-02  0.1312668E+00
        -11   -1    0    0    0    0  0.00000000000E+00  0.00000000000E+00  0.45593999997E+02  0.45594000000E+02  0.51100000000E-03 0.  1.
         11   -1    0    0    0    0 -0.00000000000E+00 -0.00000000000E+00 -0.45593999997E+02  0.45594000000E+02  0.51100000000E-03 0. -1.
    9900012    2    1    2    0    0  0.15941261249E+02  0.35859064262E+02 -0.18537171740E+02  0.47787273784E+02  0.20000012490E+02 0.  0.
        -12    1    1    2    0    0 -0.15941261249E+02 -0.35859064262E+02  0.18537171740E+02  0.43400726216E+02  0.00000000000E+00 0.  1.
         11    1    3    3    0    0  0.88409908424E+01  0.16336303721E+02 -0.80970302116E+01  0.20263263233E+02  0.51100000000E-03 0. -1.
        -11    1    3    3    0    0  0.17817660601E+01  0.18946153653E+02 -0.11260558186E+02  0.22111797743E+02  0.51100000000E-03 0.  1.
        -12    1    3    3    0    0  0.53185043461E+01  0.57660688874E+00  0.82041665702E+00  0.54122128076E+01  0.00000000000E+00 0.  1.
</event>
<event>
 7    1  0.2834226E-010  0.4778727E+02  0.7816164E-02  0.1312668E+00
        -11   -1    0    0    0    0  0.00000000000E+00  0.00000000000E+00  0.45593999997E+02  0.45594000000E+02  0.51100000000E-03 0.  1.
         11   -1    0    0    0    0 -0.00000000000E+00 -0.00000000000E+00 -0.45593999997E+02  0.45594000000E+02  0.51100000000E-03 0. -1.
    9900012    2    1    2    0    0 -0.15321519203E+02 -0.27590670044E+02 -0.29793108430E+02  0.47787270350E+02  0.19999996836E+02 0.  0.
        -12    1    1    2    0    0  0.15321519203E+02  0.27590670044E+02  0.29793108430E+02  0.43400729650E+02  0.00000000000E+00 0.  1.
         11    1    3    3    0    0 -0.34655212940E+01 -0.20331809804E+02 -0.24928681371E+02  0.32354775272E+02  0.51100000000E-03 0. -1.
        -11    1    3    3    0    0 -0.85952802255E+01 -0.49288441035E+01 -0.11615084354E+01  0.99760437278E+01  0.51100000000E-03 0.  1.
         12    1    3    3    0    0 -0.32607176833E+01 -0.23300161373E+01 -0.37029186233E+01  0.54564513506E+01  0.00000000000E+00 0. -1.
</event>
<event>
 7    1  0.2834226E-010  0.4778728E+02  0.7816164E-02  0.1312668E+00
        -11   -1    0    0    0    0  0.00000000000E+00  0.00000000000E+00  0.45593999997E+02  0.45594000000E+02  0.51100000000E-03 0. -1.
         11   -1    0    0    0    0 -0.00000000000E+00 -0.00000000000E+00 -0.45593999997E+02  0.45594000000E+02  0.51100000000E-03 0.  1.
    9900012    2    1    2    0    0 -0.45655026285E+01  0.18594197533E+02  0.38949129027E+02  0.47787278254E+02  0.20000032870E+02 0.  0.
        -12    1    1    2    0    0  0.45655026285E+01 -0.18594197533E+02 -0.38949129027E+02  0.43400721746E+02  0.00000000000E+00 0.  1.
         11    1    3    3    0    0 -0.17869633639E+01  0.13017837442E+02  0.29776951970E+02  0.32547261000E+02  0.51100000000E-03 0. -1.
        -11    1    3    3    0    0  0.11818504593E+01  0.42838923326E+01 -0.72418849223E+00  0.45025496398E+01  0.51100000000E-03 0.  1.
        -12    1    3    3    0    0 -0.39603897240E+01  0.12924677584E+01  0.98963655492E+01  0.10737467614E+02  0.00000000000E+00 0.  1.
</event>
<event>
 7    1  0.2834226E-010  0.4778726E+02  0.7816164E-02  0.1312668E+00
        -11   -1    0    0    0    0  0.00000000000E+00  0.00000000000E+00  0.45593999997E+02  0.45594000000E+02  0.51100000000E-03 0.  1.
         11   -1    0    0    0    0 -0.00000000000E+00 -0.00000000000E+00 -0.45593999997E+02  0.45594000000E+02  0.51100000000E-03 0. -1.
    9900012    2    1    2    0    0 -0.80155344182E+01 -0.20333552225E+02 -0.37495622800E+02  0.47787264208E+02  0.19999968830E+02 0.  0.
        -12    1    1    2    0    0  0.80155344182E+01  0.20333552225E+02  0.37495622800E+02  0.43400735792E+02  0.00000000000E+00 0.  1.
         11    1    3    3    0    0 -0.11850677855E+02 -0.15642474587E+02 -0.22093072975E+02  0.29550456013E+02  0.51100000000E-03 0. -1.
        -11    1    3    3    0    0  0.99888225315E+00 -0.35456296237E+01 -0.14623517434E+02  0.15080335460E+02  0.51100000000E-03 0.  1.
         12    1    3    3    0    0  0.28362611841E+01 -0.11454480147E+01 -0.77903239075E+00  0.31564727347E+01  0.00000000000E+00 0. -1.
</event>
<event>
 7    1  0.2834226E-010  0.4778727E+02  0.7816164E-02  0.1312668E+00
        -11   -1    0    0    0    0  0.00000000000E+00  0.00000000000E+00  0.45593999997E+02  0.45594000000E+02  0.51100000000E-03 0. -1.
         11   -1    0    0    0    0 -0.00000000000E+00 -0.00000000000E+00 -0.45593999997E+02  0.45594000000E+02  0.51100000000E-03 0.  1.
    9900012    2    1    2    0    0  0.19249296095E+02  0.44976882047E+01  0.38637525570E+02  0.47787274412E+02  0.20000015355E+02 0.  0.
        -12    1    1    2    0    0 -0.19249296095E+02 -0.44976882047E+01 -0.38637525570E+02  0.43400725588E+02  0.00000000000E+00 0.  1.
         11    1    3    3    0    0  0.63716607768E+01 -0.24017472335E+01  0.25658797350E+02  0.26546945823E+02  0.51100000000E-03 0. -1.
        -11    1    3    3    0    0  0.13210677251E+02  0.38976462132E+01  0.10237255615E+02  0.17161440563E+02  0.51100000000E-03 0.  1.
         12    1    3    3    0    0 -0.33304193262E+00  0.30017892250E+01  0.27414726059E+01  0.40788880261E+01  0.00000000000E+00 0. -1.
</event>
<event>
 7    1  0.2834226E-010  0.4778728E+02  0.7816164E-02  0.1312668E+00
        -11   -1    0    0    0    0  0.00000000000E+00  0.00000000000E+00  0.45593999997E+02  0.45594000000E+02  0.51100000000E-03 0.  1.
         11   -1    0    0    0    0 -0.00000000000E+00 -0.00000000000E+00 -0.45593999997E+02  0.45594000000E+02  0.51100000000E-03 0. -1.
    9900012    2    1    2    0    0  0.39881505712E+02  0.16397644635E+02 -0.49199003811E+01  0.47787278034E+02  0.20000031869E+02 0.  0.
        -12    1    1    2    0    0 -0.39881505712E+02 -0.16397644635E+02  0.49199003811E+01  0.43400721966E+02  0.00000000000E+00 0.  1.
         11    1    3    3    0    0  0.41817180494E+02  0.14383619395E+02 -0.36030176241E+01  0.44368308821E+02  0.51100000000E-03 0. -1.
        -11    1    3    3    0    0 -0.18989928719E+01  0.18750098528E+01 -0.66345432471E+00  0.27499105036E+01  0.51100000000E-03 0.  1.
         12    1    3    3    0    0 -0.36681910811E-01  0.13901538707E+00 -0.65342843227E+00  0.66905870933E+00  0.00000000000E+00 0. -1.
</event>
<event>
 7    1  0.2834226E-010  0.4778728E+02  0.7816164E-02  0.1312668E+00
        -11   -1    0    0    0    0  0.00000000000E+00  0.00000000000E+00  0.45593999997E+02  0.45594000000E+02  0.51100000000E-03 0.  1.
         11   -1    0    0    0    0 -0.00000000000E+00 -0.00000000000E+00 -0.45593999997E+02  0.45594000000E+02  0.51100000000E-03 0. -1.
    9900012    2    1    2    0    0 -0.14657902531E+02 -0.40701473900E+02  0.34869501419E+01  0.47787275287E+02  0.20000019345E+02 0.  0.
        -12    1    1    2    0    0  0.14657902531E+02  0.40701473900E+02 -0.34869501419E+01  0.43400724713E+02  0.00000000000E+00 0.  1.
         11    1    3    3    0    0  0.40266824622E+01 -0.52544406475E+01  0.23744098109E+01  0.70328614647E+01  0.51100000000E-03 0. -1.
        -11    1    3    3    0    0 -0.10660564468E+02 -0.12591836807E+02  0.10432626951E+01  0.16531496794E+02  0.51100000000E-03 0.  1.
        -12    1    3    3    0    0 -0.80240205261E+01 -0.22855196446E+02  0.69277635814E-01  0.24222917029E+02  0.00000000000E+00 0.  1.
</event>
<event>
 7    1  0.2834226E-010  0.4778728E+02  0.7816164E-02  0.1312668E+00
        -11   -1    0    0    0    0  0.00000000000E+00  0.00000000000E+00  0.45593999997E+02  0.45594000000E+02  0.51100000000E-03 0.  1.
         11   -1    0    0    0    0 -0.00000000000E+00 -0.00000000000E+00 -0.45593999997E+02  0.45594000000E+02  0.51100000000E-03 0. -1.
    9900012    2    1    2    0    0 -0.23119804276E+02 -0.16426892487E+02 -0.32852008395E+02  0.47787278783E+02  0.20000035284E+02 0.  0.
        -12    1    1    2    0    0  0.23119804276E+02  0.16426892487E+02  0.32852008395E+02  0.43400721217E+02  0.00000000000E+00 0.  1.
         11    1    3    3    0    0  0.26657905322E+01 -0.12095289463E+01 -0.27909631640E+00  0.29406282404E+01  0.51100000000E-03 0. -1.
        -11    1    3    3    0    0 -0.18582718750E+02 -0.69222120695E+01 -0.20419560719E+02  0.28463887933E+02  0.51100000000E-03 0.  1.
         12    1    3    3    0    0 -0.72028760586E+01 -0.82951514709E+01 -0.12153351360E+02  0.16382762609E+02  0.00000000000E+00 0. -1.
</event>
<event>
 7    1  0.2834226E-010  0.4778727E+02  0.7816164E-02  0.1312668E+00
        -11   -1    0    0    0    0  0.00000000000E+00  0.00000000000E+00  0.45593999997E+02  0.45594000000E+02  0.51100000000E-03 0. -1.
         11   -1    0    0    0    0 -0.00000000000E+00 -0.00000000000E+00 -0.45593999997E+02  0.45594000000E+02  0.51100000000E-03 0.  1.
    9900012    2    1    2    0    0  0.36511952731E+02 -0.11634856909E+02  0.20374763911E+02  0.47787267381E+02  0.19999983295E+02 0.  0.
        -12    1    1    2    0    0 -0.36511952731E+02  0.11634856909E+02 -0.20374763911E+02  0.43400732619E+02  0.00000000000E+00 0.  1.
         11    1    3    3    0    0  0.26648244621E+02 -0.74453729152E+01  0.11095288614E+02  0.29810534194E+02  0.51100000000E-03 0. -1.
        -11    1    3    3    0    0  0.55266681453E+01 -0.21557833971E+01  0.11312037131E+02  0.12773161204E+02  0.51100000000E-03 0.  1.
        -12    1    3    3    0    0  0.43370399641E+01 -0.20337005966E+01 -0.20325618341E+01  0.52035719824E+01  0.00000000000E+00 0.  1.
</event>
<event>
 7    1  0.2834226E-010  0.4778727E+02  0.7816164E-02  0.1312668E+00
        -11   -1    0    0    0    0  0.00000000000E+00  0.00000000000E+00  0.45593999997E+02  0.45594000000E+02  0.51100000000E-03 0.  1.
         11   -1    0    0    0    0 -0.00000000000E+00 -0.00000000000E+00 -0.45593999997E+02  0.45594000000E+02  0.51100000000E-03 0. -1.
    9900012    2    1    2    0    0 -0.35207370678E+02  0.22084337876E+02  0.12503863138E+02  0.47787268176E+02  0.19999986923E+02 0.  0.
        -12    1    1    2    0    0  0.35207370678E+02 -0.22084337876E+02 -0.12503863138E+02  0.43400731824E+02  0.00000000000E+00 0.  1.
         11    1    3    3    0    0 -0.10742673156E+02  0.15098380813E+02  0.50300479624E+01  0.19200716457E+02  0.51100000000E-03 0. -1.
        -11    1    3    3    0    0 -0.23970452197E+02  0.89064454161E+01  0.73141372305E+01  0.26597066608E+02  0.51100000000E-03 0.  1.
         12    1    3    3    0    0 -0.49424532524E+00 -0.19204883537E+01  0.15967794462E+00  0.19894851104E+01  0.00000000000E+00 0. -1.
</event>
<event>
 7    1  0.2834226E-010  0.4778728E+02  0.7816164E-02  0.1312668E+00
        -11   -1    0    0    0    0  0.00000000000E+00  0.00000000000E+00  0.45593999997E+02  0.45594000000E+02  0.51100000000E-03 0. -1.
         11   -1    0    0    0    0 -0.00000000000E+00 -0.00000000000E+00 -0.45593999997E+02  0.45594000000E+02  0.51100000000E-03 0.  1.
    9900012    2    1    2    0    0  0.29067393012E+01 -0.43259893676E+02 -0.19378842995E+01  0.47787275009E+02  0.20000018074E+02 0.  0.
        -12    1    1    2    0    0 -0.29067393012E+01  0.43259893676E+02  0.19378842995E+01  0.43400724991E+02  0.00000000000E+00 0.  1.
         11    1    3    3    0    0 -0.22552986351E+01 -0.49418219508E+01  0.19534345921E+01  0.57726842191E+01  0.51100000000E-03 0. -1.
        -11    1    3    3    0    0 -0.23398569693E+01 -0.30220600528E+02 -0.21741963065E-02  0.30311048017E+02  0.51100000000E-03 0.  1.
        -12    1    3    3    0    0  0.75018949056E+01 -0.80974711974E+01 -0.38891446952E+01  0.11703542772E+02  0.00000000000E+00 0.  1.
</event>
<event>
 7    1  0.2834226E-010  0.4778727E+02  0.7816164E-02  0.1312668E+00
        -11   -1    0    0    0    0  0.00000000000E+00  0.00000000000E+00  0.45593999997E+02  0.45594000000E+02  0.51100000000E-03 0.  1.
         11   -1    0    0    0    0 -0.00000000000E+00 -0.00000000000E+00 -0.45593999997E+02  0.45594000000E+02  0.51100000000E-03 0. -1.
    9900012    2    1    2    0    0  0.10214056983E+02 -0.37506019029E+02 -0.19302719609E+02  0.47787269501E+02  0.19999992965E+02 0.  0.
        -12    1    1    2    0    0 -0.10214056983E+02  0.37506019029E+02  0.19302719609E+02  0.43400730499E+02  0.00000000000E+00 0.  1.
         11    1    3    3    0    0  0.10923019129E+02 -0.35146950299E+02 -0.18956935111E+02  0.41400312213E+02  0.51100000000E-03 0. -1.
        -11    1    3    3    0    0  0.10056623595E+01  0.81989705537E+00 -0.20240208617E+01  0.24042147725E+01  0.51100000000E-03 0.  1.
         12    1    3    3    0    0 -0.17146245057E+01 -0.31789657853E+01  0.16782363632E+01  0.39827425163E+01  0.00000000000E+00 0. -1.
</event>
<event>
 7    1  0.2834226E-010  0.4778727E+02  0.7816164E-02  0.1312668E+00
        -11   -1    0    0    0    0  0.00000000000E+00  0.00000000000E+00  0.45593999997E+02  0.45594000000E+02  0.51100000000E-03 0.  1.
         11   -1    0    0    0    0 -0.00000000000E+00 -0.00000000000E+00 -0.45593999997E+02  0.45594000000E+02  0.51100000000E-03 0. -1.
    9900012    2    1    2    0    0  0.73992582395E+01  0.27776994260E+01 -0.42675032997E+02  0.47787273302E+02  0.20000010295E+02 0.  0.
        -12    1    1    2    0    0 -0.73992582395E+01 -0.27776994260E+01  0.42675032997E+02  0.43400726698E+02  0.00000000000E+00 0.  1.
         11    1    3    3    0    0  0.11703000932E+02  0.46095015188E+01 -0.23031213262E+02  0.26242037262E+02  0.51100000000E-03 0. -1.
        -11    1    3    3    0    0 -0.43974336968E+01  0.20673894224E+01 -0.12400641957E+02  0.13318687749E+02  0.51100000000E-03 0.  1.
         12    1    3    3    0    0  0.93691004263E-01 -0.38991915152E+01 -0.72431777782E+01  0.82265482921E+01  0.00000000000E+00 0. -1.
</event>
<event>
 7    1  0.2834226E-010  0.4778727E+02  0.7816164E-02  0.1312668E+00
        -11   -1    0    0    0    0  0.00000000000E+00  0.00000000000E+00  0.45593999997E+02  0.45594000000E+02  0.51100000000E-03 0.  1.
         11   -1    0    0    0    0 -0.00000000000E+00 -0.00000000000E+00 -0.45593999997E+02  0.45594000000E+02  0.51100000000E-03 0. -1.
    9900012    2    1    2    0    0 -0.41855197391E+02  0.11247553024E+02 -0.22931459237E+01  0.47787268256E+02  0.19999987288E+02 0.  0.
        -12    1    1    2    0    0  0.41855197391E+02 -0.11247553024E+02  0.22931459237E+01  0.43400731744E+02  0.00000000000E+00 0.  1.
         11    1    3    3    0    0 -0.13678734238E+02  0.31578819399E+00  0.57128130574E+01  0.14827128037E+02  0.51100000000E-03 0. -1.
        -11    1    3    3    0    0 -0.39559030751E+01  0.89051447864E+00 -0.51953371254E+01  0.65904258803E+01  0.51100000000E-03 0.  1.
         12    1    3    3    0    0 -0.24220560078E+02  0.10041250352E+02 -0.28106218556E+01  0.26369714339E+02  0.00000000000E+00 0. -1.
</event>
<event>
 7    1  0.2834226E-010  0.4778728E+02  0.7816164E-02  0.1312668E+00
        -11   -1    0    0    0    0  0.00000000000E+00  0.00000000000E+00  0.45593999997E+02  0.45594000000E+02  0.51100000000E-03 0.  1.
         11   -1    0    0    0    0 -0.00000000000E+00 -0.00000000000E+00 -0.45593999997E+02  0.45594000000E+02  0.51100000000E-03 0. -1.
    9900012    2    1    2    0    0  0.25435355419E+02  0.30126099689E+02 -0.18140659199E+02  0.47787277611E+02  0.20000029939E+02 0.  0.
        -12    1    1    2    0    0 -0.25435355419E+02 -0.30126099689E+02  0.18140659199E+02  0.43400722389E+02  0.00000000000E+00 0.  1.
         11    1    3    3    0    0 -0.13851947191E+01 -0.95235773690E+00 -0.25494393113E+01  0.30537502734E+01  0.51100000000E-03 0. -1.
        -11    1    3    3    0    0  0.26551047937E+02  0.29948629748E+02 -0.16467197643E+02  0.43278714963E+02  0.51100000000E-03 0.  1.
        -12    1    3    3    0    0  0.26950220024E+00  0.11298276779E+01  0.87597775558E+00  0.14548123748E+01  0.00000000000E+00 0.  1.
</event>
<event>
 7    1  0.2834226E-010  0.4778727E+02  0.7816164E-02  0.1312668E+00
        -11   -1    0    0    0    0  0.00000000000E+00  0.00000000000E+00  0.45593999997E+02  0.45594000000E+02  0.51100000000E-03 0.  1.
         11   -1    0    0    0    0 -0.00000000000E+00 -0.00000000000E+00 -0.45593999997E+02  0.45594000000E+02  0.51100000000E-03 0. -1.
    9900012    2    1    2    0    0 -0.82033340242E+00  0.11046780094E+02 -0.41963305214E+02  0.47787270953E+02  0.19999999585E+02 0.  0.
        -12    1    1    2    0    0  0.82033340242E+00 -0.11046780094E+02  0.41963305214E+02  0.43400729047E+02  0.00000000000E+00 0.  1.
         11    1    3    3    0    0  0.35552273593E+01  0.80193334236E+01 -0.13241723231E+02  0.15883720739E+02  0.51100000000E-03 0. -1.
        -11    1    3    3    0    0 -0.44088791132E+01 -0.20932316794E+01 -0.25248977060E+02  0.25716350377E+02  0.51100000000E-03 0.  1.
        -12    1    3    3    0    0  0.33318351463E-01  0.51206783494E+01 -0.34726049231E+01  0.61871998369E+01  0.00000000000E+00 0.  1.
</event>
<event>
 7    1  0.2834226E-010  0.4778727E+02  0.7816164E-02  0.1312668E+00
        -11   -1    0    0    0    0  0.00000000000E+00  0.00000000000E+00  0.45593999997E+02  0.45594000000E+02  0.51100000000E-03 0.  1.
         11   -1    0    0    0    0 -0.00000000000E+00 -0.00000000000E+00 -0.45593999997E+02  0.45594000000E+02  0.51100000000E-03 0. -1.
    9900012    2    1    2    0    0 -0.33704989163E+02  0.92505307227E+01 -0.25729839050E+02  0.47787271542E+02  0.20000002269E+02 0.  0.
        -12    1    1    2    0    0  0.33704989163E+02 -0.92505307227E+01  0.25729839050E+02  0.43400728458E+02  0.00000000000E+00 0.  1.
         11    1    3    3    0    0 -0.22389454941E+02 -0.26060440214E+01 -0.10170805633E+02  0.24729020310E+02  0.51100000000E-03 0. -1.
        -11    1    3    3    0    0 -0.43030117533E+01  0.54100946108E+01 -0.95737031997E+01  0.11808506555E+02  0.51100000000E-03 0.  1.
         12    1    3    3    0    0 -0.70125224682E+01  0.64464801333E+01 -0.59853302179E+01  0.11249744677E+02  0.00000000000E+00 0. -1.
</event>
<event>
 7    1  0.2834226E-010  0.4778728E+02  0.7816164E-02  0.1312668E+00
        -11   -1    0    0    0    0  0.00000000000E+00  0.00000000000E+00  0.45593999997E+02  0.45594000000E+02  0.51100000000E-03 0. -1.
         11   -1    0    0    0    0 -0.00000000000E+00 -0.00000000000E+00 -0.45593999997E+02  0.45594000000E+02  0.51100000000E-03 0.  1.
    9900012    2    1    2    0    0  0.38572777489E+01 -0.38940538079E+02  0.18771740459E+02  0.47787281833E+02  0.20000049190E+02 0.  0.
        -12    1    1    2    0    0 -0.38572777489E+01  0.38940538079E+02 -0.18771740459E+02  0.43400718167E+02  0.00000000000E+00 0.  1.
         11    1    3    3    0    0 -0.40693300128E+01 -0.22018024179E+02  0.36446730196E+01  0.22685600657E+02  0.51100000000E-03 0.  1.
        -11    1    3    3    0    0  0.42236593577E+01 -0.15441849227E+02  0.12684132279E+02  0.20424916594E+02  0.51100000000E-03 0. -1.
         12    1    3    3    0    0  0.37029484039E+01 -0.14806646727E+01  0.24429351610E+01  0.46767645821E+01  0.00000000000E+00 0. -1.
</event>
<event>
 7    1  0.2834226E-010  0.4778727E+02  0.7816164E-02  0.1312668E+00
        -11   -1    0    0    0    0  0.00000000000E+00  0.00000000000E+00  0.45593999997E+02  0.45594000000E+02  0.51100000000E-03 0.  1.
         11   -1    0    0    0    0 -0.00000000000E+00 -0.00000000000E+00 -0.45593999997E+02  0.45594000000E+02  0.51100000000E-03 0. -1.
    9900012    2    1    2    0    0  0.39653258816E+02 -0.82497345824E+01 -0.15594377904E+02  0.47787266393E+02  0.19999978792E+02 0.  0.
        -12    1    1    2    0    0 -0.39653258816E+02  0.82497345824E+01  0.15594377904E+02  0.43400733607E+02  0.00000000000E+00 0.  1.
         11    1    3    3    0    0  0.16088064024E+02 -0.49523800334E+00 -0.63482133656E+01  0.17302337354E+02  0.51100000000E-03 0. -1.
        -11    1    3    3    0    0  0.14731421856E+02  0.19812416063E+01 -0.85413712027E+00  0.14888574770E+02  0.51100000000E-03 0.  1.
        -12    1    3    3    0    0  0.88337729366E+01 -0.97357381853E+01 -0.83920274177E+01  0.15596354269E+02  0.00000000000E+00 0.  1.
</event>
<event>
 7    1  0.2834226E-010  0.4778727E+02  0.7816164E-02  0.1312668E+00
        -11   -1    0    0    0    0  0.00000000000E+00  0.00000000000E+00  0.45593999997E+02  0.45594000000E+02  0.51100000000E-03 0.  1.
         11   -1    0    0    0    0 -0.00000000000E+00 -0.00000000000E+00 -0.45593999997E+02  0.45594000000E+02  0.51100000000E-03 0. -1.
    9900012    2    1    2    0    0 -0.23261922708E+02  0.68871006681E+01 -0.35987135745E+02  0.47787272554E+02  0.20000006884E+02 0.  0.
        -12    1    1    2    0    0  0.23261922708E+02 -0.68871006681E+01  0.35987135745E+02  0.43400727446E+02  0.00000000000E+00 0.  1.
         11    1    3    3    0    0 -0.10316885669E+02  0.92354194289E+01 -0.24684058531E+02  0.28302541366E+02  0.51100000000E-03 0. -1.
        -11    1    3    3    0    0 -0.56879719889E+01  0.33833675417E+01 -0.49680792470E+01  0.82753859689E+01  0.51100000000E-03 0.  1.
         12    1    3    3    0    0 -0.72570650504E+01 -0.57316863024E+01 -0.63349979663E+01  0.11209345219E+02  0.00000000000E+00 0. -1.
</event>
<event>
 7    1  0.2834226E-010  0.4778727E+02  0.7816164E-02  0.1312668E+00
        -11   -1    0    0    0    0  0.00000000000E+00  0.00000000000E+00  0.45593999997E+02  0.45594000000E+02  0.51100000000E-03 0.  1.
         11   -1    0    0    0    0 -0.00000000000E+00 -0.00000000000E+00 -0.45593999997E+02  0.45594000000E+02  0.51100000000E-03 0. -1.
    9900012    2    1    2    0    0  0.18233220338E+02 -0.37763473238E+02 -0.11184498475E+02  0.47787271423E+02  0.20000001726E+02 0.  0.
        -12    1    1    2    0    0 -0.18233220338E+02  0.37763473238E+02  0.11184498475E+02  0.43400728577E+02  0.00000000000E+00 0.  1.
         11    1    3    3    0    0  0.30269064790E+01 -0.24206685955E+02 -0.23276650905E+01  0.24505995854E+02  0.51100000000E-03 0. -1.
        -11    1    3    3    0    0  0.15474068372E+02 -0.11133002593E+02 -0.82297137096E+01  0.20763398727E+02  0.51100000000E-03 0.  1.
        -12    1    3    3    0    0 -0.26775451309E+00 -0.24237846906E+01 -0.62711967500E+00  0.25178768422E+01  0.00000000000E+00 0.  1.
</event>
<event>
 7    1  0.2834226E-010  0.4778727E+02  0.7816164E-02  0.1312668E+00
        -11   -1    0    0    0    0  0.00000000000E+00  0.00000000000E+00  0.45593999997E+02  0.45594000000E+02  0.51100000000E-03 0.  1.
         11   -1    0    0    0    0 -0.00000000000E+00 -0.00000000000E+00 -0.45593999997E+02  0.45594000000E+02  0.51100000000E-03 0. -1.
    9900012    2    1    2    0    0 -0.29526027193E+02  0.35227117222E+01 -0.31613722450E+02  0.47787271587E+02  0.20000002474E+02 0.  0.
        -12    1    1    2    0    0  0.29526027193E+02 -0.35227117222E+01  0.31613722450E+02  0.43400728413E+02  0.00000000000E+00 0.  1.
         11    1    3    3    0    0 -0.10935093954E+02 -0.19543668351E+01 -0.15038719026E+02  0.18696494316E+02  0.51100000000E-03 0. -1.
        -11    1    3    3    0    0 -0.35944115699E+00  0.46586147217E+01 -0.37417956281E+00  0.46874192982E+01  0.51100000000E-03 0.  1.
        -12    1    3    3    0    0 -0.18231492082E+02  0.81846383555E+00 -0.16200823861E+02  0.24403357973E+02  0.00000000000E+00 0.  1.
</event>
<event>
 7    1  0.2834226E-010  0.4778727E+02  0.7816164E-02  0.1312668E+00
        -11   -1    0    0    0    0  0.00000000000E+00  0.00000000000E+00  0.45593999997E+02  0.45594000000E+02  0.51100000000E-03 0.  1.
         11   -1    0    0    0    0 -0.00000000000E+00 -0.00000000000E+00 -0.45593999997E+02  0.45594000000E+02  0.51100000000E-03 0. -1.
    9900012    2    1    2    0    0 -0.21692914149E+02  0.18939966719E+02 -0.32470270188E+02  0.47787270632E+02  0.19999998119E+02 0.  0.
        -12    1    1    2    0    0  0.21692914149E+02 -0.18939966719E+02  0.32470270188E+02  0.43400729368E+02  0.00000000000E+00 0.  1.
         11    1    3    3    0    0 -0.25057531564E+02  0.16319573480E+02 -0.30913391509E+02  0.43009837729E+02  0.51100000000E-03 0. -1.
        -11    1    3    3    0    0  0.18758827447E+01  0.68641879987E+00 -0.26212954721E+00  0.20146510868E+01  0.51100000000E-03 0.  1.
         12    1    3    3    0    0  0.14887346697E+01  0.19339744396E+01 -0.12947491314E+01  0.27627818160E+01  0.00000000000E+00 0. -1.
</event>
<event>
 7    1  0.2834226E-010  0.4778730E+02  0.7816164E-02  0.1312668E+00
        -11   -1    0    0    0    0  0.00000000000E+00  0.00000000000E+00  0.45593999997E+02  0.45594000000E+02  0.51100000000E-03 0. -1.
         11   -1    0    0    0    0 -0.00000000000E+00 -0.00000000000E+00 -0.45593999997E+02  0.45594000000E+02  0.51100000000E-03 0.  1.
    9900012    2    1    2    0    0 -0.30774463233E+01 -0.41496143944E+02 -0.12337747804E+02  0.47787301170E+02  0.20000137353E+02 0.  0.
        -12    1    1    2    0    0  0.30774463233E+01  0.41496143944E+02  0.12337747804E+02  0.43400698830E+02  0.00000000000E+00 0.  1.
         11    1    3    3    0    0  0.23676528570E+01 -0.15596372458E+02  0.28435496344E+01  0.16029297822E+02  0.51100000000E-03 0. -1.
        -11    1    3    3    0    0  0.45429618986E+00 -0.16840928518E+02 -0.11235684973E+02  0.20250033962E+02  0.51100000000E-03 0.  1.
         12    1    3    3    0    0 -0.58993953701E+01 -0.90588429679E+01 -0.39456124656E+01  0.11507969386E+02  0.00000000000E+00 0. -1.
</event>
<event>
 7    1  0.2834226E-010  0.4778726E+02  0.7816164E-02  0.1312668E+00
        -11   -1    0    0    0    0  0.00000000000E+00  0.00000000000E+00  0.45593999997E+02  0.45594000000E+02  0.51100000000E-03 0.  1.
         11   -1    0    0    0    0 -0.00000000000E+00 -0.00000000000E+00 -0.45593999997E+02  0.45594000000E+02  0.51100000000E-03 0. -1.
    9900012    2    1    2    0    0 -0.21434362307E+02 -0.51845035335E+01 -0.37380656787E+02  0.47787257308E+02  0.19999937368E+02 0.  0.
        -12    1    1    2    0    0  0.21434362307E+02  0.51845035335E+01  0.37380656787E+02  0.43400742692E+02  0.00000000000E+00 0.  1.
         11    1    3    3    0    0 -0.19794856866E+02 -0.64341079039E+01 -0.30354817822E+02  0.36805557571E+02  0.51100000000E-03 0. -1.
        -11    1    3    3    0    0  0.13106602874E+01  0.31201432091E+01 -0.66585756429E+01  0.74692539044E+01  0.51100000000E-03 0.  1.
         12    1    3    3    0    0 -0.29501657285E+01 -0.18705388388E+01 -0.36726332218E+00  0.35124458317E+01  0.00000000000E+00 0. -1.
</event>
<event>
 7    1  0.2834226E-010  0.4778726E+02  0.7816164E-02  0.1312668E+00
        -11   -1    0    0    0    0  0.00000000000E+00  0.00000000000E+00  0.45593999997E+02  0.45594000000E+02  0.51100000000E-03 0. -1.
         11   -1    0    0    0    0 -0.00000000000E+00 -0.00000000000E+00 -0.45593999997E+02  0.45594000000E+02  0.51100000000E-03 0.  1.
    9900012    2    1    2    0    0 -0.42584231785E+02  0.57668830465E+00 -0.83591265495E+01  0.47787258499E+02  0.19999942801E+02 0.  0.
        -12    1    1    2    0    0  0.42584231785E+02 -0.57668830465E+00  0.83591265495E+01  0.43400741501E+02  0.00000000000E+00 0.  1.
         11    1    3    3    0    0 -0.30733823938E+02 -0.40451693838E+01 -0.10450999939E+02  0.32713219487E+02  0.51100000000E-03 0. -1.
        -11    1    3    3    0    0 -0.51566172609E+01  0.57049438921E+01 -0.74004799597E+00  0.77255910897E+01  0.51100000000E-03 0.  1.
         12    1    3    3    0    0 -0.66937905865E+01 -0.10830862037E+01  0.28319213856E+01  0.73484479229E+01  0.00000000000E+00 0. -1.
</event>
<event>
 7    1  0.2834226E-010  0.4778727E+02  0.7816164E-02  0.1312668E+00
        -11   -1    0    0    0    0  0.00000000000E+00  0.00000000000E+00  0.45593999997E+02  0.45594000000E+02  0.51100000000E-03 0.  1.
         11   -1    0    0    0    0 -0.00000000000E+00 -0.00000000000E+00 -0.45593999997E+02  0.45594000000E+02  0.51100000000E-03 0. -1.
    9900012    2    1    2    0    0  0.10567133865E+02 -0.31270501948E+02 -0.28180045837E+02  0.47787267361E+02  0.19999983205E+02 0.  0.
        -12    1    1    2    0    0 -0.10567133865E+02  0.31270501948E+02  0.28180045837E+02  0.43400732639E+02  0.00000000000E+00 0.  1.
         11    1    3    3    0    0  0.38741948283E+01 -0.28819737433E+01 -0.28873168718E+00  0.48372021327E+01  0.51100000000E-03 0. -1.
        -11    1    3    3    0    0 -0.11617338040E+01 -0.17421974683E+02 -0.22362356504E+02  0.28371637526E+02  0.51100000000E-03 0.  1.
        -12    1    3    3    0    0  0.78546728412E+01 -0.10966553522E+02 -0.55289576464E+01  0.14578427702E+02  0.00000000000E+00 0.  1.
</event>
<event>
 7    1  0.2834226E-010  0.4778727E+02  0.7816164E-02  0.1312668E+00
        -11   -1    0    0    0    0  0.00000000000E+00  0.00000000000E+00  0.45593999997E+02  0.45594000000E+02  0.51100000000E-03 0.  1.
         11   -1    0    0    0    0 -0.00000000000E+00 -0.00000000000E+00 -0.45593999997E+02  0.45594000000E+02  0.51100000000E-03 0. -1.
    9900012    2    1    2    0    0 -0.42518310200E+02 -0.18042040097E-01 -0.87072443365E+01  0.47787272682E+02  0.20000007466E+02 0.  0.
        -12    1    1    2    0    0  0.42518310200E+02  0.18042040097E-01  0.87072443365E+01  0.43400727318E+02  0.00000000000E+00 0.  1.
         11    1    3    3    0    0 -0.72658736518E+01  0.53772713119E+01 -0.35413617054E+01  0.97082032156E+01  0.51100000000E-03 0. -1.
        -11    1    3    3    0    0 -0.18227220663E+02 -0.70301614935E+01  0.17843682723E+01  0.19617306494E+02  0.51100000000E-03 0.  1.
        -12    1    3    3    0    0 -0.17025215886E+02  0.16348481414E+01 -0.69502509035E+01  0.18461762972E+02  0.00000000000E+00 0.  1.
</event>
<event>
 7    1  0.2834226E-010  0.4778727E+02  0.7816164E-02  0.1312668E+00
        -11   -1    0    0    0    0  0.00000000000E+00  0.00000000000E+00  0.45593999997E+02  0.45594000000E+02  0.51100000000E-03 0.  1.
         11   -1    0    0    0    0 -0.00000000000E+00 -0.00000000000E+00 -0.45593999997E+02  0.45594000000E+02  0.51100000000E-03 0. -1.
    9900012    2    1    2    0    0 -0.34138047971E+02 -0.58157974282E+01 -0.26160922028E+02  0.47787266592E+02  0.19999979701E+02 0.  0.
        -12    1    1    2    0    0  0.34138047971E+02  0.58157974282E+01  0.26160922028E+02  0.43400733408E+02  0.00000000000E+00 0.  1.
         11    1    3    3    0    0 -0.30273467377E+02 -0.54619670702E+01 -0.19287404313E+02  0.36308674951E+02  0.51100000000E-03 0. -1.
        -11    1    3    3    0    0 -0.28800794251E+00  0.14718989809E+01 -0.72888487047E+01  0.74415556765E+01  0.51100000000E-03 0.  1.
        -12    1    3    3    0    0 -0.35765726518E+01 -0.18257293389E+01  0.41533098994E+00  0.40370359651E+01  0.00000000000E+00 0.  1.
</event>
<event>
 7    1  0.2834226E-010  0.4778727E+02  0.7816164E-02  0.1312668E+00
        -11   -1    0    0    0    0  0.00000000000E+00  0.00000000000E+00  0.45593999997E+02  0.45594000000E+02  0.51100000000E-03 0.  1.
         11   -1    0    0    0    0 -0.00000000000E+00 -0.00000000000E+00 -0.45593999997E+02  0.45594000000E+02  0.51100000000E-03 0. -1.
    9900012    2    1    2    0    0 -0.18238684903E+02  0.17397838718E+02 -0.35331134905E+02  0.47787268293E+02  0.19999987453E+02 0.  0.
        -12    1    1    2    0    0  0.18238684903E+02 -0.17397838718E+02  0.35331134905E+02  0.43400731707E+02  0.00000000000E+00 0.  1.
         11    1    3    3    0    0 -0.34678643106E+01  0.17150285242E+00 -0.21184633700E+01  0.40673558261E+01  0.51100000000E-03 0. -1.
        -11    1    3    3    0    0 -0.18273335620E+02  0.13391844419E+02 -0.23120819041E+02  0.32370180182E+02  0.51100000000E-03 0.  1.
        -12    1    3    3    0    0  0.35025150272E+01  0.38344914467E+01 -0.10091852493E+02  0.11349732284E+02  0.00000000000E+00 0.  1.
</event>
<event>
 7    1  0.2834226E-010  0.4778727E+02  0.7816164E-02  0.1312668E+00
        -11   -1    0    0    0    0  0.00000000000E+00  0.00000000000E+00  0.45593999997E+02  0.45594000000E+02  0.51100000000E-03 0. -1.
         11   -1    0    0    0    0 -0.00000000000E+00 -0.00000000000E+00 -0.45593999997E+02  0.45594000000E+02  0.51100000000E-03 0.  1.
    9900012    2    1    2    0    0  0.23614575309E+02 -0.21012563434E+00  0.36413337274E+02  0.47787269001E+02  0.19999990683E+02 0.  0.
        -12    1    1    2    0    0 -0.23614575309E+02  0.21012563434E+00 -0.36413337274E+02  0.43400730999E+02  0.00000000000E+00 0.  1.
         11    1    3    3    0    0  0.23344357660E+02  0.27952246595E+01  0.25973599707E+02  0.35034271755E+02  0.51100000000E-03 0. -1.
        -11    1    3    3    0    0 -0.10948082187E+01 -0.28835684858E+01  0.10417031777E+01  0.32555672347E+01  0.51100000000E-03 0.  1.
         12    1    3    3    0    0  0.13650258686E+01 -0.12178180809E+00  0.93980343895E+01  0.94974300112E+01  0.00000000000E+00 0. -1.
</event>
<event>
 7    1  0.2834226E-010  0.4778727E+02  0.7816164E-02  0.1312668E+00
        -11   -1    0    0    0    0  0.00000000000E+00  0.00000000000E+00  0.45593999997E+02  0.45594000000E+02  0.51100000000E-03 0.  1.
         11   -1    0    0    0    0 -0.00000000000E+00 -0.00000000000E+00 -0.45593999997E+02  0.45594000000E+02  0.51100000000E-03 0. -1.
    9900012    2    1    2    0    0 -0.36591299174E+02  0.15777763405E+02 -0.17197750861E+02  0.47787266965E+02  0.19999981400E+02 0.  0.
        -12    1    1    2    0    0  0.36591299174E+02 -0.15777763405E+02  0.17197750861E+02  0.43400733035E+02  0.00000000000E+00 0.  1.
         11    1    3    3    0    0 -0.66098252535E+01  0.29957219517E+01 -0.12167647810E+02  0.14167420139E+02  0.51100000000E-03 0. -1.
        -11    1    3    3    0    0 -0.26584667638E+02  0.90642288713E+01 -0.32330854690E+01  0.28272913546E+02  0.51100000000E-03 0.  1.
         12    1    3    3    0    0 -0.33968062824E+01  0.37178125819E+01 -0.17970175815E+01  0.53469332801E+01  0.00000000000E+00 0. -1.
</event>
<event>
 7    1  0.2834226E-010  0.4778727E+02  0.7816164E-02  0.1312668E+00
        -11   -1    0    0    0    0  0.00000000000E+00  0.00000000000E+00  0.45593999997E+02  0.45594000000E+02  0.51100000000E-03 0.  1.
         11   -1    0    0    0    0 -0.00000000000E+00 -0.00000000000E+00 -0.45593999997E+02  0.45594000000E+02  0.51100000000E-03 0. -1.
    9900012    2    1    2    0    0 -0.41548639213E+02  0.10072376577E+02  0.74753677711E+01  0.47787270586E+02  0.19999997910E+02 0.  0.
        -12    1    1    2    0    0  0.41548639213E+02 -0.10072376577E+02 -0.74753677711E+01  0.43400729414E+02  0.00000000000E+00 0.  1.
         11    1    3    3    0    0 -0.21387319414E+02  0.45630727457E+00 -0.15324088891E+01  0.21447002712E+02  0.51100000000E-03 0. -1.
        -11    1    3    3    0    0 -0.18807270639E+02  0.55589014592E+01  0.99035401286E+01  0.21970319107E+02  0.51100000000E-03 0.  1.
        -12    1    3    3    0    0 -0.13540491597E+01  0.40571678437E+01 -0.89576346844E+00  0.43699487675E+01  0.00000000000E+00 0.  1.
</event>
<event>
 7    1  0.2834226E-010  0.4778728E+02  0.7816164E-02  0.1312668E+00
        -11   -1    0    0    0    0  0.00000000000E+00  0.00000000000E+00  0.45593999997E+02  0.45594000000E+02  0.51100000000E-03 0.  1.
         11   -1    0    0    0    0 -0.00000000000E+00 -0.00000000000E+00 -0.45593999997E+02  0.45594000000E+02  0.51100000000E-03 0. -1.
    9900012    2    1    2    0    0  0.20182248389E+02  0.75558869248E+01 -0.37672378443E+02  0.47787277946E+02  0.20000031467E+02 0.  0.
        -12    1    1    2    0    0 -0.20182248389E+02 -0.75558869248E+01  0.37672378443E+02  0.43400722054E+02  0.00000000000E+00 0.  1.
         11    1    3    3    0    0  0.13761340131E+02  0.96981693961E-01 -0.20603885464E+02  0.24777085868E+02  0.51100000000E-03 0. -1.
        -11    1    3    3    0    0 -0.29078325684E+00  0.84104720065E+01 -0.11424151795E+02  0.14189145103E+02  0.51100000000E-03 0.  1.
         12    1    3    3    0    0  0.67116915149E+01 -0.95156677569E+00 -0.56443411847E+01  0.88210469747E+01  0.00000000000E+00 0. -1.
</event>
<event>
 7    1  0.2834226E-010  0.4778727E+02  0.7816164E-02  0.1312668E+00
        -11   -1    0    0    0    0  0.00000000000E+00  0.00000000000E+00  0.45593999997E+02  0.45594000000E+02  0.51100000000E-03 0. -1.
         11   -1    0    0    0    0 -0.00000000000E+00 -0.00000000000E+00 -0.45593999997E+02  0.45594000000E+02  0.51100000000E-03 0.  1.
    9900012    2    1    2    0    0 -0.43090880755E+02 -0.55107447001E+00  0.51474090525E+01  0.47787268355E+02  0.19999987739E+02 0.  0.
        -12    1    1    2    0    0  0.43090880755E+02  0.55107447001E+00 -0.51474090525E+01  0.43400731645E+02  0.00000000000E+00 0.  1.
         11    1    3    3    0    0 -0.24792716270E+02 -0.12523835693E+01  0.38153822559E+01  0.25115819450E+02  0.51100000000E-03 0. -1.
        -11    1    3    3    0    0 -0.60375509709E+01  0.65538270339E+01  0.17412576662E+01  0.90794630368E+01  0.51100000000E-03 0.  1.
        -12    1    3    3    0    0 -0.12260613515E+02 -0.58525179346E+01 -0.40923086961E+00  0.13591985868E+02  0.00000000000E+00 0.  1.
</event>
<event>
 7    1  0.2834226E-010  0.4778727E+02  0.7816164E-02  0.1312668E+00
        -11   -1    0    0    0    0  0.00000000000E+00  0.00000000000E+00  0.45593999997E+02  0.45594000000E+02  0.51100000000E-03 0.  1.
         11   -1    0    0    0    0 -0.00000000000E+00 -0.00000000000E+00 -0.45593999997E+02  0.45594000000E+02  0.51100000000E-03 0. -1.
    9900012    2    1    2    0    0 -0.31212231307E+02 -0.24652212572E+02  0.17369184610E+02  0.47787267958E+02  0.19999985926E+02 0.  0.
        -12    1    1    2    0    0  0.31212231307E+02  0.24652212572E+02 -0.17369184610E+02  0.43400732042E+02  0.00000000000E+00 0.  1.
         11    1    3    3    0    0 -0.17752693120E+02 -0.20164649747E+02  0.12099793646E+02  0.29464830204E+02  0.51100000000E-03 0. -1.
        -11    1    3    3    0    0 -0.13346751202E+02 -0.35731529124E+01  0.88806071831E+00  0.13845282282E+02  0.51100000000E-03 0.  1.
        -12    1    3    3    0    0 -0.11278698483E+00 -0.91440991231E+00  0.43813302454E+01  0.44771554710E+01  0.00000000000E+00 0.  1.
</event>
<event>
 7    1  0.2834226E-010  0.4778727E+02  0.7816164E-02  0.1312668E+00
        -11   -1    0    0    0    0  0.00000000000E+00  0.00000000000E+00  0.45593999997E+02  0.45594000000E+02  0.51100000000E-03 0.  1.
         11   -1    0    0    0    0 -0.00000000000E+00 -0.00000000000E+00 -0.45593999997E+02  0.45594000000E+02  0.51100000000E-03 0. -1.
    9900012    2    1    2    0    0  0.16559006858E+02  0.17761322650E+02 -0.35971626628E+02  0.47787271749E+02  0.20000003215E+02 0.  0.
        -12    1    1    2    0    0 -0.16559006858E+02 -0.17761322650E+02  0.35971626628E+02  0.43400728251E+02  0.00000000000E+00 0.  1.
         11    1    3    3    0    0  0.57465204266E+01  0.95400549515E+01 -0.25559478737E+02  0.27880496751E+02  0.51100000000E-03 0. -1.
        -11    1    3    3    0    0  0.83104635195E+01  0.97172011199E+01 -0.49414594592E+01  0.13707874502E+02  0.51100000000E-03 0.  1.
        -12    1    3    3    0    0  0.25020229117E+01 -0.14959334213E+01 -0.54706884316E+01  0.61989004966E+01  0.00000000000E+00 0.  1.
</event>
<event>
 7    1  0.2834226E-010  0.4778727E+02  0.7816164E-02  0.1312668E+00
        -11   -1    0    0    0    0  0.00000000000E+00  0.00000000000E+00  0.45593999997E+02  0.45594000000E+02  0.51100000000E-03 0.  1.
         11   -1    0    0    0    0 -0.00000000000E+00 -0.00000000000E+00 -0.45593999997E+02  0.45594000000E+02  0.51100000000E-03 0. -1.
    9900012    2    1    2    0    0 -0.36664334531E+01  0.29663044866E+02 -0.31468785651E+02  0.47787269184E+02  0.19999991519E+02 0.  0.
        -12    1    1    2    0    0  0.36664334531E+01 -0.29663044866E+02  0.31468785651E+02  0.43400730816E+02  0.00000000000E+00 0.  1.
         11    1    3    3    0    0 -0.56605191303E+01  0.13693621769E+02 -0.20609030408E+02  0.25382846345E+02  0.51100000000E-03 0. -1.
        -11    1    3    3    0    0  0.25018255289E+01  0.12679613722E+01  0.15092575403E+01  0.31850770167E+01  0.51100000000E-03 0.  1.
         12    1    3    3    0    0 -0.50773985173E+00  0.14701461725E+02 -0.12369012783E+02  0.19219345822E+02  0.00000000000E+00 0. -1.
</event>
<event>
 7    1  0.2834226E-010  0.4778727E+02  0.7816164E-02  0.1312668E+00
        -11   -1    0    0    0    0  0.00000000000E+00  0.00000000000E+00  0.45593999997E+02  0.45594000000E+02  0.51100000000E-03 0. -1.
         11   -1    0    0    0    0 -0.00000000000E+00 -0.00000000000E+00 -0.45593999997E+02  0.45594000000E+02  0.51100000000E-03 0.  1.
    9900012    2    1    2    0    0  0.49849151505E+01  0.20926285950E+02  0.37694354765E+02  0.47787271851E+02  0.20000003679E+02 0.  0.
        -12    1    1    2    0    0 -0.49849151505E+01 -0.20926285950E+02 -0.37694354765E+02  0.43400728149E+02  0.00000000000E+00 0.  1.
         11    1    3    3    0    0 -0.23826804205E+01 -0.53903325505E+00 -0.25318186467E+00  0.24559772299E+01  0.51100000000E-03 0.  1.
        -11    1    3    3    0    0  0.17733302368E+01  0.18051990349E+02  0.29644332454E+02  0.34753496264E+02  0.51100000000E-03 0. -1.
         12    1    3    3    0    0  0.55942653342E+01  0.34133288566E+01  0.83032041748E+01  0.10577798357E+02  0.00000000000E+00 0. -1.
</event>
<event>
 7    1  0.2834226E-010  0.4778727E+02  0.7816164E-02  0.1312668E+00
        -11   -1    0    0    0    0  0.00000000000E+00  0.00000000000E+00  0.45593999997E+02  0.45594000000E+02  0.51100000000E-03 0. -1.
         11   -1    0    0    0    0 -0.00000000000E+00 -0.00000000000E+00 -0.45593999997E+02  0.45594000000E+02  0.51100000000E-03 0.  1.
    9900012    2    1    2    0    0  0.52343642454E+00 -0.42626559360E+02  0.81440540916E+01  0.47787272292E+02  0.20000005687E+02 0.  0.
        -12    1    1    2    0    0 -0.52343642454E+00  0.42626559360E+02 -0.81440540916E+01  0.43400727708E+02  0.00000000000E+00 0.  1.
         11    1    3    3    0    0 -0.12709859505E+01 -0.11928131854E+02  0.33600316921E+01  0.12457349158E+02  0.51100000000E-03 0. -1.
        -11    1    3    3    0    0  0.33029357265E+01 -0.16796730114E+02  0.10655642417E+02  0.20163884608E+02  0.51100000000E-03 0.  1.
        -12    1    3    3    0    0 -0.15085133515E+01 -0.13901697392E+02 -0.58716200173E+01  0.15166038525E+02  0.00000000000E+00 0.  1.
</event>
<event>
 7    1  0.2834226E-010  0.4778727E+02  0.7816164E-02  0.1312668E+00
        -11   -1    0    0    0    0  0.00000000000E+00  0.00000000000E+00  0.45593999997E+02  0.45594000000E+02  0.51100000000E-03 0. -1.
         11   -1    0    0    0    0 -0.00000000000E+00 -0.00000000000E+00 -0.45593999997E+02  0.45594000000E+02  0.51100000000E-03 0.  1.
    9900012    2    1    2    0    0 -0.30624578957E+02 -0.28482802686E+02  0.11596901701E+02  0.47787274036E+02  0.20000013638E+02 0.  0.
        -12    1    1    2    0    0  0.30624578957E+02  0.28482802686E+02 -0.11596901701E+02  0.43400725964E+02  0.00000000000E+00 0.  1.
         11    1    3    3    0    0 -0.20021920786E+02 -0.26629961706E+02  0.88316455149E+01  0.34467813031E+02  0.51100000000E-03 0. -1.
        -11    1    3    3    0    0 -0.58760728465E+01 -0.47313460294E+00  0.51688986808E+01  0.78402552435E+01  0.51100000000E-03 0.  1.
        -12    1    3    3    0    0 -0.47265853251E+01 -0.13797063778E+01 -0.24036424951E+01  0.54792057607E+01  0.00000000000E+00 0.  1.
</event>
<event>
 7    1  0.2834226E-010  0.4778727E+02  0.7816164E-02  0.1312668E+00
        -11   -1    0    0    0    0  0.00000000000E+00  0.00000000000E+00  0.45593999997E+02  0.45594000000E+02  0.51100000000E-03 0. -1.
         11   -1    0    0    0    0 -0.00000000000E+00 -0.00000000000E+00 -0.45593999997E+02  0.45594000000E+02  0.51100000000E-03 0.  1.
    9900012    2    1    2    0    0  0.42670231533E+02  0.27545070957E+01  0.74355565129E+01  0.47787268796E+02  0.19999989748E+02 0.  0.
        -12    1    1    2    0    0 -0.42670231533E+02 -0.27545070957E+01 -0.74355565129E+01  0.43400731204E+02  0.00000000000E+00 0.  1.
         11    1    3    3    0    0  0.16418839423E+02 -0.64105070920E+01  0.36949397329E+01  0.18009038538E+02  0.51100000000E-03 0. -1.
        -11    1    3    3    0    0  0.96625781796E+01  0.83829902338E+01  0.17932482716E+00  0.12793439725E+02  0.51100000000E-03 0.  1.
         12    1    3    3    0    0  0.16588813930E+02  0.78202395394E+00  0.35612919528E+01  0.16984790533E+02  0.00000000000E+00 0. -1.
</event>
<event>
 7    1  0.2834226E-010  0.4778727E+02  0.7816164E-02  0.1312668E+00
        -11   -1    0    0    0    0  0.00000000000E+00  0.00000000000E+00  0.45593999997E+02  0.45594000000E+02  0.51100000000E-03 0.  1.
         11   -1    0    0    0    0 -0.00000000000E+00 -0.00000000000E+00 -0.45593999997E+02  0.45594000000E+02  0.51100000000E-03 0. -1.
    9900012    2    1    2    0    0 -0.32785999904E+02 -0.23371137138E+02 -0.16201578688E+02  0.47787274283E+02  0.20000014765E+02 0.  0.
        -12    1    1    2    0    0  0.32785999904E+02  0.23371137138E+02  0.16201578688E+02  0.43400725717E+02  0.00000000000E+00 0.  1.
         11    1    3    3    0    0 -0.55486200402E+01 -0.62682869713E+01 -0.74800585770E+01  0.11226303153E+02  0.51100000000E-03 0. -1.
        -11    1    3    3    0    0 -0.26754110065E+02 -0.13940005390E+02 -0.11537295184E+02  0.32298844191E+02  0.51100000000E-03 0.  1.
        -12    1    3    3    0    0 -0.48326979876E+00 -0.31628447767E+01  0.28157750737E+01  0.42621269391E+01  0.00000000000E+00 0.  1.
</event>
<event>
 7    1  0.2834226E-010  0.4778727E+02  0.7816164E-02  0.1312668E+00
        -11   -1    0    0    0    0  0.00000000000E+00  0.00000000000E+00  0.45593999997E+02  0.45594000000E+02  0.51100000000E-03 0.  1.
         11   -1    0    0    0    0 -0.00000000000E+00 -0.00000000000E+00 -0.45593999997E+02  0.45594000000E+02  0.51100000000E-03 0. -1.
    9900012    2    1    2    0    0  0.33380522587E+02 -0.43572964643E+01 -0.27393027868E+02  0.47787270784E+02  0.19999998815E+02 0.  0.
        -12    1    1    2    0    0 -0.33380522587E+02  0.43572964643E+01  0.27393027868E+02  0.43400729216E+02  0.00000000000E+00 0.  1.
         11    1    3    3    0    0  0.95530098013E+01  0.70941360133E+01 -0.44279203863E+01  0.12696190029E+02  0.51100000000E-03 0. -1.
        -11    1    3    3    0    0  0.85683735557E+01 -0.42462902092E+01 -0.69019010212E+01  0.11793398318E+02  0.51100000000E-03 0.  1.
         12    1    3    3    0    0  0.15259139230E+02 -0.72051422683E+01 -0.16063206461E+02  0.23297682437E+02  0.00000000000E+00 0. -1.
</event>
<event>
 7    1  0.2834226E-010  0.4778727E+02  0.7816164E-02  0.1312668E+00
        -11   -1    0    0    0    0  0.00000000000E+00  0.00000000000E+00  0.45593999997E+02  0.45594000000E+02  0.51100000000E-03 0.  1.
         11   -1    0    0    0    0 -0.00000000000E+00 -0.00000000000E+00 -0.45593999997E+02  0.45594000000E+02  0.51100000000E-03 0. -1.
    9900012    2    1    2    0    0 -0.16500330496E+02  0.20026218477E+02 -0.34789550515E+02  0.47787272380E+02  0.20000006088E+02 0.  0.
        -12    1    1    2    0    0  0.16500330496E+02 -0.20026218477E+02  0.34789550515E+02  0.43400727620E+02  0.00000000000E+00 0.  1.
         11    1    3    3    0    0 -0.15476703355E+02  0.16754119081E+02 -0.19208097321E+02  0.29819118966E+02  0.51100000000E-03 0. -1.
        -11    1    3    3    0    0  0.17919860065E+01  0.47897360726E+01 -0.12588735648E+02  0.13587827309E+02  0.51100000000E-03 0.  1.
         12    1    3    3    0    0 -0.28156131473E+01 -0.15176366773E+01 -0.29927175454E+01  0.43803261050E+01  0.00000000000E+00 0. -1.
</event>
<event>
 7    1  0.2834226E-010  0.4778723E+02  0.7816164E-02  0.1312668E+00
        -11   -1    0    0    0    0  0.00000000000E+00  0.00000000000E+00  0.45593999997E+02  0.45594000000E+02  0.51100000000E-03 0.  1.
         11   -1    0    0    0    0 -0.00000000000E+00 -0.00000000000E+00 -0.45593999997E+02  0.45594000000E+02  0.51100000000E-03 0. -1.
    9900012    2    1    2    0    0  0.18250346901E+02  0.16446485086E+02 -0.35777990846E+02  0.47787232004E+02  0.19999821997E+02 0.  0.
        -12    1    1    2    0    0 -0.18250346901E+02 -0.16446485086E+02  0.35777990846E+02  0.43400767996E+02  0.00000000000E+00 0.  1.
         11    1    3    3    0    0  0.18683575403E+02  0.17982145609E+02 -0.35048884260E+02  0.43598828410E+02  0.51100000000E-03 0. -1.
        -11    1    3    3    0    0  0.69298727121E+00  0.83490416893E+00 -0.10914591725E+01  0.15390190758E+01  0.51100000000E-03 0.  1.
         12    1    3    3    0    0 -0.11262157736E+01 -0.23705646924E+01  0.36235258635E+00  0.26493845184E+01  0.00000000000E+00 0. -1.
</event>
<event>
 7    1  0.2834226E-010  0.4778728E+02  0.7816164E-02  0.1312668E+00
        -11   -1    0    0    0    0  0.00000000000E+00  0.00000000000E+00  0.45593999997E+02  0.45594000000E+02  0.51100000000E-03 0. -1.
         11   -1    0    0    0    0 -0.00000000000E+00 -0.00000000000E+00 -0.45593999997E+02  0.45594000000E+02  0.51100000000E-03 0.  1.
    9900012    2    1    2    0    0  0.40353425037E+02  0.16504368839E+01  0.15890230632E+02  0.47787282453E+02  0.20000052015E+02 0.  0.
        -12    1    1    2    0    0 -0.40353425037E+02 -0.16504368839E+01 -0.15890230632E+02  0.43400717547E+02  0.00000000000E+00 0.  1.
         11    1    3    3    0    0  0.29141618564E+02  0.82589638451E+01  0.15965838422E+02  0.34239632199E+02  0.51100000000E-03 0. -1.
        -11    1    3    3    0    0  0.10662798667E+02 -0.48678794340E+01 -0.11727535902E+00  0.11721999802E+02  0.51100000000E-03 0.  1.
         12    1    3    3    0    0  0.54900780562E+00 -0.17406475273E+01  0.41667568314E-01  0.18256504515E+01  0.00000000000E+00 0. -1.
</event>
<event>
 7    1  0.2834226E-010  0.4778727E+02  0.7816164E-02  0.1312668E+00
        -11   -1    0    0    0    0  0.00000000000E+00  0.00000000000E+00  0.45593999997E+02  0.45594000000E+02  0.51100000000E-03 0.  1.
         11   -1    0    0    0    0 -0.00000000000E+00 -0.00000000000E+00 -0.45593999997E+02  0.45594000000E+02  0.51100000000E-03 0. -1.
    9900012    2    1    2    0    0 -0.95520867238E+01  0.22997242271E+01 -0.42274011662E+02  0.47787272422E+02  0.20000006282E+02 0.  0.
        -12    1    1    2    0    0  0.95520867238E+01 -0.22997242271E+01  0.42274011662E+02  0.43400727578E+02  0.00000000000E+00 0.  1.
         11    1    3    3    0    0  0.78076078285E+00 -0.34117041923E+01 -0.25815116034E+02  0.26051286514E+02  0.51100000000E-03 0. -1.
        -11    1    3    3    0    0 -0.41293183761E+01  0.67313405203E+01 -0.86942756243E+01  0.11745324361E+02  0.51100000000E-03 0.  1.
         12    1    3    3    0    0 -0.62035291305E+01 -0.10199121009E+01 -0.77646200032E+01  0.99906615477E+01  0.00000000000E+00 0. -1.
</event>
<event>
 7    1  0.2834226E-010  0.4778724E+02  0.7816164E-02  0.1312668E+00
        -11   -1    0    0    0    0  0.00000000000E+00  0.00000000000E+00  0.45593999997E+02  0.45594000000E+02  0.51100000000E-03 0. -1.
         11   -1    0    0    0    0 -0.00000000000E+00 -0.00000000000E+00 -0.45593999997E+02  0.45594000000E+02  0.51100000000E-03 0.  1.
    9900012    2    1    2    0    0 -0.41368014737E+02  0.54005228135E+01  0.11964419959E+02  0.47787243844E+02  0.19999875983E+02 0.  0.
        -12    1    1    2    0    0  0.41368014737E+02 -0.54005228135E+01 -0.11964419959E+02  0.43400756156E+02  0.00000000000E+00 0.  1.
         11    1    3    3    0    0 -0.41728097507E+01 -0.51107040339E+01  0.20249480158E+01  0.69015977618E+01  0.51100000000E-03 0.  1.
        -11    1    3    3    0    0 -0.31362590398E+02  0.54847857971E+01  0.67200477835E+01  0.32540036788E+02  0.51100000000E-03 0. -1.
        -12    1    3    3    0    0 -0.58326145882E+01  0.50264410503E+01  0.32194241600E+01  0.83456092940E+01  0.00000000000E+00 0.  1.
</event>
<event>
 7    1  0.2834226E-010  0.4778727E+02  0.7816164E-02  0.1312668E+00
        -11   -1    0    0    0    0  0.00000000000E+00  0.00000000000E+00  0.45593999997E+02  0.45594000000E+02  0.51100000000E-03 0.  1.
         11   -1    0    0    0    0 -0.00000000000E+00 -0.00000000000E+00 -0.45593999997E+02  0.45594000000E+02  0.51100000000E-03 0. -1.
    9900012    2    1    2    0    0 -0.59880751861E+01 -0.38928966853E+01 -0.42809011524E+02  0.47787272395E+02  0.20000006156E+02 0.  0.
        -12    1    1    2    0    0  0.59880751861E+01  0.38928966853E+01  0.42809011524E+02  0.43400727605E+02  0.00000000000E+00 0.  1.
         11    1    3    3    0    0 -0.41503997056E+00  0.37390262545E+01 -0.19699722824E+02  0.20055713777E+02  0.51100000000E-03 0. -1.
        -11    1    3    3    0    0  0.74571042270E+00 -0.50463768691E+01 -0.18884525587E+01  0.54395088811E+01  0.51100000000E-03 0.  1.
        -12    1    3    3    0    0 -0.63187456382E+01 -0.25855460707E+01 -0.21220836141E+02  0.22292049736E+02  0.00000000000E+00 0.  1.
</event>
<event>
 7    1  0.2834226E-010  0.4778727E+02  0.7816164E-02  0.1312668E+00
        -11   -1    0    0    0    0  0.00000000000E+00  0.00000000000E+00  0.45593999997E+02  0.45594000000E+02  0.51100000000E-03 0. -1.
         11   -1    0    0    0    0 -0.00000000000E+00 -0.00000000000E+00 -0.45593999997E+02  0.45594000000E+02  0.51100000000E-03 0.  1.
    9900012    2    1    2    0    0 -0.19684541505E+00  0.23141368493E+01  0.43338540343E+02  0.47787273548E+02  0.20000011415E+02 0.  0.
        -12    1    1    2    0    0  0.19684541505E+00 -0.23141368493E+01 -0.43338540343E+02  0.43400726452E+02  0.00000000000E+00 0.  1.
         11    1    3    3    0    0  0.37590426762E+01 -0.18345261493E+01  0.29674433399E+01  0.51285093615E+01  0.51100000000E-03 0. -1.
        -11    1    3    3    0    0 -0.74018164142E+01  0.15979756923E+01  0.13773142480E+02  0.15717501919E+02  0.51100000000E-03 0.  1.
         12    1    3    3    0    0  0.34459283230E+01  0.25506873064E+01  0.26597954523E+02  0.26941262268E+02  0.00000000000E+00 0. -1.
</event>
<event>
 7    1  0.2834226E-010  0.4778727E+02  0.7816164E-02  0.1312668E+00
        -11   -1    0    0    0    0  0.00000000000E+00  0.00000000000E+00  0.45593999997E+02  0.45594000000E+02  0.51100000000E-03 0. -1.
         11   -1    0    0    0    0 -0.00000000000E+00 -0.00000000000E+00 -0.45593999997E+02  0.45594000000E+02  0.51100000000E-03 0.  1.
    9900012    2    1    2    0    0  0.12046748348E+02  0.48048248122E+01  0.41417541695E+02  0.47787271350E+02  0.20000001395E+02 0.  0.
        -12    1    1    2    0    0 -0.12046748348E+02 -0.48048248122E+01 -0.41417541695E+02  0.43400728650E+02  0.00000000000E+00 0.  1.
         11    1    3    3    0    0  0.13370034323E+02  0.74695165733E+01  0.22894303746E+02  0.27544521051E+02  0.51100000000E-03 0. -1.
        -11    1    3    3    0    0 -0.25975461318E+01  0.16648915904E+01  0.11399792652E+02  0.11809927293E+02  0.51100000000E-03 0.  1.
         12    1    3    3    0    0  0.12742601572E+01 -0.43295833515E+01  0.71234452973E+01  0.84328230059E+01  0.00000000000E+00 0. -1.
</event>
<event>
 7    1  0.2834226E-010  0.4778727E+02  0.7816164E-02  0.1312668E+00
        -11   -1    0    0    0    0  0.00000000000E+00  0.00000000000E+00  0.45593999997E+02  0.45594000000E+02  0.51100000000E-03 0.  1.
         11   -1    0    0    0    0 -0.00000000000E+00 -0.00000000000E+00 -0.45593999997E+02  0.45594000000E+02  0.51100000000E-03 0. -1.
    9900012    2    1    2    0    0 -0.26433897779E+02 -0.33879982664E+02  0.60843266831E+01  0.47787271800E+02  0.20000003447E+02 0.  0.
        -12    1    1    2    0    0  0.26433897779E+02  0.33879982664E+02 -0.60843266831E+01  0.43400728200E+02  0.00000000000E+00 0.  1.
         11    1    3    3    0    0 -0.30301168788E+01 -0.73039140272E+01 -0.53644865304E+01  0.95554426592E+01  0.51100000000E-03 0. -1.
        -11    1    3    3    0    0 -0.22879786754E+02 -0.25415498937E+02  0.12668929422E+02  0.36468260188E+02  0.51100000000E-03 0.  1.
        -12    1    3    3    0    0 -0.52399414572E+00 -0.11605696992E+01 -0.12201162087E+01  0.17635689537E+01  0.00000000000E+00 0.  1.
</event>
<event>
 7    1  0.2834226E-010  0.4778727E+02  0.7816164E-02  0.1312668E+00
        -11   -1    0    0    0    0  0.00000000000E+00  0.00000000000E+00  0.45593999997E+02  0.45594000000E+02  0.51100000000E-03 0. -1.
         11   -1    0    0    0    0 -0.00000000000E+00 -0.00000000000E+00 -0.45593999997E+02  0.45594000000E+02  0.51100000000E-03 0.  1.
    9900012    2    1    2    0    0 -0.69671170970E+01  0.36800920441E+02  0.21926579767E+02  0.47787269980E+02  0.19999995148E+02 0.  0.
        -12    1    1    2    0    0  0.69671170970E+01 -0.36800920441E+02 -0.21926579767E+02  0.43400730020E+02  0.00000000000E+00 0.  1.
         11    1    3    3    0    0  0.85868918925E+00  0.98729877647E+01  0.11921550756E+02  0.15502793529E+02  0.51100000000E-03 0. -1.
        -11    1    3    3    0    0 -0.77157877632E+01  0.60354797120E+01  0.35012700606E+01  0.10402850016E+02  0.51100000000E-03 0.  1.
        -12    1    3    3    0    0 -0.11001852311E+00  0.20892452964E+02  0.65037589506E+01  0.21881626435E+02  0.00000000000E+00 0.  1.
</event>
<event>
 7    1  0.2834226E-010  0.4778726E+02  0.7816164E-02  0.1312668E+00
        -11   -1    0    0    0    0  0.00000000000E+00  0.00000000000E+00  0.45593999997E+02  0.45594000000E+02  0.51100000000E-03 0.  1.
         11   -1    0    0    0    0 -0.00000000000E+00 -0.00000000000E+00 -0.45593999997E+02  0.45594000000E+02  0.51100000000E-03 0. -1.
    9900012    2    1    2    0    0 -0.38656991430E+02  0.17526573944E+02 -0.90598330967E+01  0.47787258573E+02  0.19999943140E+02 0.  0.
        -12    1    1    2    0    0  0.38656991430E+02 -0.17526573944E+02  0.90598330967E+01  0.43400741427E+02  0.00000000000E+00 0.  1.
         11    1    3    3    0    0 -0.91815667393E+01  0.86005320387E+01  0.48605442991E+00  0.12589939170E+02  0.51100000000E-03 0. -1.
        -11    1    3    3    0    0 -0.26360131395E+02  0.48564218359E+01 -0.31302654213E+01  0.26985920812E+02  0.51100000000E-03 0.  1.
        -12    1    3    3    0    0 -0.31152932959E+01  0.40696200692E+01 -0.64156221053E+01  0.82113985913E+01  0.00000000000E+00 0.  1.
</event>
<event>
 7    1  0.2834226E-010  0.4778727E+02  0.7816164E-02  0.1312668E+00
        -11   -1    0    0    0    0  0.00000000000E+00  0.00000000000E+00  0.45593999997E+02  0.45594000000E+02  0.51100000000E-03 0.  1.
         11   -1    0    0    0    0 -0.00000000000E+00 -0.00000000000E+00 -0.45593999997E+02  0.45594000000E+02  0.51100000000E-03 0. -1.
    9900012    2    1    2    0    0  0.26238017146E+02 -0.12792248034E+01 -0.34547837279E+02  0.47787273963E+02  0.20000013306E+02 0.  0.
        -12    1    1    2    0    0 -0.26238017146E+02  0.12792248034E+01  0.34547837279E+02  0.43400726037E+02  0.00000000000E+00 0.  1.
         11    1    3    3    0    0  0.46301404582E+01  0.40096537811E+01 -0.89198727566E+01  0.10820335224E+02  0.51100000000E-03 0. -1.
        -11    1    3    3    0    0  0.31509307168E+01 -0.25706198029E+01 -0.14902941357E+02  0.15447786634E+02  0.51100000000E-03 0.  1.
        -12    1    3    3    0    0  0.18456945971E+02 -0.27182587816E+01 -0.10725023166E+02  0.21519152105E+02  0.00000000000E+00 0.  1.
</event>
<event>
 7    1  0.2834226E-010  0.4778727E+02  0.7816164E-02  0.1312668E+00
        -11   -1    0    0    0    0  0.00000000000E+00  0.00000000000E+00  0.45593999997E+02  0.45594000000E+02  0.51100000000E-03 0. -1.
         11   -1    0    0    0    0 -0.00000000000E+00 -0.00000000000E+00 -0.45593999997E+02  0.45594000000E+02  0.51100000000E-03 0.  1.
    9900012    2    1    2    0    0 -0.62333723088E+01 -0.18519303598E+02  0.38753111051E+02  0.47787272446E+02  0.20000006391E+02 0.  0.
        -12    1    1    2    0    0  0.62333723088E+01  0.18519303598E+02 -0.38753111051E+02  0.43400727554E+02  0.00000000000E+00 0.  1.
         11    1    3    3    0    0 -0.12572541703E+02 -0.13265105194E+02  0.30373723320E+02  0.35448482185E+02  0.51100000000E-03 0. -1.
        -11    1    3    3    0    0  0.88529090848E+00  0.45122667408E+00  0.18306299319E+01  0.20829190365E+01  0.51100000000E-03 0.  1.
         12    1    3    3    0    0  0.54538784859E+01 -0.57054250778E+01  0.65487577993E+01  0.10255871224E+02  0.00000000000E+00 0. -1.
</event>
<event>
 7    1  0.2834226E-010  0.4778727E+02  0.7816164E-02  0.1312668E+00
        -11   -1    0    0    0    0  0.00000000000E+00  0.00000000000E+00  0.45593999997E+02  0.45594000000E+02  0.51100000000E-03 0.  1.
         11   -1    0    0    0    0 -0.00000000000E+00 -0.00000000000E+00 -0.45593999997E+02  0.45594000000E+02  0.51100000000E-03 0. -1.
    9900012    2    1    2    0    0 -0.39297910738E+02  0.18346960049E+01 -0.18328438167E+02  0.47787267939E+02  0.19999985839E+02 0.  0.
        -12    1    1    2    0    0  0.39297910738E+02 -0.18346960049E+01  0.18328438167E+02  0.43400732061E+02  0.00000000000E+00 0.  1.
         11    1    3    3    0    0 -0.23396450529E+02  0.41914572751E+01 -0.14132766594E+02  0.27653160820E+02  0.51100000000E-03 0. -1.
        -11    1    3    3    0    0  0.11541047999E+01 -0.18856891874E+00  0.16078970826E+01  0.19881774104E+01  0.51100000000E-03 0.  1.
        -12    1    3    3    0    0 -0.17055565009E+02 -0.21681923515E+01 -0.58035686556E+01  0.18145929708E+02  0.00000000000E+00 0.  1.
</event>
<event>
 7    1  0.2834226E-010  0.4778727E+02  0.7816164E-02  0.1312668E+00
        -11   -1    0    0    0    0  0.00000000000E+00  0.00000000000E+00  0.45593999997E+02  0.45594000000E+02  0.51100000000E-03 0.  1.
         11   -1    0    0    0    0 -0.00000000000E+00 -0.00000000000E+00 -0.45593999997E+02  0.45594000000E+02  0.51100000000E-03 0. -1.
    9900012    2    1    2    0    0  0.39196063325E+02  0.48558719386E+01 -0.17992000591E+02  0.47787274687E+02  0.20000016607E+02 0.  0.
        -12    1    1    2    0    0 -0.39196063325E+02 -0.48558719386E+01  0.17992000591E+02  0.43400725313E+02  0.00000000000E+00 0.  1.
         11    1    3    3    0    0  0.20323697424E+02 -0.79442442582E-01 -0.90280609610E+01  0.22238814560E+02  0.51100000000E-03 0. -1.
        -11    1    3    3    0    0  0.60825763407E+01  0.20100424589E+01 -0.10539994604E+02  0.12334078487E+02  0.51100000000E-03 0.  1.
        -12    1    3    3    0    0  0.12789789561E+02  0.29252719224E+01  0.15760549736E+01  0.13214381639E+02  0.00000000000E+00 0.  1.
</event>
<event>
 7    1  0.2834226E-010  0.4778727E+02  0.7816164E-02  0.1312668E+00
        -11   -1    0    0    0    0  0.00000000000E+00  0.00000000000E+00  0.45593999997E+02  0.45594000000E+02  0.51100000000E-03 0. -1.
         11   -1    0    0    0    0 -0.00000000000E+00 -0.00000000000E+00 -0.45593999997E+02  0.45594000000E+02  0.51100000000E-03 0.  1.
    9900012    2    1    2    0    0 -0.21471904135E+02  0.25888977468E+02  0.27428844947E+02  0.47787270091E+02  0.19999995654E+02 0.  0.
        -12    1    1    2    0    0  0.21471904135E+02 -0.25888977468E+02 -0.27428844947E+02  0.43400729909E+02  0.00000000000E+00 0.  1.
         11    1    3    3    0    0 -0.13037716178E+02  0.11168773143E+02  0.62075494251E+01  0.18255333653E+02  0.51100000000E-03 0. -1.
        -11    1    3    3    0    0 -0.68261593806E+01  0.40314080511E+01  0.15239142328E+02  0.17177897483E+02  0.51100000000E-03 0.  1.
         12    1    3    3    0    0 -0.16080285762E+01  0.10688796274E+02  0.59821531932E+01  0.12354038955E+02  0.00000000000E+00 0. -1.
</event>
<event>
 7    1  0.2834226E-010  0.4778727E+02  0.7816164E-02  0.1312668E+00
        -11   -1    0    0    0    0  0.00000000000E+00  0.00000000000E+00  0.45593999997E+02  0.45594000000E+02  0.51100000000E-03 0.  1.
         11   -1    0    0    0    0 -0.00000000000E+00 -0.00000000000E+00 -0.45593999997E+02  0.45594000000E+02  0.51100000000E-03 0. -1.
    9900012    2    1    2    0    0 -0.22427011184E+02 -0.22378991308E+02 -0.29661985581E+02  0.47787268771E+02  0.19999989635E+02 0.  0.
        -12    1    1    2    0    0  0.22427011184E+02  0.22378991308E+02  0.29661985581E+02  0.43400731229E+02  0.00000000000E+00 0.  1.
         11    1    3    3    0    0 -0.68870079514E+01  0.64504601721E+00 -0.74288350035E+01  0.10150593710E+02  0.51100000000E-03 0. -1.
        -11    1    3    3    0    0 -0.15729428484E+02 -0.24209664540E+02 -0.22227441189E+02  0.36435997580E+02  0.51100000000E-03 0.  1.
        -12    1    3    3    0    0  0.18942525217E+00  0.11856272145E+01 -0.57093882768E-02  0.12006774817E+01  0.00000000000E+00 0.  1.
</event>
<event>
 7    1  0.2834226E-010  0.4778727E+02  0.7816164E-02  0.1312668E+00
        -11   -1    0    0    0    0  0.00000000000E+00  0.00000000000E+00  0.45593999997E+02  0.45594000000E+02  0.51100000000E-03 0.  1.
         11   -1    0    0    0    0 -0.00000000000E+00 -0.00000000000E+00 -0.45593999997E+02  0.45594000000E+02  0.51100000000E-03 0. -1.
    9900012    2    1    2    0    0  0.35597946561E+02  0.18870710409E+02 -0.16133995041E+02  0.47787270667E+02  0.19999998278E+02 0.  0.
        -12    1    1    2    0    0 -0.35597946561E+02 -0.18870710409E+02  0.16133995041E+02  0.43400729333E+02  0.00000000000E+00 0.  1.
         11    1    3    3    0    0  0.24839400585E+02  0.10014999804E+02 -0.82748763033E+01  0.28031582556E+02  0.51100000000E-03 0. -1.
        -11    1    3    3    0    0  0.38348464056E+01  0.78936943397E+01  0.58293665866E+00  0.87952414801E+01  0.51100000000E-03 0.  1.
        -12    1    3    3    0    0  0.69236995706E+01  0.96201626471E+00 -0.84420553959E+01  0.10960446631E+02  0.00000000000E+00 0.  1.
</event>
<event>
 7    1  0.2834226E-010  0.4778727E+02  0.7816164E-02  0.1312668E+00
        -11   -1    0    0    0    0  0.00000000000E+00  0.00000000000E+00  0.45593999997E+02  0.45594000000E+02  0.51100000000E-03 0.  1.
         11   -1    0    0    0    0 -0.00000000000E+00 -0.00000000000E+00 -0.45593999997E+02  0.45594000000E+02  0.51100000000E-03 0. -1.
    9900012    2    1    2    0    0  0.27727522529E+02 -0.26877108942E+02 -0.19809826589E+02  0.47787265903E+02  0.19999976558E+02 0.  0.
        -12    1    1    2    0    0 -0.27727522529E+02  0.26877108942E+02  0.19809826589E+02  0.43400734097E+02  0.00000000000E+00 0.  1.
         11    1    3    3    0    0  0.12072893397E+02 -0.16379009681E+02 -0.19847450882E+02  0.28424426465E+02  0.51100000000E-03 0. -1.
        -11    1    3    3    0    0  0.85078146037E+01 -0.75245010798E+01  0.15880469966E+01  0.11468344229E+02  0.51100000000E-03 0.  1.
         12    1    3    3    0    0  0.71468145275E+01 -0.29735981818E+01 -0.15504227033E+01  0.78944952085E+01  0.00000000000E+00 0. -1.
</event>
<event>
 7    1  0.2834226E-010  0.4778727E+02  0.7816164E-02  0.1312668E+00
        -11   -1    0    0    0    0  0.00000000000E+00  0.00000000000E+00  0.45593999997E+02  0.45594000000E+02  0.51100000000E-03 0.  1.
         11   -1    0    0    0    0 -0.00000000000E+00 -0.00000000000E+00 -0.45593999997E+02  0.45594000000E+02  0.51100000000E-03 0. -1.
    9900012    2    1    2    0    0  0.33399325701E+02  0.17423823604E+02 -0.21552696540E+02  0.47787270577E+02  0.19999997869E+02 0.  0.
        -12    1    1    2    0    0 -0.33399325701E+02 -0.17423823604E+02  0.21552696540E+02  0.43400729423E+02  0.00000000000E+00 0.  1.
         11    1    3    3    0    0  0.15898114606E+02  0.25257218037E+00 -0.74639291900E+01  0.17564853542E+02  0.51100000000E-03 0. -1.
        -11    1    3    3    0    0  0.20279786834E+01  0.77736101744E+01 -0.15011759076E+01  0.81728356188E+01  0.51100000000E-03 0.  1.
        -12    1    3    3    0    0  0.15473232412E+02  0.93976412496E+01 -0.12587591442E+02  0.22049581417E+02  0.00000000000E+00 0.  1.
</event>
<event>
 7    1  0.2834226E-010  0.4778727E+02  0.7816164E-02  0.1312668E+00
        -11   -1    0    0    0    0  0.00000000000E+00  0.00000000000E+00  0.45593999997E+02  0.45594000000E+02  0.51100000000E-03 0.  1.
         11   -1    0    0    0    0 -0.00000000000E+00 -0.00000000000E+00 -0.45593999997E+02  0.45594000000E+02  0.51100000000E-03 0. -1.
    9900012    2    1    2    0    0 -0.61859898143E+01 -0.24497355380E+02 -0.35287910120E+02  0.47787268541E+02  0.19999988584E+02 0.  0.
        -12    1    1    2    0    0  0.61859898143E+01  0.24497355380E+02  0.35287910120E+02  0.43400731459E+02  0.00000000000E+00 0.  1.
         11    1    3    3    0    0  0.43754332864E+01 -0.27961984394E+01 -0.63978057515E+01  0.82398459240E+01  0.51100000000E-03 0. -1.
        -11    1    3    3    0    0 -0.98288769964E+01 -0.12127569953E+02 -0.24355776112E+02  0.28929027053E+02  0.51100000000E-03 0.  1.
        -12    1    3    3    0    0 -0.73254610429E+00 -0.95735869880E+01 -0.45343282563E+01  0.10618395564E+02  0.00000000000E+00 0.  1.
</event>
<event>
 7    1  0.2834226E-010  0.4778727E+02  0.7816164E-02  0.1312668E+00
        -11   -1    0    0    0    0  0.00000000000E+00  0.00000000000E+00  0.45593999997E+02  0.45594000000E+02  0.51100000000E-03 0.  1.
         11   -1    0    0    0    0 -0.00000000000E+00 -0.00000000000E+00 -0.45593999997E+02  0.45594000000E+02  0.51100000000E-03 0. -1.
    9900012    2    1    2    0    0  0.38266655647E+02 -0.20401152505E+02  0.17548150762E+01  0.47787270354E+02  0.19999996850E+02 0.  0.
        -12    1    1    2    0    0 -0.38266655647E+02  0.20401152505E+02 -0.17548150762E+01  0.43400729646E+02  0.00000000000E+00 0.  1.
         11    1    3    3    0    0  0.15004336607E+02 -0.57257162812E+01  0.55113924142E+01  0.16979086859E+02  0.51100000000E-03 0.  1.
        -11    1    3    3    0    0  0.12058980102E+02 -0.14830818721E+02 -0.42932526702E+01  0.19590921464E+02  0.51100000000E-03 0. -1.
        -12    1    3    3    0    0  0.11203338937E+02  0.15538249807E+00  0.53667533215E+00  0.11217262031E+02  0.00000000000E+00 0.  1.
</event>
<event>
 7    1  0.2834226E-010  0.4778727E+02  0.7816164E-02  0.1312668E+00
        -11   -1    0    0    0    0  0.00000000000E+00  0.00000000000E+00  0.45593999997E+02  0.45594000000E+02  0.51100000000E-03 0.  1.
         11   -1    0    0    0    0 -0.00000000000E+00 -0.00000000000E+00 -0.45593999997E+02  0.45594000000E+02  0.51100000000E-03 0. -1.
    9900012    2    1    2    0    0  0.14262301762E+02  0.33123944909E+01 -0.40856312226E+02  0.47787268929E+02  0.19999990356E+02 0.  0.
        -12    1    1    2    0    0 -0.14262301762E+02 -0.33123944909E+01  0.40856312226E+02  0.43400731071E+02  0.00000000000E+00 0.  1.
         11    1    3    3    0    0  0.10435777716E+02  0.18882332130E+01 -0.37581618937E+02  0.39049314506E+02  0.51100000000E-03 0. -1.
        -11    1    3    3    0    0 -0.16395065998E+01  0.17224718674E+01 -0.37605373754E-01  0.23782988984E+01  0.51100000000E-03 0.  1.
         12    1    3    3    0    0  0.54660306457E+01 -0.29831058949E+00 -0.32370879150E+01  0.63596555250E+01  0.00000000000E+00 0. -1.
</event>
<event>
 7    1  0.2834226E-010  0.4778728E+02  0.7816164E-02  0.1312668E+00
        -11   -1    0    0    0    0  0.00000000000E+00  0.00000000000E+00  0.45593999997E+02  0.45594000000E+02  0.51100000000E-03 0.  1.
         11   -1    0    0    0    0 -0.00000000000E+00 -0.00000000000E+00 -0.45593999997E+02  0.45594000000E+02  0.51100000000E-03 0. -1.
    9900012    2    1    2    0    0  0.34530741117E+02  0.26282405646E+02 -0.69683627942E+00  0.47787279852E+02  0.20000040155E+02 0.  0.
        -12    1    1    2    0    0 -0.34530741117E+02 -0.26282405646E+02  0.69683627942E+00  0.43400720148E+02  0.00000000000E+00 0.  1.
         11    1    3    3    0    0  0.11310624697E+01 -0.93510075398E+00 -0.16366122025E+01  0.21982300819E+01  0.51100000000E-03 0.  1.
        -11    1    3    3    0    0  0.24889917337E+02  0.11581391977E+02  0.32247828244E+01  0.27641198412E+02  0.51100000000E-03 0. -1.
        -12    1    3    3    0    0  0.85097613104E+01  0.15636114423E+02 -0.22850069014E+01  0.17947851357E+02  0.00000000000E+00 0.  1.
</event>
<event>
 7    1  0.2834226E-010  0.4778727E+02  0.7816164E-02  0.1312668E+00
        -11   -1    0    0    0    0  0.00000000000E+00  0.00000000000E+00  0.45593999997E+02  0.45594000000E+02  0.51100000000E-03 0.  1.
         11   -1    0    0    0    0 -0.00000000000E+00 -0.00000000000E+00 -0.45593999997E+02  0.45594000000E+02  0.51100000000E-03 0. -1.
    9900012    2    1    2    0    0  0.20779057483E+02  0.45885170627E+01 -0.37825907567E+02  0.47787274176E+02  0.20000014280E+02 0.  0.
        -12    1    1    2    0    0 -0.20779057483E+02 -0.45885170627E+01  0.37825907567E+02  0.43400725824E+02  0.00000000000E+00 0.  1.
         11    1    3    3    0    0  0.11748284185E+02 -0.49553757904E+01 -0.16377889396E+02  0.20756039889E+02  0.51100000000E-03 0. -1.
        -11    1    3    3    0    0 -0.67867732755E+00  0.60670118159E+01 -0.71469477492E+01  0.93993668766E+01  0.51100000000E-03 0.  1.
        -12    1    3    3    0    0  0.97094506255E+01  0.34768810372E+01 -0.14301070422E+02  0.17631867411E+02  0.00000000000E+00 0.  1.
</event>
<event>
 7    1  0.2834226E-010  0.4778727E+02  0.7816164E-02  0.1312668E+00
        -11   -1    0    0    0    0  0.00000000000E+00  0.00000000000E+00  0.45593999997E+02  0.45594000000E+02  0.51100000000E-03 0.  1.
         11   -1    0    0    0    0 -0.00000000000E+00 -0.00000000000E+00 -0.45593999997E+02  0.45594000000E+02  0.51100000000E-03 0. -1.
    9900012    2    1    2    0    0 -0.73058177265E+01  0.40594266525E+02 -0.13503843153E+02  0.47787271582E+02  0.20000002449E+02 0.  0.
        -12    1    1    2    0    0  0.73058177265E+01 -0.40594266525E+02  0.13503843153E+02  0.43400728418E+02  0.00000000000E+00 0.  1.
         11    1    3    3    0    0  0.83431995245E+00 -0.15698291354E+01 -0.17421853286E+01  0.24891089325E+01  0.51100000000E-03 0. -1.
        -11    1    3    3    0    0 -0.64533427013E+01  0.33222820792E+02 -0.55868740080E+01  0.34301816495E+02  0.51100000000E-03 0.  1.
         12    1    3    3    0    0 -0.16867949776E+01  0.89412748683E+01 -0.61747838166E+01  0.10996346154E+02  0.00000000000E+00 0. -1.
</event>
<event>
 7    1  0.2834226E-010  0.4778729E+02  0.7816164E-02  0.1312668E+00
        -11   -1    0    0    0    0  0.00000000000E+00  0.00000000000E+00  0.45593999997E+02  0.45594000000E+02  0.51100000000E-03 0. -1.
         11   -1    0    0    0    0 -0.00000000000E+00 -0.00000000000E+00 -0.45593999997E+02  0.45594000000E+02  0.51100000000E-03 0.  1.
    9900012    2    1    2    0    0 -0.22991301702E+02 -0.34855994053E+02 -0.11835593673E+02  0.47787290870E+02  0.20000090394E+02 0.  0.
        -12    1    1    2    0    0  0.22991301702E+02  0.34855994053E+02  0.11835593673E+02  0.43400709130E+02  0.00000000000E+00 0.  1.
         11    1    3    3    0    0 -0.37101399634E+01 -0.52056923052E+01  0.35894467957E+01  0.73313368142E+01  0.51100000000E-03 0. -1.
        -11    1    3    3    0    0 -0.10243716518E+02 -0.10494267735E+02 -0.12106719278E+02  0.19016730406E+02  0.51100000000E-03 0.  1.
        -12    1    3    3    0    0 -0.90374452209E+01 -0.19156034012E+02 -0.33183211911E+01  0.21439223650E+02  0.00000000000E+00 0.  1.
</event>
<event>
 7    1  0.2834226E-010  0.4778727E+02  0.7816164E-02  0.1312668E+00
        -11   -1    0    0    0    0  0.00000000000E+00  0.00000000000E+00  0.45593999997E+02  0.45594000000E+02  0.51100000000E-03 0.  1.
         11   -1    0    0    0    0 -0.00000000000E+00 -0.00000000000E+00 -0.45593999997E+02  0.45594000000E+02  0.51100000000E-03 0. -1.
    9900012    2    1    2    0    0  0.20200328127E+02 -0.18589896767E+02 -0.33615262015E+02  0.47787270069E+02  0.19999995552E+02 0.  0.
        -12    1    1    2    0    0 -0.20200328127E+02  0.18589896767E+02  0.33615262015E+02  0.43400729931E+02  0.00000000000E+00 0.  1.
         11    1    3    3    0    0 -0.14575238604E+01 -0.98855719331E+00  0.57931355810E-05  0.17611420696E+01  0.51100000000E-03 0. -1.
        -11    1    3    3    0    0  0.37209167249E+01  0.12706813148E+01 -0.59626684735E+00  0.39768563831E+01  0.51100000000E-03 0.  1.
         12    1    3    3    0    0  0.17936935263E+02 -0.18872020888E+02 -0.33019000960E+02  0.42049271616E+02  0.00000000000E+00 0. -1.
</event>
<event>
 7    1  0.2834226E-010  0.4778726E+02  0.7816164E-02  0.1312668E+00
        -11   -1    0    0    0    0  0.00000000000E+00  0.00000000000E+00  0.45593999997E+02  0.45594000000E+02  0.51100000000E-03 0. -1.
         11   -1    0    0    0    0 -0.00000000000E+00 -0.00000000000E+00 -0.45593999997E+02  0.45594000000E+02  0.51100000000E-03 0.  1.
    9900012    2    1    2    0    0 -0.27214634338E+02 -0.33661559598E+02  0.31443485729E+01  0.47787264469E+02  0.19999970020E+02 0.  0.
        -12    1    1    2    0    0  0.27214634338E+02  0.33661559598E+02 -0.31443485729E+01  0.43400735531E+02  0.00000000000E+00 0.  1.
         11    1    3    3    0    0 -0.24237887255E+02 -0.20277302394E+02 -0.17859075318E+01  0.31651755670E+02  0.51100000000E-03 0. -1.
        -11    1    3    3    0    0 -0.28995755904E+01 -0.97956864301E+01  0.66148805905E+01  0.12170441928E+02  0.51100000000E-03 0.  1.
         12    1    3    3    0    0 -0.77171492073E-01 -0.35885707732E+01 -0.16846244859E+01  0.39650668711E+01  0.00000000000E+00 0. -1.
</event>
<event>
 7    1  0.2834226E-010  0.4778727E+02  0.7816164E-02  0.1312668E+00
        -11   -1    0    0    0    0  0.00000000000E+00  0.00000000000E+00  0.45593999997E+02  0.45594000000E+02  0.51100000000E-03 0.  1.
         11   -1    0    0    0    0 -0.00000000000E+00 -0.00000000000E+00 -0.45593999997E+02  0.45594000000E+02  0.51100000000E-03 0. -1.
    9900012    2    1    2    0    0  0.29638478103E+02  0.31453946061E+02  0.39791094998E+01  0.47787269367E+02  0.19999992352E+02 0.  0.
        -12    1    1    2    0    0 -0.29638478103E+02 -0.31453946061E+02 -0.39791094998E+01  0.43400730633E+02  0.00000000000E+00 0.  1.
         11    1    3    3    0    0  0.21941298145E+01  0.20784875205E+01 -0.51199854803E+01  0.59454661378E+01  0.51100000000E-03 0. -1.
        -11    1    3    3    0    0  0.14982451601E+02  0.13789635088E+02  0.79304967844E+01  0.21852246368E+02  0.51100000000E-03 0.  1.
        -12    1    3    3    0    0  0.12461896687E+02  0.15585823453E+02  0.11685981956E+01  0.19989556861E+02  0.00000000000E+00 0.  1.
</event>
<event>
 7    1  0.2834226E-010  0.4778727E+02  0.7816164E-02  0.1312668E+00
        -11   -1    0    0    0    0  0.00000000000E+00  0.00000000000E+00  0.45593999997E+02  0.45594000000E+02  0.51100000000E-03 0.  1.
         11   -1    0    0    0    0 -0.00000000000E+00 -0.00000000000E+00 -0.45593999997E+02  0.45594000000E+02  0.51100000000E-03 0. -1.
    9900012    2    1    2    0    0  0.26923748865E+02  0.33905161547E+02  0.30289852277E+01  0.47787274385E+02  0.20000015229E+02 0.  0.
        -12    1    1    2    0    0 -0.26923748865E+02 -0.33905161547E+02 -0.30289852277E+01  0.43400725615E+02  0.00000000000E+00 0.  1.
         11    1    3    3    0    0  0.89438211828E+01  0.75913747833E+01  0.18580910933E+01  0.11877432855E+02  0.51100000000E-03 0.  1.
        -11    1    3    3    0    0  0.12139504720E+02  0.26848026401E+02  0.33467419831E+01  0.29654422581E+02  0.51100000000E-03 0. -1.
        -12    1    3    3    0    0  0.58404229615E+01 -0.53423963736E+00 -0.21758478487E+01  0.62554189484E+01  0.00000000000E+00 0.  1.
</event>
<event>
 7    1  0.2834226E-010  0.4778727E+02  0.7816164E-02  0.1312668E+00
        -11   -1    0    0    0    0  0.00000000000E+00  0.00000000000E+00  0.45593999997E+02  0.45594000000E+02  0.51100000000E-03 0.  1.
         11   -1    0    0    0    0 -0.00000000000E+00 -0.00000000000E+00 -0.45593999997E+02  0.45594000000E+02  0.51100000000E-03 0. -1.
    9900012    2    1    2    0    0 -0.86161923159E+00 -0.10921067214E+02 -0.41995370638E+02  0.47787271298E+02  0.20000001157E+02 0.  0.
        -12    1    1    2    0    0  0.86161923159E+00  0.10921067214E+02  0.41995370638E+02  0.43400728702E+02  0.00000000000E+00 0.  1.
         11    1    3    3    0    0 -0.28726532805E+01  0.18934111691E+00 -0.49446466335E+01  0.57216708678E+01  0.51100000000E-03 0.  1.
        -11    1    3    3    0    0 -0.31663315896E+01 -0.94120321421E+01 -0.34767301655E+02  0.36157672345E+02  0.51100000000E-03 0. -1.
        -12    1    3    3    0    0  0.51773656385E+01 -0.16983761883E+01 -0.22834223498E+01  0.59079280852E+01  0.00000000000E+00 0.  1.
</event>
<event>
 7    1  0.2834226E-010  0.4778727E+02  0.7816164E-02  0.1312668E+00
        -11   -1    0    0    0    0  0.00000000000E+00  0.00000000000E+00  0.45593999997E+02  0.45594000000E+02  0.51100000000E-03 0. -1.
         11   -1    0    0    0    0 -0.00000000000E+00 -0.00000000000E+00 -0.45593999997E+02  0.45594000000E+02  0.51100000000E-03 0.  1.
    9900012    2    1    2    0    0 -0.29464112782E+02  0.31864898915E+02  0.34297797281E+00  0.47787270066E+02  0.19999995538E+02 0.  0.
        -12    1    1    2    0    0  0.29464112782E+02 -0.31864898915E+02 -0.34297797281E+00  0.43400729934E+02  0.00000000000E+00 0.  1.
         11    1    3    3    0    0 -0.29300619997E+02  0.29289971784E+02 -0.38678334980E+01  0.41609961735E+02  0.51100000000E-03 0. -1.
        -11    1    3    3    0    0  0.80695894434E+00  0.32379966953E+01  0.29558252213E+01  0.44578815974E+01  0.51100000000E-03 0.  1.
        -12    1    3    3    0    0 -0.97045172936E+00 -0.66306956413E+00  0.12549862495E+01  0.17194267336E+01  0.00000000000E+00 0.  1.
</event>
<event>
 7    1  0.2834226E-010  0.4778727E+02  0.7816164E-02  0.1312668E+00
        -11   -1    0    0    0    0  0.00000000000E+00  0.00000000000E+00  0.45593999997E+02  0.45594000000E+02  0.51100000000E-03 0. -1.
         11   -1    0    0    0    0 -0.00000000000E+00 -0.00000000000E+00 -0.45593999997E+02  0.45594000000E+02  0.51100000000E-03 0.  1.
    9900012    2    1    2    0    0  0.85217002908E+01  0.39361283232E+02  0.16176935460E+02  0.47787271499E+02  0.20000002075E+02 0.  0.
        -12    1    1    2    0    0 -0.85217002908E+01 -0.39361283232E+02 -0.16176935460E+02  0.43400728501E+02  0.00000000000E+00 0.  1.
         11    1    3    3    0    0  0.39521867123E+01  0.32256163682E+01 -0.29972493200E+01  0.59167461084E+01  0.51100000000E-03 0. -1.
        -11    1    3    3    0    0  0.25433688062E+01  0.19824605475E+02  0.14775890620E+02  0.24855797130E+02  0.51100000000E-03 0.  1.
         12    1    3    3    0    0  0.20261447723E+01  0.16311061389E+02  0.43982941602E+01  0.17014728261E+02  0.00000000000E+00 0. -1.
</event>
<event>
 7    1  0.2834226E-010  0.4778728E+02  0.7816164E-02  0.1312668E+00
        -11   -1    0    0    0    0  0.00000000000E+00  0.00000000000E+00  0.45593999997E+02  0.45594000000E+02  0.51100000000E-03 0.  1.
         11   -1    0    0    0    0 -0.00000000000E+00 -0.00000000000E+00 -0.45593999997E+02  0.45594000000E+02  0.51100000000E-03 0. -1.
    9900012    2    1    2    0    0  0.31609779236E+02  0.24437746692E+02 -0.16948190508E+02  0.47787276870E+02  0.20000026560E+02 0.  0.
        -12    1    1    2    0    0 -0.31609779236E+02 -0.24437746692E+02  0.16948190508E+02  0.43400723130E+02  0.00000000000E+00 0.  1.
         11    1    3    3    0    0  0.21236721340E+02  0.24141335475E+02 -0.12841912254E+02  0.34622494457E+02  0.51100000000E-03 0. -1.
        -11    1    3    3    0    0  0.10314773836E+02 -0.14605128531E+01 -0.45246028588E+01  0.11357802973E+02  0.51100000000E-03 0.  1.
        -12    1    3    3    0    0  0.58284059599E-01  0.17569240701E+01  0.41832460528E+00  0.18069794396E+01  0.00000000000E+00 0.  1.
</event>
<event>
 7    1  0.2834226E-010  0.4778727E+02  0.7816164E-02  0.1312668E+00
        -11   -1    0    0    0    0  0.00000000000E+00  0.00000000000E+00  0.45593999997E+02  0.45594000000E+02  0.51100000000E-03 0.  1.
         11   -1    0    0    0    0 -0.00000000000E+00 -0.00000000000E+00 -0.45593999997E+02  0.45594000000E+02  0.51100000000E-03 0. -1.
    9900012    2    1    2    0    0  0.34702682581E+02  0.17490277054E+02  0.19324537546E+02  0.47787265892E+02  0.19999976506E+02 0.  0.
        -12    1    1    2    0    0 -0.34702682581E+02 -0.17490277054E+02 -0.19324537546E+02  0.43400734108E+02  0.00000000000E+00 0.  1.
         11    1    3    3    0    0  0.88662527411E+01 -0.21019472321E+01  0.37679319940E+01  0.98603210703E+01  0.51100000000E-03 0. -1.
        -11    1    3    3    0    0  0.27145978342E+02  0.18232681439E+02  0.14782337588E+02  0.35886659323E+02  0.51100000000E-03 0.  1.
        -12    1    3    3    0    0 -0.13095485015E+01  0.13595428478E+01  0.77426796412E+00  0.20402854980E+01  0.00000000000E+00 0.  1.
</event>
<event>
 7    1  0.2834226E-010  0.4778727E+02  0.7816164E-02  0.1312668E+00
        -11   -1    0    0    0    0  0.00000000000E+00  0.00000000000E+00  0.45593999997E+02  0.45594000000E+02  0.51100000000E-03 0.  1.
         11   -1    0    0    0    0 -0.00000000000E+00 -0.00000000000E+00 -0.45593999997E+02  0.45594000000E+02  0.51100000000E-03 0. -1.
    9900012    2    1    2    0    0  0.75146620281E+01 -0.40473340053E+02 -0.13749981951E+02  0.47787269544E+02  0.19999993160E+02 0.  0.
        -12    1    1    2    0    0 -0.75146620281E+01  0.40473340053E+02  0.13749981951E+02  0.43400730456E+02  0.00000000000E+00 0.  1.
         11    1    3    3    0    0  0.89943918077E+01 -0.24970157092E+02 -0.74362601850E+00  0.26551098078E+02  0.51100000000E-03 0. -1.
        -11    1    3    3    0    0 -0.13506313379E+01 -0.98831893516E+01 -0.11863295190E+02  0.15499658377E+02  0.51100000000E-03 0.  1.
        -12    1    3    3    0    0 -0.12909844173E+00 -0.56199936089E+01 -0.11430607430E+01  0.57365130902E+01  0.00000000000E+00 0.  1.
</event>
<event>
 7    1  0.2834226E-010  0.4778727E+02  0.7816164E-02  0.1312668E+00
        -11   -1    0    0    0    0  0.00000000000E+00  0.00000000000E+00  0.45593999997E+02  0.45594000000E+02  0.51100000000E-03 0.  1.
         11   -1    0    0    0    0 -0.00000000000E+00 -0.00000000000E+00 -0.45593999997E+02  0.45594000000E+02  0.51100000000E-03 0. -1.
    9900012    2    1    2    0    0  0.11757806437E+01  0.13899964631E+01 -0.43362529671E+02  0.47787268097E+02  0.19999986559E+02 0.  0.
        -12    1    1    2    0    0 -0.11757806437E+01 -0.13899964631E+01  0.43362529671E+02  0.43400731903E+02  0.00000000000E+00 0.  1.
         11    1    3    3    0    0  0.22416217757E+01 -0.36944782598E+01 -0.13715504249E+02  0.14380163242E+02  0.51100000000E-03 0. -1.
        -11    1    3    3    0    0  0.57340594670E+01  0.33491904263E+01 -0.67916926076E+01  0.94986105942E+01  0.51100000000E-03 0.  1.
        -12    1    3    3    0    0 -0.67999005990E+01  0.17352842965E+01 -0.22855332814E+02  0.23908494261E+02  0.00000000000E+00 0.  1.
</event>
<event>
 7    1  0.2834226E-010  0.4778728E+02  0.7816164E-02  0.1312668E+00
        -11   -1    0    0    0    0  0.00000000000E+00  0.00000000000E+00  0.45593999997E+02  0.45594000000E+02  0.51100000000E-03 0.  1.
         11   -1    0    0    0    0 -0.00000000000E+00 -0.00000000000E+00 -0.45593999997E+02  0.45594000000E+02  0.51100000000E-03 0. -1.
    9900012    2    1    2    0    0  0.10696024237E+02 -0.21365220474E+02 -0.36231823660E+02  0.47787278507E+02  0.20000034026E+02 0.  0.
        -12    1    1    2    0    0 -0.10696024237E+02  0.21365220474E+02  0.36231823660E+02  0.43400721493E+02  0.00000000000E+00 0.  1.
         11    1    3    3    0    0  0.82362256950E+01 -0.15527415907E+02 -0.30134462101E+02  0.34885840463E+02  0.51100000000E-03 0. -1.
        -11    1    3    3    0    0  0.12878936584E+01  0.20140381077E+01  0.65573114879E+00  0.24789116917E+01  0.51100000000E-03 0.  1.
         12    1    3    3    0    0  0.11719048834E+01 -0.78518426747E+01 -0.67530927075E+01  0.10422526352E+02  0.00000000000E+00 0. -1.
</event>
<event>
 7    1  0.2834226E-010  0.4778727E+02  0.7816164E-02  0.1312668E+00
        -11   -1    0    0    0    0  0.00000000000E+00  0.00000000000E+00  0.45593999997E+02  0.45594000000E+02  0.51100000000E-03 0.  1.
         11   -1    0    0    0    0 -0.00000000000E+00 -0.00000000000E+00 -0.45593999997E+02  0.45594000000E+02  0.51100000000E-03 0. -1.
    9900012    2    1    2    0    0  0.69209875790E+01 -0.41770477620E+02 -0.95367951303E+01  0.47787270386E+02  0.19999996996E+02 0.  0.
        -12    1    1    2    0    0 -0.69209875790E+01  0.41770477620E+02  0.95367951303E+01  0.43400729614E+02  0.00000000000E+00 0.  1.
         11    1    3    3    0    0  0.52682853160E+01 -0.34498544649E+02 -0.13857133689E+02  0.37548962268E+02  0.51100000000E-03 0. -1.
        -11    1    3    3    0    0  0.27990165515E+01 -0.74585611606E+01  0.30855304071E+01  0.85431332891E+01  0.51100000000E-03 0.  1.
         12    1    3    3    0    0 -0.11463142885E+01  0.18662818924E+00  0.12348081511E+01  0.16951748285E+01  0.00000000000E+00 0. -1.
</event>
<event>
 7    1  0.2834226E-010  0.4778727E+02  0.7816164E-02  0.1312668E+00
        -11   -1    0    0    0    0  0.00000000000E+00  0.00000000000E+00  0.45593999997E+02  0.45594000000E+02  0.51100000000E-03 0.  1.
         11   -1    0    0    0    0 -0.00000000000E+00 -0.00000000000E+00 -0.45593999997E+02  0.45594000000E+02  0.51100000000E-03 0. -1.
    9900012    2    1    2    0    0  0.38464803513E+02  0.22077028424E+01 -0.19980196879E+02  0.47787270415E+02  0.19999997131E+02 0.  0.
        -12    1    1    2    0    0 -0.38464803513E+02 -0.22077028424E+01  0.19980196879E+02  0.43400729585E+02  0.00000000000E+00 0.  1.
         11    1    3    3    0    0  0.15472639320E+02 -0.15707600579E+01 -0.15861148273E+02  0.22213641743E+02  0.51100000000E-03 0. -1.
        -11    1    3    3    0    0  0.16340242711E+01 -0.24564854439E+01 -0.24540157009E-01  0.29504166714E+01  0.51100000000E-03 0.  1.
         12    1    3    3    0    0  0.21358139922E+02  0.62349483442E+01 -0.40945084489E+01  0.22623212001E+02  0.00000000000E+00 0. -1.
</event>
<event>
 7    1  0.2834226E-010  0.4778727E+02  0.7816164E-02  0.1312668E+00
        -11   -1    0    0    0    0  0.00000000000E+00  0.00000000000E+00  0.45593999997E+02  0.45594000000E+02  0.51100000000E-03 0. -1.
         11   -1    0    0    0    0 -0.00000000000E+00 -0.00000000000E+00 -0.45593999997E+02  0.45594000000E+02  0.51100000000E-03 0.  1.
    9900012    2    1    2    0    0  0.19907703362E+02  0.36704128839E+02 -0.11836960374E+02  0.47787270077E+02  0.19999995590E+02 0.  0.
        -12    1    1    2    0    0 -0.19907703362E+02 -0.36704128839E+02  0.11836960374E+02  0.43400729923E+02  0.00000000000E+00 0.  1.
         11    1    3    3    0    0  0.38908492839E+00  0.22874032935E+01  0.14680382266E+01  0.27456761288E+01  0.51100000000E-03 0. -1.
        -11    1    3    3    0    0 -0.11857888965E+01  0.33128049798E+01  0.26580559002E+01  0.44097657048E+01  0.51100000000E-03 0.  1.
        -12    1    3    3    0    0  0.20704407330E+02  0.31103920565E+02 -0.15963054500E+02  0.40631828243E+02  0.00000000000E+00 0.  1.
</event>
<event>
 7    1  0.2834226E-010  0.4778727E+02  0.7816164E-02  0.1312668E+00
        -11   -1    0    0    0    0  0.00000000000E+00  0.00000000000E+00  0.45593999997E+02  0.45594000000E+02  0.51100000000E-03 0.  1.
         11   -1    0    0    0    0 -0.00000000000E+00 -0.00000000000E+00 -0.45593999997E+02  0.45594000000E+02  0.51100000000E-03 0. -1.
    9900012    2    1    2    0    0  0.42567904246E+02 -0.80980419580E+00 -0.84226589687E+01  0.47787269144E+02  0.19999991335E+02 0.  0.
        -12    1    1    2    0    0 -0.42567904246E+02  0.80980419580E+00  0.84226589687E+01  0.43400730856E+02  0.00000000000E+00 0.  1.
         11    1    3    3    0    0  0.26303748412E+02 -0.58698987539E+01 -0.12095515412E+02  0.29540554924E+02  0.51100000000E-03 0. -1.
        -11    1    3    3    0    0  0.74922749441E+01  0.20110655362E+01  0.44229558134E+01  0.89297876132E+01  0.51100000000E-03 0.  1.
         12    1    3    3    0    0  0.87718808902E+01  0.30490290219E+01 -0.75009937063E+00  0.93169266066E+01  0.00000000000E+00 0. -1.
</event>
<event>
 7    1  0.2834226E-010  0.4778727E+02  0.7816164E-02  0.1312668E+00
        -11   -1    0    0    0    0  0.00000000000E+00  0.00000000000E+00  0.45593999997E+02  0.45594000000E+02  0.51100000000E-03 0.  1.
         11   -1    0    0    0    0 -0.00000000000E+00 -0.00000000000E+00 -0.45593999997E+02  0.45594000000E+02  0.51100000000E-03 0. -1.
    9900012    2    1    2    0    0 -0.11957864040E+02  0.59641008697E+01  0.41292395564E+02  0.47787274857E+02  0.20000017382E+02 0.  0.
        -12    1    1    2    0    0  0.11957864040E+02 -0.59641008697E+01 -0.41292395564E+02  0.43400725143E+02  0.00000000000E+00 0.  1.
         11    1    3    3    0    0 -0.31644855870E+01 -0.58430683380E+01  0.92762013118E+01  0.11410667275E+02  0.51100000000E-03 0. -1.
        -11    1    3    3    0    0 -0.88084521515E+01  0.12903919696E+02  0.26587462054E+02  0.30838176204E+02  0.51100000000E-03 0.  1.
        -12    1    3    3    0    0  0.15073698403E-01 -0.10967504883E+01  0.54287321978E+01  0.55384313776E+01  0.00000000000E+00 0.  1.
</event>
<event>
 7    1  0.2834226E-010  0.4778727E+02  0.7816164E-02  0.1312668E+00
        -11   -1    0    0    0    0  0.00000000000E+00  0.00000000000E+00  0.45593999997E+02  0.45594000000E+02  0.51100000000E-03 0. -1.
         11   -1    0    0    0    0 -0.00000000000E+00 -0.00000000000E+00 -0.45593999997E+02  0.45594000000E+02  0.51100000000E-03 0.  1.
    9900012    2    1    2    0    0  0.22962012401E+02  0.33894970854E+02  0.14404861415E+02  0.47787273104E+02  0.20000009392E+02 0.  0.
        -12    1    1    2    0    0 -0.22962012401E+02 -0.33894970854E+02 -0.14404861415E+02  0.43400726896E+02  0.00000000000E+00 0.  1.
         11    1    3    3    0    0  0.51883671245E+01  0.84679803384E+01  0.56076474481E+01  0.11404891696E+02  0.51100000000E-03 0. -1.
        -11    1    3    3    0    0  0.16492280902E+02  0.19077453289E+02  0.13283886428E+02  0.28502740083E+02  0.51100000000E-03 0.  1.
        -12    1    3    3    0    0  0.12813643743E+01  0.63495372263E+01 -0.44866724608E+01  0.78796413255E+01  0.00000000000E+00 0.  1.
</event>
<event>
 7    1  0.2834226E-010  0.4778727E+02  0.7816164E-02  0.1312668E+00
        -11   -1    0    0    0    0  0.00000000000E+00  0.00000000000E+00  0.45593999997E+02  0.45594000000E+02  0.51100000000E-03 0. -1.
         11   -1    0    0    0    0 -0.00000000000E+00 -0.00000000000E+00 -0.45593999997E+02  0.45594000000E+02  0.51100000000E-03 0.  1.
    9900012    2    1    2    0    0  0.29598658064E+02 -0.25325691952E+02  0.19135100579E+02  0.47787270672E+02  0.19999998301E+02 0.  0.
        -12    1    1    2    0    0 -0.29598658064E+02  0.25325691952E+02 -0.19135100579E+02  0.43400729328E+02  0.00000000000E+00 0.  1.
         11    1    3    3    0    0  0.12918204627E+02 -0.10663180496E+02  0.13764287332E+02  0.21680383648E+02  0.51100000000E-03 0. -1.
        -11    1    3    3    0    0  0.83164566763E+01 -0.72088598729E+00 -0.14559817390E+01  0.84736657558E+01  0.51100000000E-03 0.  1.
        -12    1    3    3    0    0  0.83639967603E+01 -0.13941625469E+02  0.68267949861E+01  0.17633221268E+02  0.00000000000E+00 0.  1.
</event>
<event>
 7    1  0.2834226E-010  0.4778727E+02  0.7816164E-02  0.1312668E+00
        -11   -1    0    0    0    0  0.00000000000E+00  0.00000000000E+00  0.45593999997E+02  0.45594000000E+02  0.51100000000E-03 0. -1.
         11   -1    0    0    0    0 -0.00000000000E+00 -0.00000000000E+00 -0.45593999997E+02  0.45594000000E+02  0.51100000000E-03 0.  1.
    9900012    2    1    2    0    0  0.65499541521E+01  0.37202915239E+02  0.21369707687E+02  0.47787271799E+02  0.20000003442E+02 0.  0.
        -12    1    1    2    0    0 -0.65499541521E+01 -0.37202915239E+02 -0.21369707687E+02  0.43400728201E+02  0.00000000000E+00 0.  1.
         11    1    3    3    0    0 -0.44626182435E+01  0.14570985436E+02  0.26226909388E+01  0.15463087860E+02  0.51100000000E-03 0. -1.
        -11    1    3    3    0    0 -0.94042190118E+00  0.20846891147E+01  0.31514368198E+01  0.38938254130E+01  0.51100000000E-03 0.  1.
         12    1    3    3    0    0  0.11952994297E+02  0.20547240689E+02  0.15595579929E+02  0.28430358526E+02  0.00000000000E+00 0. -1.
</event>
<event>
 7    1  0.2834226E-010  0.4778727E+02  0.7816164E-02  0.1312668E+00
        -11   -1    0    0    0    0  0.00000000000E+00  0.00000000000E+00  0.45593999997E+02  0.45594000000E+02  0.51100000000E-03 0.  1.
         11   -1    0    0    0    0 -0.00000000000E+00 -0.00000000000E+00 -0.45593999997E+02  0.45594000000E+02  0.51100000000E-03 0. -1.
    9900012    2    1    2    0    0  0.49212777283E+01 -0.14859558703E+02 -0.40479597630E+02  0.47787270932E+02  0.19999999490E+02 0.  0.
        -12    1    1    2    0    0 -0.49212777283E+01  0.14859558703E+02  0.40479597630E+02  0.43400729068E+02  0.00000000000E+00 0.  1.
         11    1    3    3    0    0 -0.59816861547E+01 -0.89115940129E-01 -0.81935608213E+01  0.10145094879E+02  0.51100000000E-03 0. -1.
        -11    1    3    3    0    0  0.45967703164E+01 -0.55923363751E+01 -0.72697404699E+01  0.10259320164E+02  0.51100000000E-03 0.  1.
         12    1    3    3    0    0  0.63061935666E+01 -0.91781063873E+01 -0.25016296339E+02  0.27382855889E+02  0.00000000000E+00 0. -1.
</event>
<event>
 7    1  0.2834226E-010  0.4778727E+02  0.7816164E-02  0.1312668E+00
        -11   -1    0    0    0    0  0.00000000000E+00  0.00000000000E+00  0.45593999997E+02  0.45594000000E+02  0.51100000000E-03 0.  1.
         11   -1    0    0    0    0 -0.00000000000E+00 -0.00000000000E+00 -0.45593999997E+02  0.45594000000E+02  0.51100000000E-03 0. -1.
    9900012    2    1    2    0    0  0.22566196449E+02  0.28470390393E+02 -0.23745040451E+02  0.47787270774E+02  0.19999998767E+02 0.  0.
        -12    1    1    2    0    0 -0.22566196449E+02 -0.28470390393E+02  0.23745040451E+02  0.43400729226E+02  0.00000000000E+00 0.  1.
         11    1    3    3    0    0  0.69616372493E+01  0.82471419006E+01 -0.12770061995E+02  0.16719875189E+02  0.51100000000E-03 0. -1.
        -11    1    3    3    0    0  0.14829983630E+02  0.21111919196E+02 -0.67322289451E+01  0.26663916693E+02  0.51100000000E-03 0.  1.
        -12    1    3    3    0    0  0.77457556937E+00 -0.88867070337E+00 -0.42427495114E+01  0.44034788915E+01  0.00000000000E+00 0.  1.
</event>
<event>
 7    1  0.2834226E-010  0.4778726E+02  0.7816164E-02  0.1312668E+00
        -11   -1    0    0    0    0  0.00000000000E+00  0.00000000000E+00  0.45593999997E+02  0.45594000000E+02  0.51100000000E-03 0.  1.
         11   -1    0    0    0    0 -0.00000000000E+00 -0.00000000000E+00 -0.45593999997E+02  0.45594000000E+02  0.51100000000E-03 0. -1.
    9900012    2    1    2    0    0 -0.35034348207E+02  0.25211837903E+02 -0.45367601727E+01  0.47787256716E+02  0.19999934669E+02 0.  0.
        -12    1    1    2    0    0  0.35034348207E+02 -0.25211837903E+02  0.45367601727E+01  0.43400743284E+02  0.00000000000E+00 0.  1.
         11    1    3    3    0    0 -0.65070178618E+00  0.43311599225E+00  0.26697115859E+01  0.27817912377E+01  0.51100000000E-03 0. -1.
        -11    1    3    3    0    0 -0.31647866616E+01  0.88021376012E+01 -0.16671488894E+01  0.95012044839E+01  0.51100000000E-03 0.  1.
         12    1    3    3    0    0 -0.31218859759E+02  0.15976584310E+02 -0.55393228692E+01  0.35504260994E+02  0.00000000000E+00 0. -1.
</event>
<event>
 7    1  0.2834226E-010  0.4778727E+02  0.7816164E-02  0.1312668E+00
        -11   -1    0    0    0    0  0.00000000000E+00  0.00000000000E+00  0.45593999997E+02  0.45594000000E+02  0.51100000000E-03 0.  1.
         11   -1    0    0    0    0 -0.00000000000E+00 -0.00000000000E+00 -0.45593999997E+02  0.45594000000E+02  0.51100000000E-03 0. -1.
    9900012    2    1    2    0    0  0.19304647848E+02  0.75755135321E+01 -0.38125655336E+02  0.47787269261E+02  0.19999991870E+02 0.  0.
        -12    1    1    2    0    0 -0.19304647848E+02 -0.75755135321E+01  0.38125655336E+02  0.43400730739E+02  0.00000000000E+00 0.  1.
         11    1    3    3    0    0 -0.58666398138E+00 -0.50780905630E+01 -0.65527786838E+01  0.83108415418E+01  0.51100000000E-03 0. -1.
        -11    1    3    3    0    0  0.31677816664E+01  0.29754011910E+01 -0.50685300854E+01  0.66766646180E+01  0.51100000000E-03 0.  1.
         12    1    3    3    0    0  0.16723530163E+02  0.96782029041E+01 -0.26504346567E+02  0.32799763102E+02  0.00000000000E+00 0. -1.
</event>
<event>
 7    1  0.2834226E-010  0.4778727E+02  0.7816164E-02  0.1312668E+00
        -11   -1    0    0    0    0  0.00000000000E+00  0.00000000000E+00  0.45593999997E+02  0.45594000000E+02  0.51100000000E-03 0. -1.
         11   -1    0    0    0    0 -0.00000000000E+00 -0.00000000000E+00 -0.45593999997E+02  0.45594000000E+02  0.51100000000E-03 0.  1.
    9900012    2    1    2    0    0  0.89886188856E+01 -0.39127950152E+02  0.16487317770E+02  0.47787269593E+02  0.19999993384E+02 0.  0.
        -12    1    1    2    0    0 -0.89886188856E+01  0.39127950152E+02 -0.16487317770E+02  0.43400730407E+02  0.00000000000E+00 0.  1.
         11    1    3    3    0    0  0.43155773398E+01 -0.73077091553E+01  0.44334712830E+01  0.95750973234E+01  0.51100000000E-03 0. -1.
        -11    1    3    3    0    0  0.17802816062E+01 -0.16450232171E+02  0.14957737883E+02  0.22305009839E+02  0.51100000000E-03 0.  1.
        -12    1    3    3    0    0  0.28927599396E+01 -0.15370008826E+02 -0.29038913957E+01  0.15907162431E+02  0.00000000000E+00 0.  1.
</event>
<event>
 7    1  0.2834226E-010  0.4778727E+02  0.7816164E-02  0.1312668E+00
        -11   -1    0    0    0    0  0.00000000000E+00  0.00000000000E+00  0.45593999997E+02  0.45594000000E+02  0.51100000000E-03 0.  1.
         11   -1    0    0    0    0 -0.00000000000E+00 -0.00000000000E+00 -0.45593999997E+02  0.45594000000E+02  0.51100000000E-03 0. -1.
    9900012    2    1    2    0    0 -0.25261185703E+02 -0.24366246642E+02 -0.25530012851E+02  0.47787273799E+02  0.20000012561E+02 0.  0.
        -12    1    1    2    0    0  0.25261185703E+02  0.24366246642E+02  0.25530012851E+02  0.43400726201E+02  0.00000000000E+00 0.  1.
         11    1    3    3    0    0 -0.10762458366E+02 -0.98720713422E+01 -0.77952657461E+01  0.16554590631E+02  0.51100000000E-03 0. -1.
        -11    1    3    3    0    0 -0.70733288704E+01 -0.14166356116E+02 -0.52111175296E+01  0.16669534279E+02  0.51100000000E-03 0.  1.
        -12    1    3    3    0    0 -0.74253984671E+01 -0.32781918364E+00 -0.12523629575E+02  0.14563148889E+02  0.00000000000E+00 0.  1.
</event>
<event>
 7    1  0.2834226E-010  0.4778727E+02  0.7816164E-02  0.1312668E+00
        -11   -1    0    0    0    0  0.00000000000E+00  0.00000000000E+00  0.45593999997E+02  0.45594000000E+02  0.51100000000E-03 0.  1.
         11   -1    0    0    0    0 -0.00000000000E+00 -0.00000000000E+00 -0.45593999997E+02  0.45594000000E+02  0.51100000000E-03 0. -1.
    9900012    2    1    2    0    0 -0.34828414075E+02  0.25801789840E+02  0.22073577653E+01  0.47787271731E+02  0.20000003132E+02 0.  0.
        -12    1    1    2    0    0  0.34828414075E+02 -0.25801789840E+02 -0.22073577653E+01  0.43400728269E+02  0.00000000000E+00 0.  1.
         11    1    3    3    0    0  0.91023836877E+00 -0.88840633228E+00 -0.15778895185E+01  0.20267055269E+01  0.51100000000E-03 0.  1.
        -11    1    3    3    0    0 -0.20581112108E+02  0.13819258490E+02  0.66590896884E+01  0.25668999914E+02  0.51100000000E-03 0. -1.
         12    1    3    3    0    0 -0.15157540336E+02  0.12870937682E+02 -0.28738424046E+01  0.20091566291E+02  0.00000000000E+00 0. -1.
</event>
