<event>
 8    1  0.4798632E-010  0.9118800E+02  0.7816164E-02  0.1184000E+00
        -11   -1    0    0    0    0  0.00000000000E+00  0.00000000000E+00  0.45593999997E+02  0.45594000000E+02  0.51100000000E-03 0. -1.
         11   -1    0    0    0    0 -0.00000000000E+00 -0.00000000000E+00 -0.45593999997E+02  0.45594000000E+02  0.51100000000E-03 0.  1.
         23    2    1    2    0    0 -0.35527136788E-14  0.00000000000E+00  0.71054273576E-14  0.91188000000E+02  0.91188000000E+02 0.  0.
    9900012    2    3    3    0    0  0.19944658779E+02  0.19057440563E+02 -0.33505937376E+02  0.47787270812E+02  0.19999998938E+02 0.  0.
         12    1    3    3    0    0 -0.19944658779E+02 -0.19057440563E+02  0.33505937376E+02  0.43400729188E+02  0.00000000000E+00 0. -1.
         11    1    4    4    0    0 -0.19505371204E+01  0.27557265710E+01 -0.21037659419E-01  0.33762504108E+01  0.51100000000E-03 0. -1.
        -11    1    4    4    0    0  0.14466577347E+02  0.15810741204E+02 -0.21906347468E+02  0.30645545470E+02  0.51100000000E-03 0.  1.
         12    1    4    4    0    0  0.74286185529E+01  0.49097278891E+00 -0.11578552249E+02  0.13765474930E+02  0.00000000000E+00 0. -1.
</event>
<event>
 8    1  0.4798632E-010  0.9118800E+02  0.7816164E-02  0.1184000E+00
        -11   -1    0    0    0    0  0.00000000000E+00  0.00000000000E+00  0.45593999997E+02  0.45594000000E+02  0.51100000000E-03 0. -1.
         11   -1    0    0    0    0 -0.00000000000E+00 -0.00000000000E+00 -0.45593999997E+02  0.45594000000E+02  0.51100000000E-03 0.  1.
         23    2    1    2    0    0  0.00000000000E+00  0.00000000000E+00  0.00000000000E+00  0.91188000000E+02  0.91188000000E+02 0.  0.
    9900012    2    3    3    0    0  0.81371405924E+01  0.24206177259E+02 -0.35092321614E+02  0.47787272924E+02  0.20000008569E+02 0.  0.
         12    1    3    3    0    0 -0.81371405924E+01 -0.24206177259E+02  0.35092321614E+02  0.43400727076E+02  0.00000000000E+00 0. -1.
         11    1    4    4    0    0  0.47418058270E+01  0.62897002035E+01 -0.17402271412E+02  0.19101939737E+02  0.51100000000E-03 0. -1.
        -11    1    4    4    0    0  0.54046929679E+01  0.75516632906E+01 -0.15739520764E+01  0.94188985519E+01  0.51100000000E-03 0.  1.
        -12    1    4    4    0    0 -0.20093582025E+01  0.10364813764E+02 -0.16116098126E+02  0.19266434635E+02  0.00000000000E+00 0.  1.
</event>
<event>
 8    1  0.4798632E-010  0.9118800E+02  0.7816164E-02  0.1184000E+00
        -11   -1    0    0    0    0  0.00000000000E+00  0.00000000000E+00  0.45593999997E+02  0.45594000000E+02  0.51100000000E-03 0. -1.
         11   -1    0    0    0    0 -0.00000000000E+00 -0.00000000000E+00 -0.45593999997E+02  0.45594000000E+02  0.51100000000E-03 0.  1.
         23    2    1    2    0    0 -0.17763568394E-14  0.00000000000E+00 -0.35527136788E-14  0.91188000000E+02  0.91188000000E+02 0.  0.
    9900012    2    3    3    0    0  0.12383870559E+02  0.39740389705E+02  0.12286733078E+02  0.47787278420E+02  0.20000033628E+02 0.  0.
        -12    1    3    3    0    0 -0.12383870559E+02 -0.39740389705E+02 -0.12286733078E+02  0.43400721580E+02  0.00000000000E+00 0.  1.
         11    1    4    4    0    0  0.14681050860E+01  0.11967083821E+01  0.70320179902E+01  0.72826314455E+01  0.51100000000E-03 0.  1.
        -11    1    4    4    0    0  0.38866658992E+01  0.18638825022E+02  0.19756548276E+01  0.19141974357E+02  0.51100000000E-03 0. -1.
        -12    1    4    4    0    0  0.70290995736E+01  0.19904856301E+02  0.32790602603E+01  0.21362672617E+02  0.00000000000E+00 0.  1.
</event>
<event>
 8    1  0.4798632E-010  0.9118800E+02  0.7816164E-02  0.1184000E+00
        -11   -1    0    0    0    0  0.00000000000E+00  0.00000000000E+00  0.45593999997E+02  0.45594000000E+02  0.51100000000E-03 0. -1.
         11   -1    0    0    0    0 -0.00000000000E+00 -0.00000000000E+00 -0.45593999997E+02  0.45594000000E+02  0.51100000000E-03 0.  1.
         23    2    1    2    0    0 -0.35527136788E-14 -0.44408920985E-15  0.00000000000E+00  0.91188000000E+02  0.91188000000E+02 0.  0.
    9900012    2    3    3    0    0 -0.24799514047E+02  0.33080784880E+00  0.35615989788E+02  0.47787261995E+02  0.19999958741E+02 0.  0.
        -12    1    3    3    0    0  0.24799514047E+02 -0.33080784880E+00 -0.35615989788E+02  0.43400738005E+02  0.00000000000E+00 0.  1.
         11    1    4    4    0    0 -0.24569246688E+02 -0.39359670760E+01  0.24166003502E+02  0.34686242881E+02  0.51100000000E-03 0. -1.
        -11    1    4    4    0    0  0.22273523097E+01  0.21571456830E+01  0.62045697207E+01  0.69362137719E+01  0.51100000000E-03 0.  1.
         12    1    4    4    0    0 -0.24576196681E+01  0.21096292418E+01  0.52454165653E+01  0.61648053427E+01  0.00000000000E+00 0. -1.
</event>
<event>
 8    1  0.4798632E-010  0.9118800E+02  0.7816164E-02  0.1184000E+00
        -11   -1    0    0    0    0  0.00000000000E+00  0.00000000000E+00  0.45593999997E+02  0.45594000000E+02  0.51100000000E-03 0.  1.
         11   -1    0    0    0    0 -0.00000000000E+00 -0.00000000000E+00 -0.45593999997E+02  0.45594000000E+02  0.51100000000E-03 0. -1.
         23    2    1    2    0    0  0.00000000000E+00  0.00000000000E+00  0.00000000000E+00  0.91188000000E+02  0.91188000000E+02 0.  0.
    9900012    2    3    3    0    0 -0.25482596343E+02  0.28010979013E+02  0.21204813837E+02  0.47787288122E+02  0.20000077863E+02 0.  0.
        -12    1    3    3    0    0  0.25482596343E+02 -0.28010979013E+02 -0.21204813837E+02  0.43400711878E+02  0.00000000000E+00 0.  1.
         11    1    4    4    0    0 -0.12571551180E+02  0.21477283509E+02  0.12074350782E+02  0.27660577598E+02  0.51100000000E-03 0. -1.
        -11    1    4    4    0    0 -0.78349582726E+01  0.12593299541E+01  0.99877388994E+01  0.12756465484E+02  0.51100000000E-03 0.  1.
        -12    1    4    4    0    0 -0.50760868908E+01  0.52743655498E+01 -0.85727584376E+00  0.73702450400E+01  0.00000000000E+00 0.  1.
</event>
<event>
 8    1  0.4798632E-010  0.9118800E+02  0.7816164E-02  0.1184000E+00
        -11   -1    0    0    0    0  0.00000000000E+00  0.00000000000E+00  0.45593999997E+02  0.45594000000E+02  0.51100000000E-03 0. -1.
         11   -1    0    0    0    0 -0.00000000000E+00 -0.00000000000E+00 -0.45593999997E+02  0.45594000000E+02  0.51100000000E-03 0.  1.
         23    2    1    2    0    0  0.00000000000E+00  0.00000000000E+00 -0.71054273576E-14  0.91188000000E+02  0.91188000000E+02 0.  0.
    9900012    2    3    3    0    0  0.14312441134E+01 -0.13847446556E+02  0.41107457101E+02  0.47787271145E+02  0.20000000458E+02 0.  0.
        -12    1    3    3    0    0 -0.14312441134E+01  0.13847446556E+02 -0.41107457101E+02  0.43400728855E+02  0.00000000000E+00 0.  1.
         11    1    4    4    0    0  0.51060053452E+01 -0.97518578522E+01  0.32337259662E+02  0.34159455277E+02  0.51100000000E-03 0. -1.
        -11    1    4    4    0    0 -0.10757401043E+01 -0.36118150667E+00 -0.17955614879E+01  0.21240786640E+01  0.51100000000E-03 0.  1.
         12    1    4    4    0    0 -0.25990211276E+01 -0.37344071972E+01  0.10565758928E+02  0.11503737204E+02  0.00000000000E+00 0. -1.
</event>
<event>
 8    1  0.4798632E-010  0.9118800E+02  0.7816164E-02  0.1184000E+00
        -11   -1    0    0    0    0  0.00000000000E+00  0.00000000000E+00  0.45593999997E+02  0.45594000000E+02  0.51100000000E-03 0. -1.
         11   -1    0    0    0    0 -0.00000000000E+00 -0.00000000000E+00 -0.45593999997E+02  0.45594000000E+02  0.51100000000E-03 0.  1.
         23    2    1    2    0    0  0.00000000000E+00 -0.17763568394E-14 -0.71054273576E-14  0.91188000000E+02  0.91188000000E+02 0.  0.
    9900012    2    3    3    0    0 -0.19286985191E+02 -0.71564986518E+01 -0.38215489653E+02  0.47787229038E+02  0.19999808473E+02 0.  0.
         12    1    3    3    0    0  0.19286985191E+02  0.71564986518E+01  0.38215489653E+02  0.43400770962E+02  0.00000000000E+00 0. -1.
         11    1    4    4    0    0 -0.27568002952E+01 -0.42679237861E+01  0.53799008652E+00  0.51092616791E+01  0.51100000000E-03 0. -1.
        -11    1    4    4    0    0 -0.12756529573E+02 -0.24664740996E+01 -0.35021017368E+02  0.37353503169E+02  0.51100000000E-03 0.  1.
        -12    1    4    4    0    0 -0.37736553223E+01 -0.42210076608E+00 -0.37324623715E+01  0.53244641893E+01  0.00000000000E+00 0.  1.
</event>
<event>
 8    1  0.4798632E-010  0.9118800E+02  0.7816164E-02  0.1184000E+00
        -11   -1    0    0    0    0  0.00000000000E+00  0.00000000000E+00  0.45593999997E+02  0.45594000000E+02  0.51100000000E-03 0. -1.
         11   -1    0    0    0    0 -0.00000000000E+00 -0.00000000000E+00 -0.45593999997E+02  0.45594000000E+02  0.51100000000E-03 0.  1.
         23    2    1    2    0    0 -0.35527136788E-14  0.88817841970E-15 -0.35527136788E-14  0.91188000000E+02  0.91188000000E+02 0.  0.
    9900012    2    3    3    0    0 -0.30856168610E+02  0.61862984148E+01  0.29887278556E+02  0.47787275941E+02  0.20000022324E+02 0.  0.
        -12    1    3    3    0    0  0.30856168610E+02 -0.61862984148E+01 -0.29887278556E+02  0.43400724059E+02  0.00000000000E+00 0.  1.
         11    1    4    4    0    0 -0.32212941315E+02  0.79402111863E+01  0.24684304438E+02  0.41352574620E+02  0.51100000000E-03 0. -1.
        -11    1    4    4    0    0  0.22824583576E+00 -0.13719478438E+01  0.50445921623E+01  0.52328049259E+01  0.51100000000E-03 0.  1.
         12    1    4    4    0    0  0.11285268691E+01 -0.38196492773E+00  0.15838195605E+00  0.12018963950E+01  0.00000000000E+00 0. -1.
</event>
<event>
 8    1  0.4798632E-010  0.9118800E+02  0.7816164E-02  0.1184000E+00
        -11   -1    0    0    0    0  0.00000000000E+00  0.00000000000E+00  0.45593999997E+02  0.45594000000E+02  0.51100000000E-03 0. -1.
         11   -1    0    0    0    0 -0.00000000000E+00 -0.00000000000E+00 -0.45593999997E+02  0.45594000000E+02  0.51100000000E-03 0.  1.
         23    2    1    2    0    0  0.00000000000E+00  0.00000000000E+00  0.00000000000E+00  0.91188000000E+02  0.91188000000E+02 0.  0.
    9900012    2    3    3    0    0  0.18944284481E+02  0.19281983145E+02  0.33955003053E+02  0.47787273960E+02  0.20000013292E+02 0.  0.
        -12    1    3    3    0    0 -0.18944284481E+02 -0.19281983145E+02 -0.33955003053E+02  0.43400726040E+02  0.00000000000E+00 0.  1.
         11    1    4    4    0    0  0.90742156394E+01  0.10130288948E+02  0.14401419031E+02  0.19808205724E+02  0.51100000000E-03 0. -1.
        -11    1    4    4    0    0  0.19679254380E+01  0.89683645906E+01  0.30411150595E+01  0.96722631801E+01  0.51100000000E-03 0.  1.
        -12    1    4    4    0    0  0.79021434036E+01  0.18332960640E+00  0.16512468962E+02  0.18306805055E+02  0.00000000000E+00 0.  1.
</event>
<event>
 8    1  0.4798632E-010  0.9118800E+02  0.7816164E-02  0.1184000E+00
        -11   -1    0    0    0    0  0.00000000000E+00  0.00000000000E+00  0.45593999997E+02  0.45594000000E+02  0.51100000000E-03 0. -1.
         11   -1    0    0    0    0 -0.00000000000E+00 -0.00000000000E+00 -0.45593999997E+02  0.45594000000E+02  0.51100000000E-03 0.  1.
         23    2    1    2    0    0  0.00000000000E+00  0.00000000000E+00 -0.35527136788E-14  0.91188000000E+02  0.91188000000E+02 0.  0.
    9900012    2    3    3    0    0  0.25915177874E+02 -0.24773388856E+02 -0.24460296553E+02  0.47787270200E+02  0.19999996151E+02 0.  0.
         12    1    3    3    0    0 -0.25915177874E+02  0.24773388856E+02  0.24460296553E+02  0.43400729800E+02  0.00000000000E+00 0. -1.
         11    1    4    4    0    0  0.67441801268E+01 -0.87777943388E+01 -0.50534254212E+00  0.11081020277E+02  0.51100000000E-03 0. -1.
        -11    1    4    4    0    0  0.11414028655E+02 -0.24242118203E+01 -0.68338079035E+01  0.13522491775E+02  0.51100000000E-03 0.  1.
         12    1    4    4    0    0  0.77569690917E+01 -0.13571382697E+02 -0.17121146108E+02  0.23183758148E+02  0.00000000000E+00 0. -1.
</event>
<event>
 8    1  0.4798632E-010  0.9118800E+02  0.7816164E-02  0.1184000E+00
        -11   -1    0    0    0    0  0.00000000000E+00  0.00000000000E+00  0.45593999997E+02  0.45594000000E+02  0.51100000000E-03 0. -1.
         11   -1    0    0    0    0 -0.00000000000E+00 -0.00000000000E+00 -0.45593999997E+02  0.45594000000E+02  0.51100000000E-03 0.  1.
         23    2    1    2    0    0  0.00000000000E+00 -0.17763568394E-14  0.00000000000E+00  0.91188000000E+02  0.91188000000E+02 0.  0.
    9900012    2    3    3    0    0  0.79281048354E+01 -0.92085599242E+01  0.41664979461E+02  0.47787274941E+02  0.20000017768E+02 0.  0.
        -12    1    3    3    0    0 -0.79281048354E+01  0.92085599242E+01 -0.41664979461E+02  0.43400725059E+02  0.00000000000E+00 0.  1.
         11    1    4    4    0    0 -0.28053193568E+01  0.43247311476E+01  0.10608821256E+02  0.11794922844E+02  0.51100000000E-03 0. -1.
        -11    1    4    4    0    0  0.10388447844E+02 -0.12350926661E+02  0.30742669767E+02  0.34721419652E+02  0.51100000000E-03 0.  1.
        -12    1    4    4    0    0  0.34497634840E+00 -0.11823644106E+01  0.31348843784E+00  0.12709324455E+01  0.00000000000E+00 0.  1.
</event>
<event>
 8    1  0.4798632E-010  0.9118800E+02  0.7816164E-02  0.1184000E+00
        -11   -1    0    0    0    0  0.00000000000E+00  0.00000000000E+00  0.45593999997E+02  0.45594000000E+02  0.51100000000E-03 0. -1.
         11   -1    0    0    0    0 -0.00000000000E+00 -0.00000000000E+00 -0.45593999997E+02  0.45594000000E+02  0.51100000000E-03 0.  1.
         23    2    1    2    0    0  0.35527136788E-14  0.00000000000E+00  0.00000000000E+00  0.91188000000E+02  0.91188000000E+02 0.  0.
    9900012    2    3    3    0    0 -0.16056369487E+02 -0.54145358910E+01  0.39956214714E+02  0.47787270809E+02  0.19999998928E+02 0.  0.
        -12    1    3    3    0    0  0.16056369487E+02  0.54145358910E+01 -0.39956214714E+02  0.43400729191E+02  0.00000000000E+00 0.  1.
         11    1    4    4    0    0 -0.27051633067E+01 -0.67762893842E+01  0.30124939065E+02  0.30995934577E+02  0.51100000000E-03 0. -1.
        -11    1    4    4    0    0 -0.10139168916E+02  0.20060706756E+01  0.75305474138E+01  0.12788127716E+02  0.51100000000E-03 0.  1.
         12    1    4    4    0    0 -0.32120372649E+01 -0.64431718232E+00  0.23007282347E+01  0.40032085173E+01  0.00000000000E+00 0. -1.
</event>
<event>
 8    1  0.4879846E-010  0.9118800E+02  0.7816164E-02  0.1184000E+00
        -11   -1    0    0    0    0  0.00000000000E+00  0.00000000000E+00  0.45593999997E+02  0.45594000000E+02  0.51100000000E-03 0. -1.
         11   -1    0    0    0    0 -0.00000000000E+00 -0.00000000000E+00 -0.45593999997E+02  0.45594000000E+02  0.51100000000E-03 0.  1.
         23    2    1    2    0    0  0.66613381478E-15  0.00000000000E+00  0.00000000000E+00  0.91188000000E+02  0.91188000000E+02 0.  0.
    9900012    2    3    3    0    0  0.15822415023E+01 -0.27139896986E+02 -0.33831134666E+02  0.47787272248E+02  0.20000005489E+02 0.  0.
         12    1    3    3    0    0 -0.15822415023E+01  0.27139896986E+02  0.33831134666E+02  0.43400727752E+02  0.00000000000E+00 0. -1.
         11    1    4    4    0    0 -0.22641715975E+01 -0.27991574105E+01  0.30299112210E+00  0.36129709538E+01  0.51100000000E-03 0. -1.
        -11    1    4    4    0    0  0.85526381982E+01 -0.16578231331E+02 -0.19765168821E+02  0.27178066028E+02  0.51100000000E-03 0.  1.
        -12    1    4    4    0    0 -0.47062250984E+01 -0.77625082439E+01 -0.14368956967E+02  0.16996235266E+02  0.00000000000E+00 0.  1.
</event>
<event>
 8    1  0.4798632E-010  0.9118800E+02  0.7816164E-02  0.1184000E+00
        -11   -1    0    0    0    0  0.00000000000E+00  0.00000000000E+00  0.45593999997E+02  0.45594000000E+02  0.51100000000E-03 0. -1.
         11   -1    0    0    0    0 -0.00000000000E+00 -0.00000000000E+00 -0.45593999997E+02  0.45594000000E+02  0.51100000000E-03 0.  1.
         23    2    1    2    0    0  0.00000000000E+00  0.00000000000E+00  0.00000000000E+00  0.91188000000E+02  0.91188000000E+02 0.  0.
    9900012    2    3    3    0    0 -0.14915647513E+02  0.34382600394E+02 -0.21885692358E+02  0.47787270967E+02  0.19999999648E+02 0.  0.
         12    1    3    3    0    0  0.14915647513E+02 -0.34382600394E+02  0.21885692358E+02  0.43400729033E+02  0.00000000000E+00 0. -1.
         11    1    4    4    0    0 -0.32776375640E+01  0.11948613083E+01 -0.41215710439E+01  0.53998101520E+01  0.51100000000E-03 0. -1.
        -11    1    4    4    0    0 -0.10430864746E+02  0.19080402288E+02 -0.17996659486E+02  0.28226661930E+02  0.51100000000E-03 0.  1.
        -12    1    4    4    0    0 -0.12071452029E+01  0.14107336797E+02  0.23253817111E+00  0.14160798885E+02  0.00000000000E+00 0.  1.
</event>
<event>
 8    1  0.4798632E-010  0.9118800E+02  0.7816164E-02  0.1184000E+00
        -11   -1    0    0    0    0  0.00000000000E+00  0.00000000000E+00  0.45593999997E+02  0.45594000000E+02  0.51100000000E-03 0. -1.
         11   -1    0    0    0    0 -0.00000000000E+00 -0.00000000000E+00 -0.45593999997E+02  0.45594000000E+02  0.51100000000E-03 0.  1.
         23    2    1    2    0    0 -0.44408920985E-15  0.88817841970E-15  0.00000000000E+00  0.91188000000E+02  0.91188000000E+02 0.  0.
    9900012    2    3    3    0    0  0.29377709890E+01 -0.43951776521E+01  0.43077582665E+02  0.47787237182E+02  0.19999845605E+02 0.  0.
        -12    1    3    3    0    0 -0.29377709890E+01  0.43951776521E+01 -0.43077582665E+02  0.43400762818E+02  0.00000000000E+00 0.  1.
         11    1    4    4    0    0  0.53962148122E+01  0.47181267797E+01  0.12222406338E+02  0.14169229745E+02  0.51100000000E-03 0. -1.
        -11    1    4    4    0    0 -0.10827586181E+01  0.14022996618E+01  0.12434699534E+01  0.21644926317E+01  0.51100000000E-03 0.  1.
         12    1    4    4    0    0 -0.13756852051E+01 -0.10515604094E+02  0.29611706374E+02  0.31453514805E+02  0.00000000000E+00 0. -1.
</event>
<event>
 8    1  0.4798632E-010  0.9118800E+02  0.7816164E-02  0.1184000E+00
        -11   -1    0    0    0    0  0.00000000000E+00  0.00000000000E+00  0.45593999997E+02  0.45594000000E+02  0.51100000000E-03 0. -1.
         11   -1    0    0    0    0 -0.00000000000E+00 -0.00000000000E+00 -0.45593999997E+02  0.45594000000E+02  0.51100000000E-03 0.  1.
         23    2    1    2    0    0  0.35527136788E-14 -0.44408920985E-15  0.00000000000E+00  0.91188000000E+02  0.91188000000E+02 0.  0.
    9900012    2    3    3    0    0 -0.18210502133E+02  0.19364793674E+01  0.39347819967E+02  0.47787271015E+02  0.19999999864E+02 0.  0.
        -12    1    3    3    0    0  0.18210502133E+02 -0.19364793674E+01 -0.39347819967E+02  0.43400728985E+02  0.00000000000E+00 0.  1.
         11    1    4    4    0    0  0.19899295535E+01 -0.18915038282E+01  0.15784828885E+02  0.16021811057E+02  0.51100000000E-03 0. -1.
        -11    1    4    4    0    0 -0.92574195008E+01  0.10361622161E+00  0.71847732200E+01  0.11718853127E+02  0.51100000000E-03 0.  1.
         12    1    4    4    0    0 -0.10943012186E+02  0.37243669740E+01  0.16378217863E+02  0.20046606830E+02  0.00000000000E+00 0. -1.
</event>
<event>
 8    1  0.4798632E-010  0.9118800E+02  0.7816164E-02  0.1184000E+00
        -11   -1    0    0    0    0  0.00000000000E+00  0.00000000000E+00  0.45593999997E+02  0.45594000000E+02  0.51100000000E-03 0.  1.
         11   -1    0    0    0    0 -0.00000000000E+00 -0.00000000000E+00 -0.45593999997E+02  0.45594000000E+02  0.51100000000E-03 0. -1.
         23    2    1    2    0    0  0.00000000000E+00  0.00000000000E+00  0.00000000000E+00  0.91188000000E+02  0.91188000000E+02 0.  0.
    9900012    2    3    3    0    0 -0.25487071066E+01  0.43294282574E+02 -0.16530325137E+01  0.47787270420E+02  0.19999997155E+02 0.  0.
         12    1    3    3    0    0  0.25487071066E+01 -0.43294282574E+02  0.16530325137E+01  0.43400729580E+02  0.00000000000E+00 0. -1.
         11    1    4    4    0    0 -0.61234143297E+01  0.32439288038E+01 -0.66885648553E+00  0.69617990776E+01  0.51100000000E-03 0. -1.
        -11    1    4    4    0    0  0.15085956116E+01  0.32068790846E+02 -0.32685376917E+01  0.32270211433E+02  0.51100000000E-03 0.  1.
         12    1    4    4    0    0  0.20661116115E+01  0.79815629249E+01  0.22843616635E+01  0.85552599098E+01  0.00000000000E+00 0. -1.
</event>
<event>
 8    1  0.4798632E-010  0.9118800E+02  0.7816164E-02  0.1184000E+00
        -11   -1    0    0    0    0  0.00000000000E+00  0.00000000000E+00  0.45593999997E+02  0.45594000000E+02  0.51100000000E-03 0. -1.
         11   -1    0    0    0    0 -0.00000000000E+00 -0.00000000000E+00 -0.45593999997E+02  0.45594000000E+02  0.51100000000E-03 0.  1.
         23    2    1    2    0    0  0.00000000000E+00 -0.17763568394E-14 -0.35527136788E-14  0.91188000000E+02  0.91188000000E+02 0.  0.
    9900012    2    3    3    0    0 -0.36857302822E+02 -0.15740098745E+02 -0.16655681722E+02  0.47787271741E+02  0.20000003175E+02 0.  0.
         12    1    3    3    0    0  0.36857302822E+02  0.15740098745E+02  0.16655681722E+02  0.43400728259E+02  0.00000000000E+00 0. -1.
         11    1    4    4    0    0 -0.87191735366E+01 -0.90360925704E+01 -0.21957730571E+01  0.12747406626E+02  0.51100000000E-03 0. -1.
        -11    1    4    4    0    0 -0.17490268194E+02  0.24184655664E+01 -0.10174103895E+02  0.20378195394E+02  0.51100000000E-03 0.  1.
        -12    1    4    4    0    0 -0.10647861091E+02 -0.91224717413E+01 -0.42858047700E+01  0.14661669721E+02  0.00000000000E+00 0.  1.
</event>
<event>
 8    1  0.4798632E-010  0.9118800E+02  0.7816164E-02  0.1184000E+00
        -11   -1    0    0    0    0  0.00000000000E+00  0.00000000000E+00  0.45593999997E+02  0.45594000000E+02  0.51100000000E-03 0. -1.
         11   -1    0    0    0    0 -0.00000000000E+00 -0.00000000000E+00 -0.45593999997E+02  0.45594000000E+02  0.51100000000E-03 0.  1.
         23    2    1    2    0    0 -0.13322676296E-14  0.00000000000E+00  0.00000000000E+00  0.91188000000E+02  0.91188000000E+02 0.  0.
    9900012    2    3    3    0    0  0.16212211038E+01  0.17364207339E+02  0.39742663722E+02  0.47787269890E+02  0.19999994738E+02 0.  0.
        -12    1    3    3    0    0 -0.16212211038E+01 -0.17364207339E+02 -0.39742663722E+02  0.43400730110E+02  0.00000000000E+00 0.  1.
         11    1    4    4    0    0 -0.45310364772E+01  0.58500481573E+00  0.22724369644E+01  0.51025966145E+01  0.51100000000E-03 0. -1.
        -11    1    4    4    0    0  0.87715520624E+01  0.11555236620E+02  0.24797068129E+02  0.28729048139E+02  0.51100000000E-03 0.  1.
        -12    1    4    4    0    0 -0.26192944814E+01  0.52239659028E+01  0.12673158628E+02  0.13955625137E+02  0.00000000000E+00 0.  1.
</event>
<event>
 8    1  0.4798632E-010  0.9118800E+02  0.7816164E-02  0.1184000E+00
        -11   -1    0    0    0    0  0.00000000000E+00  0.00000000000E+00  0.45593999997E+02  0.45594000000E+02  0.51100000000E-03 0. -1.
         11   -1    0    0    0    0 -0.00000000000E+00 -0.00000000000E+00 -0.45593999997E+02  0.45594000000E+02  0.51100000000E-03 0.  1.
         23    2    1    2    0    0  0.88817841970E-15 -0.35527136788E-14  0.00000000000E+00  0.91188000000E+02  0.91188000000E+02 0.  0.
    9900012    2    3    3    0    0 -0.34591464924E+01 -0.24527005547E+02 -0.35638220387E+02  0.47787280560E+02  0.20000043385E+02 0.  0.
         12    1    3    3    0    0  0.34591464924E+01  0.24527005547E+02  0.35638220387E+02  0.43400719440E+02  0.00000000000E+00 0. -1.
         11    1    4    4    0    0  0.96358980746E+00 -0.85181717911E+01 -0.42981917163E+01  0.95896928143E+01  0.51100000000E-03 0. -1.
        -11    1    4    4    0    0 -0.85146398009E+01 -0.13488992203E+02 -0.28373707284E+02  0.32550257555E+02  0.51100000000E-03 0.  1.
        -12    1    4    4    0    0  0.40919035010E+01 -0.25198415534E+01 -0.29663213867E+01  0.56473301909E+01  0.00000000000E+00 0.  1.
</event>
<event>
 8    1  0.4798632E-010  0.9118800E+02  0.7816164E-02  0.1184000E+00
        -11   -1    0    0    0    0  0.00000000000E+00  0.00000000000E+00  0.45593999997E+02  0.45594000000E+02  0.51100000000E-03 0. -1.
         11   -1    0    0    0    0 -0.00000000000E+00 -0.00000000000E+00 -0.45593999997E+02  0.45594000000E+02  0.51100000000E-03 0.  1.
         23    2    1    2    0    0  0.00000000000E+00  0.35527136788E-14 -0.35527136788E-14  0.91188000000E+02  0.91188000000E+02 0.  0.
    9900012    2    3    3    0    0  0.21543925642E+02 -0.20197198350E+02 -0.31804958193E+02  0.47787275134E+02  0.20000018647E+02 0.  0.
         12    1    3    3    0    0 -0.21543925642E+02  0.20197198350E+02  0.31804958193E+02  0.43400724866E+02  0.00000000000E+00 0. -1.
         11    1    4    4    0    0  0.47355963963E+01 -0.90000379385E+01 -0.10577854637E+01  0.10224747746E+02  0.51100000000E-03 0. -1.
        -11    1    4    4    0    0  0.12921485304E+02 -0.51554852040E+01 -0.23806505793E+02  0.27573420689E+02  0.51100000000E-03 0.  1.
         12    1    4    4    0    0  0.38868439414E+01 -0.60416752073E+01 -0.69406669363E+01  0.99891066996E+01  0.00000000000E+00 0. -1.
</event>
<event>
 8    1  0.4798632E-010  0.9118800E+02  0.7816164E-02  0.1184000E+00
        -11   -1    0    0    0    0  0.00000000000E+00  0.00000000000E+00  0.45593999997E+02  0.45594000000E+02  0.51100000000E-03 0. -1.
         11   -1    0    0    0    0 -0.00000000000E+00 -0.00000000000E+00 -0.45593999997E+02  0.45594000000E+02  0.51100000000E-03 0.  1.
         23    2    1    2    0    0  0.00000000000E+00  0.17763568394E-14  0.00000000000E+00  0.91188000000E+02  0.91188000000E+02 0.  0.
    9900012    2    3    3    0    0 -0.11271190784E+02 -0.14759399246E+02 -0.39226823769E+02  0.47787270619E+02  0.19999998062E+02 0.  0.
         12    1    3    3    0    0  0.11271190784E+02  0.14759399246E+02  0.39226823769E+02  0.43400729381E+02  0.00000000000E+00 0. -1.
         11    1    4    4    0    0 -0.34736198229E+01 -0.11722872700E+02 -0.35057741797E+02  0.37128655230E+02  0.51100000000E-03 0.  1.
        -11    1    4    4    0    0 -0.24000436265E+01  0.14016686415E+01 -0.16398288653E+01  0.32270611023E+01  0.51100000000E-03 0. -1.
         12    1    4    4    0    0 -0.53975273343E+01 -0.44381951874E+01 -0.25292531068E+01  0.74315542872E+01  0.00000000000E+00 0. -1.
</event>
<event>
 8    1  0.4798632E-010  0.9118800E+02  0.7816164E-02  0.1184000E+00
        -11   -1    0    0    0    0  0.00000000000E+00  0.00000000000E+00  0.45593999997E+02  0.45594000000E+02  0.51100000000E-03 0. -1.
         11   -1    0    0    0    0 -0.00000000000E+00 -0.00000000000E+00 -0.45593999997E+02  0.45594000000E+02  0.51100000000E-03 0.  1.
         23    2    1    2    0    0 -0.17763568394E-14  0.00000000000E+00  0.00000000000E+00  0.91188000000E+02  0.91188000000E+02 0.  0.
    9900012    2    3    3    0    0 -0.92582749752E+01 -0.19276547277E+02  0.37766694635E+02  0.47787260904E+02  0.19999953765E+02 0.  0.
        -12    1    3    3    0    0  0.92582749752E+01  0.19276547277E+02 -0.37766694635E+02  0.43400739096E+02  0.00000000000E+00 0.  1.
         11    1    4    4    0    0  0.90458924197E+00 -0.32504186444E+01  0.24857180904E+01  0.41907395227E+01  0.51100000000E-03 0. -1.
        -11    1    4    4    0    0  0.39788167254E+01 -0.71233973482E+01  0.16826943969E+02  0.18700797200E+02  0.51100000000E-03 0.  1.
        -12    1    4    4    0    0 -0.14141680943E+02 -0.89027312841E+01  0.18454032576E+02  0.24895724181E+02  0.00000000000E+00 0.  1.
</event>
<event>
 8    1  0.4798632E-010  0.9118800E+02  0.7816164E-02  0.1184000E+00
        -11   -1    0    0    0    0  0.00000000000E+00  0.00000000000E+00  0.45593999997E+02  0.45594000000E+02  0.51100000000E-03 0.  1.
         11   -1    0    0    0    0 -0.00000000000E+00 -0.00000000000E+00 -0.45593999997E+02  0.45594000000E+02  0.51100000000E-03 0. -1.
         23    2    1    2    0    0 -0.35527136788E-14  0.71054273576E-14  0.00000000000E+00  0.91188000000E+02  0.91188000000E+02 0.  0.
    9900012    2    3    3    0    0  0.22946381310E+02 -0.32145755427E+02  0.17992698606E+02  0.47787271777E+02  0.20000003339E+02 0.  0.
        -12    1    3    3    0    0 -0.22946381310E+02  0.32145755427E+02 -0.17992698606E+02  0.43400728223E+02  0.00000000000E+00 0.  1.
         11    1    4    4    0    0  0.73473725854E+01 -0.21605005253E+02  0.61669449457E+01  0.23638767864E+02  0.51100000000E-03 0. -1.
        -11    1    4    4    0    0  0.10831302326E+02 -0.40155882480E+01  0.25197967523E+01  0.11823342801E+02  0.51100000000E-03 0.  1.
         12    1    4    4    0    0  0.47677063984E+01 -0.65251619254E+01  0.93059569082E+01  0.12325161112E+02  0.00000000000E+00 0. -1.
</event>
<event>
 8    1  0.4798632E-010  0.9118800E+02  0.7816164E-02  0.1184000E+00
        -11   -1    0    0    0    0  0.00000000000E+00  0.00000000000E+00  0.45593999997E+02  0.45594000000E+02  0.51100000000E-03 0. -1.
         11   -1    0    0    0    0 -0.00000000000E+00 -0.00000000000E+00 -0.45593999997E+02  0.45594000000E+02  0.51100000000E-03 0.  1.
         23    2    1    2    0    0  0.44408920985E-15 -0.88817841970E-15  0.00000000000E+00  0.91188000000E+02  0.91188000000E+02 0.  0.
    9900012    2    3    3    0    0  0.39575568480E+01 -0.75897997423E+01  0.42548293365E+02  0.47787255944E+02  0.19999931153E+02 0.  0.
        -12    1    3    3    0    0 -0.39575568480E+01  0.75897997423E+01 -0.42548293365E+02  0.43400744056E+02  0.00000000000E+00 0.  1.
         11    1    4    4    0    0 -0.54160905464E+01 -0.66680181349E+01  0.25353645984E+02  0.26769457738E+02  0.51100000000E-03 0. -1.
        -11    1    4    4    0    0  0.85894014571E+01 -0.18971843889E+01  0.17621825413E+02  0.19695325769E+02  0.51100000000E-03 0.  1.
         12    1    4    4    0    0  0.78424593735E+00  0.97540278156E+00 -0.42717803223E+00  0.13224724374E+01  0.00000000000E+00 0. -1.
</event>
<event>
 8    1  0.4798632E-010  0.9118800E+02  0.7816164E-02  0.1184000E+00
        -11   -1    0    0    0    0  0.00000000000E+00  0.00000000000E+00  0.45593999997E+02  0.45594000000E+02  0.51100000000E-03 0.  1.
         11   -1    0    0    0    0 -0.00000000000E+00 -0.00000000000E+00 -0.45593999997E+02  0.45594000000E+02  0.51100000000E-03 0. -1.
         23    2    1    2    0    0 -0.14210854715E-13  0.35527136788E-14  0.35527136788E-14  0.91188000000E+02  0.91188000000E+02 0.  0.
    9900012    2    3    3    0    0  0.37332717938E+02 -0.18010243077E+02 -0.12865565994E+02  0.47787268754E+02  0.19999989556E+02 0.  0.
        -12    1    3    3    0    0 -0.37332717938E+02  0.18010243077E+02  0.12865565994E+02  0.43400731246E+02  0.00000000000E+00 0.  1.
         11    1    4    4    0    0 -0.35651208187E+00 -0.29791521687E+01  0.13572801546E+01  0.32931228625E+01  0.51100000000E-03 0.  1.
        -11    1    4    4    0    0  0.34716415176E+02 -0.10908485875E+02 -0.14985336283E+02  0.39354603931E+02  0.51100000000E-03 0. -1.
         12    1    4    4    0    0  0.29728148442E+01 -0.41226050335E+01  0.76249013442E+00  0.51395419606E+01  0.00000000000E+00 0. -1.
</event>
<event>
 8    1  0.4926901E-010  0.9118800E+02  0.7816164E-02  0.1184000E+00
        -11   -1    0    0    0    0  0.00000000000E+00  0.00000000000E+00  0.45593999997E+02  0.45594000000E+02  0.51100000000E-03 0. -1.
         11   -1    0    0    0    0 -0.00000000000E+00 -0.00000000000E+00 -0.45593999997E+02  0.45594000000E+02  0.51100000000E-03 0.  1.
         23    2    1    2    0    0 -0.53290705182E-14  0.00000000000E+00  0.00000000000E+00  0.91188000000E+02  0.91188000000E+02 0.  0.
    9900012    2    3    3    0    0 -0.11663560873E+02 -0.14328021063E+02  0.39272034135E+02  0.47787268383E+02  0.19999987864E+02 0.  0.
        -12    1    3    3    0    0  0.11663560873E+02  0.14328021063E+02 -0.39272034135E+02  0.43400731617E+02  0.00000000000E+00 0.  1.
         11    1    4    4    0    0 -0.11399794923E+02 -0.92105916066E+01  0.25978844276E+02  0.29827682984E+02  0.51100000000E-03 0. -1.
        -11    1    4    4    0    0  0.46975765326E+01 -0.47698993624E+01  0.52707657048E+01  0.85205713766E+01  0.51100000000E-03 0.  1.
        -12    1    4    4    0    0 -0.49613424828E+01 -0.34753009350E+00  0.80224241544E+01  0.94390140222E+01  0.00000000000E+00 0.  1.
</event>
<event>
 8    1  0.4798632E-010  0.9118800E+02  0.7816164E-02  0.1184000E+00
        -11   -1    0    0    0    0  0.00000000000E+00  0.00000000000E+00  0.45593999997E+02  0.45594000000E+02  0.51100000000E-03 0. -1.
         11   -1    0    0    0    0 -0.00000000000E+00 -0.00000000000E+00 -0.45593999997E+02  0.45594000000E+02  0.51100000000E-03 0.  1.
         23    2    1    2    0    0 -0.88817841970E-15 -0.17763568394E-14  0.00000000000E+00  0.91188000000E+02  0.91188000000E+02 0.  0.
    9900012    2    3    3    0    0 -0.50479622038E+01  0.94216354830E+01 -0.42063965279E+02  0.47787236037E+02  0.19999840385E+02 0.  0.
         12    1    3    3    0    0  0.50479622038E+01 -0.94216354830E+01  0.42063965279E+02  0.43400763963E+02  0.00000000000E+00 0. -1.
         11    1    4    4    0    0 -0.27503004510E+01  0.12637918381E+02 -0.27027499654E+02  0.29962758074E+02  0.51100000000E-03 0.  1.
        -11    1    4    4    0    0  0.17905702689E+01  0.17697137145E+01 -0.74730351678E+01  0.78857011990E+01  0.51100000000E-03 0. -1.
         12    1    4    4    0    0 -0.40882320218E+01 -0.49859966121E+01 -0.75634304576E+01  0.99387767641E+01  0.00000000000E+00 0. -1.
</event>
<event>
 8    1  0.4798632E-010  0.9118800E+02  0.7816164E-02  0.1184000E+00
        -11   -1    0    0    0    0  0.00000000000E+00  0.00000000000E+00  0.45593999997E+02  0.45594000000E+02  0.51100000000E-03 0. -1.
         11   -1    0    0    0    0 -0.00000000000E+00 -0.00000000000E+00 -0.45593999997E+02  0.45594000000E+02  0.51100000000E-03 0.  1.
         23    2    1    2    0    0  0.00000000000E+00  0.00000000000E+00 -0.71054273576E-14  0.91188000000E+02  0.91188000000E+02 0.  0.
    9900012    2    3    3    0    0 -0.14546044900E+02 -0.97856610579E+01  0.39702351504E+02  0.47787270749E+02  0.19999998652E+02 0.  0.
        -12    1    3    3    0    0  0.14546044900E+02  0.97856610579E+01 -0.39702351504E+02  0.43400729251E+02  0.00000000000E+00 0.  1.
         11    1    4    4    0    0 -0.30242144047E+01  0.23809547154E+01 -0.16386131322E+00  0.38524886650E+01  0.51100000000E-03 0.  1.
        -11    1    4    4    0    0  0.84331049815E+00 -0.28438209214E+01  0.70277651472E+01  0.76281041717E+01  0.51100000000E-03 0. -1.
         12    1    4    4    0    0 -0.12365140993E+02 -0.93227948518E+01  0.32838447670E+02  0.36306677912E+02  0.00000000000E+00 0. -1.
</event>
<event>
 8    1  0.4798632E-010  0.9118800E+02  0.7816164E-02  0.1184000E+00
        -11   -1    0    0    0    0  0.00000000000E+00  0.00000000000E+00  0.45593999997E+02  0.45594000000E+02  0.51100000000E-03 0. -1.
         11   -1    0    0    0    0 -0.00000000000E+00 -0.00000000000E+00 -0.45593999997E+02  0.45594000000E+02  0.51100000000E-03 0.  1.
         23    2    1    2    0    0 -0.35527136788E-14  0.00000000000E+00  0.71054273576E-14  0.91188000000E+02  0.91188000000E+02 0.  0.
    9900012    2    3    3    0    0  0.14018224974E+02 -0.11396694004E+02 -0.39461720879E+02  0.47787277882E+02  0.20000031174E+02 0.  0.
         12    1    3    3    0    0 -0.14018224974E+02  0.11396694004E+02  0.39461720879E+02  0.43400722118E+02  0.00000000000E+00 0. -1.
         11    1    4    4    0    0 -0.81535884500E+00  0.33023303979E+01 -0.11643677681E+01  0.35952675372E+01  0.51100000000E-03 0. -1.
        -11    1    4    4    0    0  0.10413120671E+02 -0.55039783789E+01 -0.18753732029E+02  0.22145638969E+02  0.51100000000E-03 0.  1.
         12    1    4    4    0    0  0.44204631487E+01 -0.91950460229E+01 -0.19543621082E+02  0.22046371375E+02  0.00000000000E+00 0. -1.
</event>
<event>
 8    1  0.4798632E-010  0.9118800E+02  0.7816164E-02  0.1184000E+00
        -11   -1    0    0    0    0  0.00000000000E+00  0.00000000000E+00  0.45593999997E+02  0.45594000000E+02  0.51100000000E-03 0. -1.
         11   -1    0    0    0    0 -0.00000000000E+00 -0.00000000000E+00 -0.45593999997E+02  0.45594000000E+02  0.51100000000E-03 0.  1.
         23    2    1    2    0    0  0.88817841970E-15  0.35527136788E-14 -0.71054273576E-14  0.91188000000E+02  0.91188000000E+02 0.  0.
    9900012    2    3    3    0    0 -0.75240938385E+01  0.25549568366E+02  0.34267046937E+02  0.47787274919E+02  0.20000017666E+02 0.  0.
        -12    1    3    3    0    0  0.75240938385E+01 -0.25549568366E+02 -0.34267046937E+02  0.43400725081E+02  0.00000000000E+00 0.  1.
         11    1    4    4    0    0 -0.63676209233E+01  0.62116166184E+01  0.10011006771E+02  0.13392200494E+02  0.51100000000E-03 0. -1.
        -11    1    4    4    0    0  0.56796289793E+01  0.12148053185E+02  0.18739421448E+02  0.23043422011E+02  0.51100000000E-03 0.  1.
        -12    1    4    4    0    0 -0.68361018944E+01  0.71898985626E+01  0.55166187181E+01  0.11351652414E+02  0.00000000000E+00 0.  1.
</event>
<event>
 8    1  0.4798632E-010  0.9118800E+02  0.7816164E-02  0.1184000E+00
        -11   -1    0    0    0    0  0.00000000000E+00  0.00000000000E+00  0.45593999997E+02  0.45594000000E+02  0.51100000000E-03 0. -1.
         11   -1    0    0    0    0 -0.00000000000E+00 -0.00000000000E+00 -0.45593999997E+02  0.45594000000E+02  0.51100000000E-03 0.  1.
         23    2    1    2    0    0  0.00000000000E+00 -0.17763568394E-14  0.71054273576E-14  0.91188000000E+02  0.91188000000E+02 0.  0.
    9900012    2    3    3    0    0  0.98048223638E+01 -0.13621317077E+02 -0.40024347477E+02  0.47787271764E+02  0.20000003279E+02 0.  0.
         12    1    3    3    0    0 -0.98048223638E+01  0.13621317077E+02  0.40024347477E+02  0.43400728236E+02  0.00000000000E+00 0. -1.
         11    1    4    4    0    0 -0.38042027131E+01  0.27349789838E+01 -0.86315400852E+01  0.98211787901E+01  0.51100000000E-03 0. -1.
        -11    1    4    4    0    0  0.10360959485E+02 -0.12313297008E+02 -0.22332081694E+02  0.27526144621E+02  0.51100000000E-03 0.  1.
         12    1    4    4    0    0  0.32480655916E+01 -0.40429990529E+01 -0.90607256977E+01  0.10439948352E+02  0.00000000000E+00 0. -1.
</event>
<event>
 8    1  0.4798632E-010  0.9118800E+02  0.7816164E-02  0.1184000E+00
        -11   -1    0    0    0    0  0.00000000000E+00  0.00000000000E+00  0.45593999997E+02  0.45594000000E+02  0.51100000000E-03 0. -1.
         11   -1    0    0    0    0 -0.00000000000E+00 -0.00000000000E+00 -0.45593999997E+02  0.45594000000E+02  0.51100000000E-03 0.  1.
         23    2    1    2    0    0 -0.35527136788E-14  0.00000000000E+00 -0.71054273576E-14  0.91188000000E+02  0.91188000000E+02 0.  0.
    9900012    2    3    3    0    0  0.27742340791E+02 -0.11307263408E+02  0.31402734614E+02  0.47787269366E+02  0.19999992346E+02 0.  0.
        -12    1    3    3    0    0 -0.27742340791E+02  0.11307263408E+02 -0.31402734614E+02  0.43400730634E+02  0.00000000000E+00 0.  1.
         11    1    4    4    0    0  0.80910312358E+01 -0.28792903311E+01  0.17692655581E+02  0.19666854376E+02  0.51100000000E-03 0. -1.
        -11    1    4    4    0    0  0.10194704752E+02  0.13483877922E+01  0.27293134132E+01  0.10639516276E+02  0.51100000000E-03 0.  1.
        -12    1    4    4    0    0  0.94566048038E+01 -0.97763608696E+01  0.10980765619E+02  0.17480898714E+02  0.00000000000E+00 0.  1.
</event>
<event>
 8    1  0.4798632E-010  0.9118800E+02  0.7816164E-02  0.1184000E+00
        -11   -1    0    0    0    0  0.00000000000E+00  0.00000000000E+00  0.45593999997E+02  0.45594000000E+02  0.51100000000E-03 0. -1.
         11   -1    0    0    0    0 -0.00000000000E+00 -0.00000000000E+00 -0.45593999997E+02  0.45594000000E+02  0.51100000000E-03 0.  1.
         23    2    1    2    0    0 -0.88817841970E-15  0.00000000000E+00  0.00000000000E+00  0.91188000000E+02  0.91188000000E+02 0.  0.
    9900012    2    3    3    0    0  0.72036760188E+01  0.46761339563E+01 -0.42542496276E+02  0.47787272283E+02  0.20000005648E+02 0.  0.
         12    1    3    3    0    0 -0.72036760188E+01 -0.46761339563E+01  0.42542496276E+02  0.43400727717E+02  0.00000000000E+00 0. -1.
         11    1    4    4    0    0  0.78823160445E+01  0.64413694472E+01 -0.14456524435E+02  0.17680872308E+02  0.51100000000E-03 0. -1.
        -11    1    4    4    0    0 -0.24259813755E+01 -0.23496853393E+01 -0.28061229381E+02  0.28263740048E+02  0.51100000000E-03 0.  1.
        -12    1    4    4    0    0  0.17473413498E+01  0.58444984843E+00 -0.24742459431E-01  0.18426599272E+01  0.00000000000E+00 0.  1.
</event>
<event>
 8    1  0.4798632E-010  0.9118800E+02  0.7816164E-02  0.1184000E+00
        -11   -1    0    0    0    0  0.00000000000E+00  0.00000000000E+00  0.45593999997E+02  0.45594000000E+02  0.51100000000E-03 0. -1.
         11   -1    0    0    0    0 -0.00000000000E+00 -0.00000000000E+00 -0.45593999997E+02  0.45594000000E+02  0.51100000000E-03 0.  1.
         23    2    1    2    0    0 -0.17763568394E-14  0.00000000000E+00  0.00000000000E+00  0.91188000000E+02  0.91188000000E+02 0.  0.
    9900012    2    3    3    0    0 -0.95110103045E+01 -0.23350029601E+02 -0.35326189754E+02  0.47787275560E+02  0.20000020589E+02 0.  0.
         12    1    3    3    0    0  0.95110103045E+01  0.23350029601E+02  0.35326189754E+02  0.43400724440E+02  0.00000000000E+00 0. -1.
         11    1    4    4    0    0 -0.88848341041E+01 -0.15873532483E+02 -0.11450848045E+02  0.21494911764E+02  0.51100000000E-03 0. -1.
        -11    1    4    4    0    0 -0.33320031200E+01 -0.65834270609E+01 -0.20937852480E+02  0.22199941968E+02  0.51100000000E-03 0.  1.
         12    1    4    4    0    0  0.27058269196E+01 -0.89307005720E+00 -0.29374892292E+01  0.40924218279E+01  0.00000000000E+00 0. -1.
</event>
<event>
 8    1  0.4798632E-010  0.9118800E+02  0.7816164E-02  0.1184000E+00
        -11   -1    0    0    0    0  0.00000000000E+00  0.00000000000E+00  0.45593999997E+02  0.45594000000E+02  0.51100000000E-03 0. -1.
         11   -1    0    0    0    0 -0.00000000000E+00 -0.00000000000E+00 -0.45593999997E+02  0.45594000000E+02  0.51100000000E-03 0.  1.
         23    2    1    2    0    0  0.00000000000E+00  0.00000000000E+00  0.00000000000E+00  0.91188000000E+02  0.91188000000E+02 0.  0.
    9900012    2    3    3    0    0 -0.42756201426E+01 -0.19844667615E+02 -0.38360548139E+02  0.47787269432E+02  0.19999992646E+02 0.  0.
         12    1    3    3    0    0  0.42756201426E+01  0.19844667615E+02  0.38360548139E+02  0.43400730568E+02  0.00000000000E+00 0. -1.
         11    1    4    4    0    0 -0.10262544729E+02 -0.11476022535E+02 -0.20449153681E+02  0.25596617043E+02  0.51100000000E-03 0. -1.
        -11    1    4    4    0    0  0.68849413728E+01 -0.53886510811E+01 -0.16701246485E+02  0.18851302677E+02  0.51100000000E-03 0.  1.
         12    1    4    4    0    0 -0.89801678682E+00 -0.29799939985E+01 -0.12101479731E+01  0.33393497118E+01  0.00000000000E+00 0. -1.
</event>
<event>
 8    1  0.4798632E-010  0.9118800E+02  0.7816164E-02  0.1184000E+00
        -11   -1    0    0    0    0  0.00000000000E+00  0.00000000000E+00  0.45593999997E+02  0.45594000000E+02  0.51100000000E-03 0. -1.
         11   -1    0    0    0    0 -0.00000000000E+00 -0.00000000000E+00 -0.45593999997E+02  0.45594000000E+02  0.51100000000E-03 0.  1.
         23    2    1    2    0    0 -0.19428902931E-15  0.35527136788E-14  0.71054273576E-14  0.91188000000E+02  0.91188000000E+02 0.  0.
    9900012    2    3    3    0    0 -0.22724867614E+00  0.16709701572E+02 -0.40054431092E+02  0.47787271680E+02  0.20000002898E+02 0.  0.
         12    1    3    3    0    0  0.22724867614E+00 -0.16709701572E+02  0.40054431092E+02  0.43400728320E+02  0.00000000000E+00 0. -1.
         11    1    4    4    0    0  0.24816504875E+01  0.64811305155E+01 -0.30243384462E+02  0.31029436764E+02  0.51100000000E-03 0. -1.
        -11    1    4    4    0    0 -0.32677243132E+01  0.10559831241E+02 -0.54057281600E+01  0.12304875262E+02  0.51100000000E-03 0.  1.
        -12    1    4    4    0    0  0.55882514955E+00 -0.33126018413E+00 -0.44053184702E+01  0.44529596541E+01  0.00000000000E+00 0.  1.
</event>
<event>
 8    1  0.4798632E-010  0.9118800E+02  0.7816164E-02  0.1184000E+00
        -11   -1    0    0    0    0  0.00000000000E+00  0.00000000000E+00  0.45593999997E+02  0.45594000000E+02  0.51100000000E-03 0. -1.
         11   -1    0    0    0    0 -0.00000000000E+00 -0.00000000000E+00 -0.45593999997E+02  0.45594000000E+02  0.51100000000E-03 0.  1.
         23    2    1    2    0    0  0.00000000000E+00 -0.17763568394E-14  0.00000000000E+00  0.91188000000E+02  0.91188000000E+02 0.  0.
    9900012    2    3    3    0    0  0.33162742547E+01  0.58354977184E+01  0.42878582623E+02  0.47787267791E+02  0.19999985166E+02 0.  0.
        -12    1    3    3    0    0 -0.33162742547E+01 -0.58354977184E+01 -0.42878582623E+02  0.43400732209E+02  0.00000000000E+00 0.  1.
         11    1    4    4    0    0 -0.94686488111E+00  0.55481528752E+01  0.10998628116E+02  0.12355095068E+02  0.51100000000E-03 0. -1.
        -11    1    4    4    0    0  0.26632226099E+01 -0.69629354298E+01  0.20790728969E+02  0.22086865685E+02  0.51100000000E-03 0.  1.
        -12    1    4    4    0    0  0.15999165259E+01  0.72502802730E+01  0.11089225538E+02  0.13345307039E+02  0.00000000000E+00 0.  1.
</event>
<event>
 8    1  0.4798632E-010  0.9118800E+02  0.7816164E-02  0.1184000E+00
        -11   -1    0    0    0    0  0.00000000000E+00  0.00000000000E+00  0.45593999997E+02  0.45594000000E+02  0.51100000000E-03 0. -1.
         11   -1    0    0    0    0 -0.00000000000E+00 -0.00000000000E+00 -0.45593999997E+02  0.45594000000E+02  0.51100000000E-03 0.  1.
         23    2    1    2    0    0  0.00000000000E+00  0.17763568394E-14  0.00000000000E+00  0.91188000000E+02  0.91188000000E+02 0.  0.
    9900012    2    3    3    0    0 -0.63473122745E+01  0.14937918379E+02 -0.40251627091E+02  0.47787271180E+02  0.20000000618E+02 0.  0.
         12    1    3    3    0    0  0.63473122745E+01 -0.14937918379E+02  0.40251627091E+02  0.43400728820E+02  0.00000000000E+00 0. -1.
         11    1    4    4    0    0  0.45201216775E+00  0.21450438799E+01  0.13465775062E+01  0.25727027594E+01  0.51100000000E-03 0. -1.
        -11    1    4    4    0    0 -0.42106826050E+01  0.17070173239E+00 -0.58089804177E+01  0.71765758434E+01  0.51100000000E-03 0.  1.
         12    1    4    4    0    0 -0.25886418372E+01  0.12622172767E+02 -0.35789224180E+02  0.38037992577E+02  0.00000000000E+00 0. -1.
</event>
<event>
 8    1  0.4798632E-010  0.9118800E+02  0.7816164E-02  0.1184000E+00
        -11   -1    0    0    0    0  0.00000000000E+00  0.00000000000E+00  0.45593999997E+02  0.45594000000E+02  0.51100000000E-03 0. -1.
         11   -1    0    0    0    0 -0.00000000000E+00 -0.00000000000E+00 -0.45593999997E+02  0.45594000000E+02  0.51100000000E-03 0.  1.
         23    2    1    2    0    0  0.00000000000E+00  0.00000000000E+00  0.00000000000E+00  0.91188000000E+02  0.91188000000E+02 0.  0.
    9900012    2    3    3    0    0 -0.12592704945E+02 -0.11458863794E+02  0.39921689128E+02  0.47787273738E+02  0.20000012279E+02 0.  0.
        -12    1    3    3    0    0  0.12592704945E+02  0.11458863794E+02 -0.39921689128E+02  0.43400726262E+02  0.00000000000E+00 0.  1.
         11    1    4    4    0    0 -0.63560692596E+00 -0.93691996879E+01  0.30360860181E+02  0.31779989461E+02  0.51100000000E-03 0. -1.
        -11    1    4    4    0    0 -0.10127724231E+02 -0.57707861538E+00  0.90162438639E+01  0.13571900069E+02  0.51100000000E-03 0.  1.
         12    1    4    4    0    0 -0.18293737885E+01 -0.15125854902E+01  0.54458508320E+00  0.24353842071E+01  0.00000000000E+00 0. -1.
</event>
<event>
 8    1  0.4798632E-010  0.9118800E+02  0.7816164E-02  0.1184000E+00
        -11   -1    0    0    0    0  0.00000000000E+00  0.00000000000E+00  0.45593999997E+02  0.45594000000E+02  0.51100000000E-03 0. -1.
         11   -1    0    0    0    0 -0.00000000000E+00 -0.00000000000E+00 -0.45593999997E+02  0.45594000000E+02  0.51100000000E-03 0.  1.
         23    2    1    2    0    0  0.35527136788E-14  0.00000000000E+00  0.35527136788E-14  0.91188000000E+02  0.91188000000E+02 0.  0.
    9900012    2    3    3    0    0 -0.17988284992E+02  0.28625572677E+02  0.27214355119E+02  0.47787274976E+02  0.20000017925E+02 0.  0.
        -12    1    3    3    0    0  0.17988284992E+02 -0.28625572677E+02 -0.27214355119E+02  0.43400725024E+02  0.00000000000E+00 0.  1.
         11    1    4    4    0    0 -0.90809188151E+01  0.15661866181E+02  0.25558967035E+01  0.18283592290E+02  0.51100000000E-03 0. -1.
        -11    1    4    4    0    0 -0.74560486961E+01  0.11903896937E+02  0.23460431589E+02  0.27343870886E+02  0.51100000000E-03 0.  1.
         12    1    4    4    0    0 -0.14513174808E+01  0.10598095588E+01  0.11980268268E+01  0.21598117994E+01  0.00000000000E+00 0. -1.
</event>
<event>
 8    1  0.4798632E-010  0.9118800E+02  0.7816164E-02  0.1184000E+00
        -11   -1    0    0    0    0  0.00000000000E+00  0.00000000000E+00  0.45593999997E+02  0.45594000000E+02  0.51100000000E-03 0. -1.
         11   -1    0    0    0    0 -0.00000000000E+00 -0.00000000000E+00 -0.45593999997E+02  0.45594000000E+02  0.51100000000E-03 0.  1.
         23    2    1    2    0    0  0.00000000000E+00  0.00000000000E+00  0.00000000000E+00  0.91188000000E+02  0.91188000000E+02 0.  0.
    9900012    2    3    3    0    0 -0.29774468953E+02 -0.22727842738E+02 -0.21921432284E+02  0.47787273850E+02  0.20000012793E+02 0.  0.
         12    1    3    3    0    0  0.29774468953E+02  0.22727842738E+02  0.21921432284E+02  0.43400726150E+02  0.00000000000E+00 0. -1.
         11    1    4    4    0    0 -0.33051716839E+01 -0.13815113502E+02 -0.77343157362E+01  0.16174089190E+02  0.51100000000E-03 0.  1.
        -11    1    4    4    0    0 -0.17224618208E+01 -0.79417734155E+00  0.11479096165E+00  0.19002025155E+01  0.51100000000E-03 0. -1.
         12    1    4    4    0    0 -0.24746835448E+02 -0.81185518938E+01 -0.14301907510E+02  0.29712982145E+02  0.00000000000E+00 0. -1.
</event>
<event>
 8    1  0.4798632E-010  0.9118800E+02  0.7816164E-02  0.1184000E+00
        -11   -1    0    0    0    0  0.00000000000E+00  0.00000000000E+00  0.45593999997E+02  0.45594000000E+02  0.51100000000E-03 0.  1.
         11   -1    0    0    0    0 -0.00000000000E+00 -0.00000000000E+00 -0.45593999997E+02  0.45594000000E+02  0.51100000000E-03 0. -1.
         23    2    1    2    0    0 -0.88817841970E-15 -0.35527136788E-14  0.35527136788E-14  0.91188000000E+02  0.91188000000E+02 0.  0.
    9900012    2    3    3    0    0 -0.77552726494E+01 -0.30859022203E+02  0.29516106984E+02  0.47787261795E+02  0.19999957829E+02 0.  0.
        -12    1    3    3    0    0  0.77552726494E+01  0.30859022203E+02 -0.29516106984E+02  0.43400738205E+02  0.00000000000E+00 0.  1.
         11    1    4    4    0    0  0.10781621928E+01 -0.10570822041E+02  0.39010838138E+01  0.11319150477E+02  0.51100000000E-03 0. -1.
        -11    1    4    4    0    0 -0.92928220382E+01 -0.53809406532E+01  0.80209901258E+01  0.13403258805E+02  0.51100000000E-03 0.  1.
        -12    1    4    4    0    0  0.45938719601E+00 -0.14907259509E+02  0.17594033044E+02  0.23064852513E+02  0.00000000000E+00 0.  1.
</event>
<event>
 8    1  0.4798632E-010  0.9118800E+02  0.7816164E-02  0.1184000E+00
        -11   -1    0    0    0    0  0.00000000000E+00  0.00000000000E+00  0.45593999997E+02  0.45594000000E+02  0.51100000000E-03 0. -1.
         11   -1    0    0    0    0 -0.00000000000E+00 -0.00000000000E+00 -0.45593999997E+02  0.45594000000E+02  0.51100000000E-03 0.  1.
         23    2    1    2    0    0  0.00000000000E+00  0.00000000000E+00  0.71054273576E-14  0.91188000000E+02  0.91188000000E+02 0.  0.
    9900012    2    3    3    0    0  0.13241446317E+02  0.14621114371E+02  0.38658900306E+02  0.47787268913E+02  0.19999990281E+02 0.  0.
        -12    1    3    3    0    0 -0.13241446317E+02 -0.14621114371E+02 -0.38658900306E+02  0.43400731087E+02  0.00000000000E+00 0.  1.
         11    1    4    4    0    0  0.22025805837E+01  0.29268899550E+01 -0.12690223232E+01  0.38766562853E+01  0.51100000000E-03 0. -1.
        -11    1    4    4    0    0  0.40240206379E+00  0.63408973598E+01  0.13151726214E+02  0.14606053862E+02  0.51100000000E-03 0.  1.
         12    1    4    4    0    0  0.10636463670E+02  0.53533270562E+01  0.26776196416E+02  0.29304558766E+02  0.00000000000E+00 0. -1.
</event>
<event>
 8    1  0.4798632E-010  0.9118800E+02  0.7816164E-02  0.1184000E+00
        -11   -1    0    0    0    0  0.00000000000E+00  0.00000000000E+00  0.45593999997E+02  0.45594000000E+02  0.51100000000E-03 0. -1.
         11   -1    0    0    0    0 -0.00000000000E+00 -0.00000000000E+00 -0.45593999997E+02  0.45594000000E+02  0.51100000000E-03 0.  1.
         23    2    1    2    0    0  0.00000000000E+00  0.00000000000E+00 -0.35527136788E-14  0.91188000000E+02  0.91188000000E+02 0.  0.
    9900012    2    3    3    0    0 -0.21570077999E+01  0.33975457840E+02  0.26919120287E+02  0.47787268956E+02  0.19999990479E+02 0.  0.
        -12    1    3    3    0    0  0.21570077999E+01 -0.33975457840E+02 -0.26919120287E+02  0.43400731044E+02  0.00000000000E+00 0.  1.
         11    1    4    4    0    0  0.15616089953E+01  0.64749377268E+01  0.14711711937E+02  0.16149238669E+02  0.51100000000E-03 0.  1.
        -11    1    4    4    0    0 -0.54024523821E+01  0.20880062415E+02  0.12255819712E+02  0.24806624423E+02  0.51100000000E-03 0. -1.
         12    1    4    4    0    0  0.16838355870E+01  0.66204576983E+01 -0.48411361180E-01  0.68314058640E+01  0.00000000000E+00 0. -1.
</event>
<event>
 8    1  0.4798632E-010  0.9118800E+02  0.7816164E-02  0.1184000E+00
        -11   -1    0    0    0    0  0.00000000000E+00  0.00000000000E+00  0.45593999997E+02  0.45594000000E+02  0.51100000000E-03 0. -1.
         11   -1    0    0    0    0 -0.00000000000E+00 -0.00000000000E+00 -0.45593999997E+02  0.45594000000E+02  0.51100000000E-03 0.  1.
         23    2    1    2    0    0  0.00000000000E+00  0.00000000000E+00  0.00000000000E+00  0.91188000000E+02  0.91188000000E+02 0.  0.
    9900012    2    3    3    0    0  0.11928878432E+02  0.13192973378E+02 -0.39588729418E+02  0.47787306640E+02  0.20000162296E+02 0.  0.
         12    1    3    3    0    0 -0.11928878432E+02 -0.13192973378E+02  0.39588729418E+02  0.43400693360E+02  0.00000000000E+00 0. -1.
         11    1    4    4    0    0  0.10493419745E+02  0.70848203298E+01 -0.38021898663E+02  0.40074571928E+02  0.51100000000E-03 0.  1.
        -11    1    4    4    0    0  0.78526599474E+00  0.65315353577E+01 -0.19303135829E+01  0.68559249997E+01  0.51100000000E-03 0. -1.
         12    1    4    4    0    0  0.65019269218E+00 -0.42338230935E+00  0.36348282834E+00  0.85680971244E+00  0.00000000000E+00 0. -1.
</event>
<event>
 8    1  0.4798632E-010  0.9118800E+02  0.7816164E-02  0.1184000E+00
        -11   -1    0    0    0    0  0.00000000000E+00  0.00000000000E+00  0.45593999997E+02  0.45594000000E+02  0.51100000000E-03 0. -1.
         11   -1    0    0    0    0 -0.00000000000E+00 -0.00000000000E+00 -0.45593999997E+02  0.45594000000E+02  0.51100000000E-03 0.  1.
         23    2    1    2    0    0  0.88817841970E-15  0.00000000000E+00  0.00000000000E+00  0.91188000000E+02  0.91188000000E+02 0.  0.
    9900012    2    3    3    0    0  0.21889557372E+01 -0.16517345393E+02 -0.40075044397E+02  0.47787269483E+02  0.19999992880E+02 0.  0.
         12    1    3    3    0    0 -0.21889557372E+01  0.16517345393E+02  0.40075044397E+02  0.43400730517E+02  0.00000000000E+00 0. -1.
         11    1    4    4    0    0  0.57705002251E+01 -0.46726267888E+01 -0.38635755920E+01  0.83701451942E+01  0.51100000000E-03 0. -1.
        -11    1    4    4    0    0 -0.68350346934E+01 -0.81670712639E+01 -0.24105519020E+02  0.26353269243E+02  0.51100000000E-03 0.  1.
        -12    1    4    4    0    0  0.32534902056E+01 -0.36776473400E+01 -0.12105949784E+02  0.13063855046E+02  0.00000000000E+00 0.  1.
</event>
<event>
 8    1  0.4798632E-010  0.9118800E+02  0.7816164E-02  0.1184000E+00
        -11   -1    0    0    0    0  0.00000000000E+00  0.00000000000E+00  0.45593999997E+02  0.45594000000E+02  0.51100000000E-03 0. -1.
         11   -1    0    0    0    0 -0.00000000000E+00 -0.00000000000E+00 -0.45593999997E+02  0.45594000000E+02  0.51100000000E-03 0.  1.
         23    2    1    2    0    0  0.00000000000E+00  0.00000000000E+00  0.00000000000E+00  0.91188000000E+02  0.91188000000E+02 0.  0.
    9900012    2    3    3    0    0 -0.14401544899E+02  0.10399675088E+02  0.39598799168E+02  0.47787278428E+02  0.20000033665E+02 0.  0.
        -12    1    3    3    0    0  0.14401544899E+02 -0.10399675088E+02 -0.39598799168E+02  0.43400721572E+02  0.00000000000E+00 0.  1.
         11    1    4    4    0    0 -0.71752465879E+00  0.32498486233E+01  0.60437701558E+01  0.68995301048E+01  0.51100000000E-03 0. -1.
        -11    1    4    4    0    0 -0.11984498013E+02  0.50938051478E+01  0.35350206135E+02  0.37672431798E+02  0.51100000000E-03 0.  1.
        -12    1    4    4    0    0 -0.16995222272E+01  0.20560213171E+01 -0.17951771228E+01  0.32153165256E+01  0.00000000000E+00 0.  1.
</event>
<event>
 8    1  0.4798632E-010  0.9118800E+02  0.7816164E-02  0.1184000E+00
        -11   -1    0    0    0    0  0.00000000000E+00  0.00000000000E+00  0.45593999997E+02  0.45594000000E+02  0.51100000000E-03 0. -1.
         11   -1    0    0    0    0 -0.00000000000E+00 -0.00000000000E+00 -0.45593999997E+02  0.45594000000E+02  0.51100000000E-03 0.  1.
         23    2    1    2    0    0  0.00000000000E+00  0.00000000000E+00  0.35527136788E-14  0.91188000000E+02  0.91188000000E+02 0.  0.
    9900012    2    3    3    0    0 -0.33613657386E+02 -0.13696729062E+02  0.23793796652E+02  0.47787272944E+02  0.20000008659E+02 0.  0.
        -12    1    3    3    0    0  0.33613657386E+02  0.13696729062E+02 -0.23793796652E+02  0.43400727056E+02  0.00000000000E+00 0.  1.
         11    1    4    4    0    0 -0.10247031894E+02 -0.13103259190E+02  0.10635347487E+02  0.19743547819E+02  0.51100000000E-03 0. -1.
        -11    1    4    4    0    0 -0.85333509251E+01  0.28827854204E+01  0.77331345661E+01  0.11871389989E+02  0.51100000000E-03 0.  1.
         12    1    4    4    0    0 -0.14833274567E+02 -0.34762552926E+01  0.54253145995E+01  0.16172335136E+02  0.00000000000E+00 0. -1.
</event>
<event>
 8    1  0.4798632E-010  0.9118800E+02  0.7816164E-02  0.1184000E+00
        -11   -1    0    0    0    0  0.00000000000E+00  0.00000000000E+00  0.45593999997E+02  0.45594000000E+02  0.51100000000E-03 0. -1.
         11   -1    0    0    0    0 -0.00000000000E+00 -0.00000000000E+00 -0.45593999997E+02  0.45594000000E+02  0.51100000000E-03 0.  1.
         23    2    1    2    0    0 -0.35527136788E-14  0.35527136788E-14 -0.35527136788E-14  0.91188000000E+02  0.91188000000E+02 0.  0.
    9900012    2    3    3    0    0 -0.23279747893E+02  0.22182915977E+02 -0.29147810620E+02  0.47787270891E+02  0.19999999302E+02 0.  0.
         12    1    3    3    0    0  0.23279747893E+02 -0.22182915977E+02  0.29147810620E+02  0.43400729109E+02  0.00000000000E+00 0. -1.
         11    1    4    4    0    0 -0.19631916353E+02  0.18139824893E+02 -0.13448887712E+02  0.29922198578E+02  0.51100000000E-03 0. -1.
        -11    1    4    4    0    0 -0.40899921371E+01  0.15493690138E+01 -0.41068615184E+01  0.59995743028E+01  0.51100000000E-03 0.  1.
         12    1    4    4    0    0  0.44216059677E+00  0.24937220708E+01 -0.11592061390E+02  0.11865498010E+02  0.00000000000E+00 0. -1.
</event>
<event>
 8    1  0.4798632E-010  0.9118800E+02  0.7816164E-02  0.1184000E+00
        -11   -1    0    0    0    0  0.00000000000E+00  0.00000000000E+00  0.45593999997E+02  0.45594000000E+02  0.51100000000E-03 0. -1.
         11   -1    0    0    0    0 -0.00000000000E+00 -0.00000000000E+00 -0.45593999997E+02  0.45594000000E+02  0.51100000000E-03 0.  1.
         23    2    1    2    0    0  0.00000000000E+00  0.00000000000E+00  0.00000000000E+00  0.91188000000E+02  0.91188000000E+02 0.  0.
    9900012    2    3    3    0    0 -0.11838942816E+02 -0.30564842687E+02  0.28447372986E+02  0.47787271835E+02  0.20000003604E+02 0.  0.
        -12    1    3    3    0    0  0.11838942816E+02  0.30564842687E+02 -0.28447372986E+02  0.43400728165E+02  0.00000000000E+00 0.  1.
         11    1    4    4    0    0 -0.11646917037E+02 -0.15068382553E+02  0.10918023965E+02  0.21952450359E+02  0.51100000000E-03 0. -1.
        -11    1    4    4    0    0  0.38333147641E+01 -0.11073919580E+01  0.29827161208E+01  0.49816879417E+01  0.51100000000E-03 0.  1.
        -12    1    4    4    0    0 -0.40253405437E+01 -0.14389068176E+02  0.14546632900E+02  0.20853133534E+02  0.00000000000E+00 0.  1.
</event>
<event>
 8    1  0.4798632E-010  0.9118800E+02  0.7816164E-02  0.1184000E+00
        -11   -1    0    0    0    0  0.00000000000E+00  0.00000000000E+00  0.45593999997E+02  0.45594000000E+02  0.51100000000E-03 0. -1.
         11   -1    0    0    0    0 -0.00000000000E+00 -0.00000000000E+00 -0.45593999997E+02  0.45594000000E+02  0.51100000000E-03 0.  1.
         23    2    1    2    0    0 -0.35527136788E-14  0.00000000000E+00  0.00000000000E+00  0.91188000000E+02  0.91188000000E+02 0.  0.
    9900012    2    3    3    0    0 -0.29535561818E+02 -0.28225649891E+02 -0.14648770986E+02  0.47787271722E+02  0.20000003088E+02 0.  0.
         12    1    3    3    0    0  0.29535561818E+02  0.28225649891E+02  0.14648770986E+02  0.43400728278E+02  0.00000000000E+00 0. -1.
         11    1    4    4    0    0 -0.24755816664E+02 -0.14442589508E+02 -0.64544651543E+01  0.29378546102E+02  0.51100000000E-03 0.  1.
        -11    1    4    4    0    0 -0.65022288792E+01 -0.92502179982E+01 -0.39882390067E+01  0.11989644033E+02  0.51100000000E-03 0. -1.
         12    1    4    4    0    0  0.17224837249E+01 -0.45328423851E+01 -0.42060668250E+01  0.64190815860E+01  0.00000000000E+00 0. -1.
</event>
<event>
 8    1  0.4798632E-010  0.9118800E+02  0.7816164E-02  0.1184000E+00
        -11   -1    0    0    0    0  0.00000000000E+00  0.00000000000E+00  0.45593999997E+02  0.45594000000E+02  0.51100000000E-03 0. -1.
         11   -1    0    0    0    0 -0.00000000000E+00 -0.00000000000E+00 -0.45593999997E+02  0.45594000000E+02  0.51100000000E-03 0.  1.
         23    2    1    2    0    0  0.00000000000E+00 -0.35527136788E-14  0.35527136788E-14  0.91188000000E+02  0.91188000000E+02 0.  0.
    9900012    2    3    3    0    0  0.25895355003E+02 -0.30317249964E+02  0.17144033160E+02  0.47787275017E+02  0.20000018111E+02 0.  0.
        -12    1    3    3    0    0 -0.25895355003E+02  0.30317249964E+02 -0.17144033160E+02  0.43400724983E+02  0.00000000000E+00 0.  1.
         11    1    4    4    0    0  0.11419818951E+02 -0.30020786575E+01  0.25231359044E+01  0.12074392581E+02  0.51100000000E-03 0. -1.
        -11    1    4    4    0    0  0.35277162324E+01 -0.45996801657E+01 -0.12339210411E+01  0.59265842473E+01  0.51100000000E-03 0.  1.
         12    1    4    4    0    0  0.10947819819E+02 -0.22715491141E+02  0.15854818296E+02  0.29786298188E+02  0.00000000000E+00 0. -1.
</event>
<event>
 8    1  0.5433033E-010  0.9118800E+02  0.7816164E-02  0.1184000E+00
        -11   -1    0    0    0    0  0.00000000000E+00  0.00000000000E+00  0.45593999997E+02  0.45594000000E+02  0.51100000000E-03 0. -1.
         11   -1    0    0    0    0 -0.00000000000E+00 -0.00000000000E+00 -0.45593999997E+02  0.45594000000E+02  0.51100000000E-03 0.  1.
         23    2    1    2    0    0 -0.35527136788E-14  0.00000000000E+00  0.00000000000E+00  0.91188000000E+02  0.91188000000E+02 0.  0.
    9900012    2    3    3    0    0 -0.16950764923E+02  0.34777298714E+02 -0.19668103433E+02  0.47787271551E+02  0.20000002307E+02 0.  0.
         12    1    3    3    0    0  0.16950764923E+02 -0.34777298714E+02  0.19668103433E+02  0.43400728449E+02  0.00000000000E+00 0. -1.
         11    1    4    4    0    0 -0.83722249733E+00  0.21971884084E+01  0.34175057278E+01  0.41482434924E+01  0.51100000000E-03 0. -1.
        -11    1    4    4    0    0 -0.91030683955E+01  0.14708506546E+02 -0.14659030580E+02  0.22673623372E+02  0.51100000000E-03 0.  1.
        -12    1    4    4    0    0 -0.70104740298E+01  0.17871603760E+02 -0.84265785806E+01  0.20965404686E+02  0.00000000000E+00 0.  1.
</event>
<event>
 8    1  0.4798632E-010  0.9118800E+02  0.7816164E-02  0.1184000E+00
        -11   -1    0    0    0    0  0.00000000000E+00  0.00000000000E+00  0.45593999997E+02  0.45594000000E+02  0.51100000000E-03 0. -1.
         11   -1    0    0    0    0 -0.00000000000E+00 -0.00000000000E+00 -0.45593999997E+02  0.45594000000E+02  0.51100000000E-03 0.  1.
         23    2    1    2    0    0  0.00000000000E+00  0.00000000000E+00  0.00000000000E+00  0.91188000000E+02  0.91188000000E+02 0.  0.
    9900012    2    3    3    0    0  0.26433023961E+02  0.16012718056E+02 -0.30471466128E+02  0.47787284070E+02  0.20000059387E+02 0.  0.
         12    1    3    3    0    0 -0.26433023961E+02 -0.16012718056E+02  0.30471466128E+02  0.43400715930E+02  0.00000000000E+00 0. -1.
         11    1    4    4    0    0  0.98956728643E+01  0.10212629128E+01 -0.18159544594E+02  0.20705950340E+02  0.51100000000E-03 0. -1.
        -11    1    4    4    0    0  0.10783211959E+02  0.12557903365E+02 -0.46459174904E+01  0.17191950054E+02  0.51100000000E-03 0.  1.
         12    1    4    4    0    0  0.57541391381E+01  0.24335517782E+01 -0.76660040441E+01  0.98893836755E+01  0.00000000000E+00 0. -1.
</event>
<event>
 8    1  0.4798632E-010  0.9118800E+02  0.7816164E-02  0.1184000E+00
        -11   -1    0    0    0    0  0.00000000000E+00  0.00000000000E+00  0.45593999997E+02  0.45594000000E+02  0.51100000000E-03 0.  1.
         11   -1    0    0    0    0 -0.00000000000E+00 -0.00000000000E+00 -0.45593999997E+02  0.45594000000E+02  0.51100000000E-03 0. -1.
         23    2    1    2    0    0  0.00000000000E+00  0.00000000000E+00  0.88817841970E-15  0.91188000000E+02  0.91188000000E+02 0.  0.
    9900012    2    3    3    0    0 -0.32986604803E+02  0.27254875226E+02 -0.72580168952E+01  0.47787272711E+02  0.20000007597E+02 0.  0.
         12    1    3    3    0    0  0.32986604803E+02 -0.27254875226E+02  0.72580168952E+01  0.43400727289E+02  0.00000000000E+00 0. -1.
         11    1    4    4    0    0 -0.20201183490E+01  0.97851803801E+01 -0.37599636348E+01  0.10675577737E+02  0.51100000000E-03 0. -1.
        -11    1    4    4    0    0 -0.28899555320E+02  0.13096885112E+02 -0.11862548915E+01  0.31750903896E+02  0.51100000000E-03 0.  1.
        -12    1    4    4    0    0 -0.20669311344E+01  0.43728097335E+01 -0.23117983689E+01  0.53607910776E+01  0.00000000000E+00 0.  1.
</event>
<event>
 8    1  0.4798632E-010  0.9118800E+02  0.7816164E-02  0.1184000E+00
        -11   -1    0    0    0    0  0.00000000000E+00  0.00000000000E+00  0.45593999997E+02  0.45594000000E+02  0.51100000000E-03 0. -1.
         11   -1    0    0    0    0 -0.00000000000E+00 -0.00000000000E+00 -0.45593999997E+02  0.45594000000E+02  0.51100000000E-03 0.  1.
         23    2    1    2    0    0  0.00000000000E+00  0.71054273576E-14  0.00000000000E+00  0.91188000000E+02  0.91188000000E+02 0.  0.
    9900012    2    3    3    0    0  0.89139458258E+01  0.37971223491E+02  0.19035522231E+02  0.47787270165E+02  0.19999995991E+02 0.  0.
        -12    1    3    3    0    0 -0.89139458258E+01 -0.37971223491E+02 -0.19035522231E+02  0.43400729835E+02  0.00000000000E+00 0.  1.
         11    1    4    4    0    0 -0.35631039925E+01  0.46785782623E+01  0.63143802516E+01  0.86288007765E+01  0.51100000000E-03 0. -1.
        -11    1    4    4    0    0  0.63080152063E+01  0.19516855224E+02  0.19255075504E+01  0.20601123107E+02  0.51100000000E-03 0.  1.
         12    1    4    4    0    0  0.61690346120E+01  0.13775790005E+02  0.10795634429E+02  0.18557346282E+02  0.00000000000E+00 0. -1.
</event>
<event>
 8    1  0.4798632E-010  0.9118800E+02  0.7816164E-02  0.1184000E+00
        -11   -1    0    0    0    0  0.00000000000E+00  0.00000000000E+00  0.45593999997E+02  0.45594000000E+02  0.51100000000E-03 0.  1.
         11   -1    0    0    0    0 -0.00000000000E+00 -0.00000000000E+00 -0.45593999997E+02  0.45594000000E+02  0.51100000000E-03 0. -1.
         23    2    1    2    0    0  0.00000000000E+00  0.00000000000E+00  0.00000000000E+00  0.91188000000E+02  0.91188000000E+02 0.  0.
    9900012    2    3    3    0    0 -0.33988831632E+02  0.13504124620E+02 -0.23367094743E+02  0.47787272193E+02  0.20000005236E+02 0.  0.
         12    1    3    3    0    0  0.33988831632E+02 -0.13504124620E+02  0.23367094743E+02  0.43400727807E+02  0.00000000000E+00 0. -1.
         11    1    4    4    0    0 -0.17336806149E+01 -0.35430762958E+01 -0.39593414740E+01  0.55888660103E+01  0.51100000000E-03 0. -1.
        -11    1    4    4    0    0 -0.20626076363E+02  0.14733677765E+02 -0.15512904160E+02  0.29718117073E+02  0.51100000000E-03 0.  1.
        -12    1    4    4    0    0 -0.11629074654E+02  0.23135231507E+01 -0.38948491089E+01  0.12480289110E+02  0.00000000000E+00 0.  1.
</event>
<event>
 8    1  0.4798632E-010  0.9118800E+02  0.7816164E-02  0.1184000E+00
        -11   -1    0    0    0    0  0.00000000000E+00  0.00000000000E+00  0.45593999997E+02  0.45594000000E+02  0.51100000000E-03 0. -1.
         11   -1    0    0    0    0 -0.00000000000E+00 -0.00000000000E+00 -0.45593999997E+02  0.45594000000E+02  0.51100000000E-03 0.  1.
         23    2    1    2    0    0 -0.17763568394E-14  0.35527136788E-14  0.00000000000E+00  0.91188000000E+02  0.91188000000E+02 0.  0.
    9900012    2    3    3    0    0  0.12536751613E+02 -0.27135931452E+02  0.31465764116E+02  0.47787271571E+02  0.20000002401E+02 0.  0.
        -12    1    3    3    0    0 -0.12536751613E+02  0.27135931452E+02 -0.31465764116E+02  0.43400728429E+02  0.00000000000E+00 0.  1.
         11    1    4    4    0    0 -0.27475984955E+01 -0.11055966476E+02  0.12732014058E+02  0.17084726350E+02  0.51100000000E-03 0. -1.
        -11    1    4    4    0    0  0.10354638844E+02 -0.95397115471E+01  0.17435402941E+02  0.22410219052E+02  0.51100000000E-03 0.  1.
         12    1    4    4    0    0  0.49297112640E+01 -0.65402534292E+01  0.12983471170E+01  0.82923261694E+01  0.00000000000E+00 0. -1.
</event>
<event>
 8    1  0.4798632E-010  0.9118800E+02  0.7816164E-02  0.1184000E+00
        -11   -1    0    0    0    0  0.00000000000E+00  0.00000000000E+00  0.45593999997E+02  0.45594000000E+02  0.51100000000E-03 0. -1.
         11   -1    0    0    0    0 -0.00000000000E+00 -0.00000000000E+00 -0.45593999997E+02  0.45594000000E+02  0.51100000000E-03 0.  1.
         23    2    1    2    0    0 -0.35527136788E-14 -0.17763568394E-14  0.00000000000E+00  0.91188000000E+02  0.91188000000E+02 0.  0.
    9900012    2    3    3    0    0 -0.27293869519E+02 -0.11973158256E+02  0.31548557884E+02  0.47787270323E+02  0.19999996710E+02 0.  0.
        -12    1    3    3    0    0  0.27293869519E+02  0.11973158256E+02 -0.31548557884E+02  0.43400729677E+02  0.00000000000E+00 0.  1.
         11    1    4    4    0    0 -0.14907358020E+01  0.20453946963E+01  0.86939755168E+01  0.90548960923E+01  0.51100000000E-03 0. -1.
        -11    1    4    4    0    0 -0.21110869748E+02 -0.13570372702E+02  0.14091069795E+02  0.28781627561E+02  0.51100000000E-03 0.  1.
        -12    1    4    4    0    0 -0.46922639690E+01 -0.44818025062E+00  0.87635125719E+01  0.99507466700E+01  0.00000000000E+00 0.  1.
</event>
<event>
 8    1  0.4798632E-010  0.9118800E+02  0.7816164E-02  0.1184000E+00
        -11   -1    0    0    0    0  0.00000000000E+00  0.00000000000E+00  0.45593999997E+02  0.45594000000E+02  0.51100000000E-03 0. -1.
         11   -1    0    0    0    0 -0.00000000000E+00 -0.00000000000E+00 -0.45593999997E+02  0.45594000000E+02  0.51100000000E-03 0.  1.
         23    2    1    2    0    0  0.00000000000E+00  0.00000000000E+00  0.00000000000E+00  0.91188000000E+02  0.91188000000E+02 0.  0.
    9900012    2    3    3    0    0 -0.30759601349E+02 -0.21629824322E+02  0.21670743347E+02  0.47787268525E+02  0.19999988513E+02 0.  0.
        -12    1    3    3    0    0  0.30759601349E+02  0.21629824322E+02 -0.21670743347E+02  0.43400731475E+02  0.00000000000E+00 0.  1.
         11    1    4    4    0    0 -0.10433761777E+02 -0.78758882757E+01  0.87118645872E+01  0.15709538052E+02  0.51100000000E-03 0. -1.
        -11    1    4    4    0    0 -0.22663164156E+02 -0.11349449865E+02  0.13441671008E+02  0.28689850846E+02  0.51100000000E-03 0.  1.
        -12    1    4    4    0    0  0.23373245848E+01 -0.24044861818E+01 -0.48279224818E+00  0.33878796271E+01  0.00000000000E+00 0.  1.
</event>
<event>
 8    1  0.4798632E-010  0.9118800E+02  0.7816164E-02  0.1184000E+00
        -11   -1    0    0    0    0  0.00000000000E+00  0.00000000000E+00  0.45593999997E+02  0.45594000000E+02  0.51100000000E-03 0. -1.
         11   -1    0    0    0    0 -0.00000000000E+00 -0.00000000000E+00 -0.45593999997E+02  0.45594000000E+02  0.51100000000E-03 0.  1.
         23    2    1    2    0    0  0.00000000000E+00  0.00000000000E+00  0.00000000000E+00  0.91188000000E+02  0.91188000000E+02 0.  0.
    9900012    2    3    3    0    0  0.11476621746E+02 -0.10309635471E+02 -0.40566267369E+02  0.47787268687E+02  0.19999989252E+02 0.  0.
         12    1    3    3    0    0 -0.11476621746E+02  0.10309635471E+02  0.40566267369E+02  0.43400731313E+02  0.00000000000E+00 0. -1.
         11    1    4    4    0    0  0.88478051577E+01 -0.88549376971E+01 -0.10680766878E+02  0.16455162080E+02  0.51100000000E-03 0. -1.
        -11    1    4    4    0    0  0.46696859973E+01 -0.38475060431E+01 -0.22618078509E+02  0.23413388174E+02  0.51100000000E-03 0.  1.
         12    1    4    4    0    0 -0.20408694092E+01  0.23928082694E+01 -0.72674219819E+01  0.79187184331E+01  0.00000000000E+00 0. -1.
</event>
<event>
 8    1  0.4798632E-010  0.9118800E+02  0.7816164E-02  0.1184000E+00
        -11   -1    0    0    0    0  0.00000000000E+00  0.00000000000E+00  0.45593999997E+02  0.45594000000E+02  0.51100000000E-03 0. -1.
         11   -1    0    0    0    0 -0.00000000000E+00 -0.00000000000E+00 -0.45593999997E+02  0.45594000000E+02  0.51100000000E-03 0.  1.
         23    2    1    2    0    0  0.00000000000E+00  0.00000000000E+00  0.00000000000E+00  0.91188000000E+02  0.91188000000E+02 0.  0.
    9900012    2    3    3    0    0 -0.26864788989E+02 -0.29834505396E+01  0.33955958906E+02  0.47787251046E+02  0.19999908818E+02 0.  0.
        -12    1    3    3    0    0  0.26864788989E+02  0.29834505396E+01 -0.33955958906E+02  0.43400748954E+02  0.00000000000E+00 0.  1.
         11    1    4    4    0    0 -0.22773613562E+02  0.34812479712E+00  0.21950425544E+02  0.31631943465E+02  0.51100000000E-03 0. -1.
        -11    1    4    4    0    0 -0.27697725236E+01 -0.12347190162E+01  0.13099639839E+02  0.13446067642E+02  0.51100000000E-03 0.  1.
         12    1    4    4    0    0 -0.13214029036E+01 -0.20968563205E+01 -0.10941064764E+01  0.27092399385E+01  0.00000000000E+00 0. -1.
</event>
<event>
 8    1  0.4798632E-010  0.9118800E+02  0.7816164E-02  0.1184000E+00
        -11   -1    0    0    0    0  0.00000000000E+00  0.00000000000E+00  0.45593999997E+02  0.45594000000E+02  0.51100000000E-03 0. -1.
         11   -1    0    0    0    0 -0.00000000000E+00 -0.00000000000E+00 -0.45593999997E+02  0.45594000000E+02  0.51100000000E-03 0.  1.
         23    2    1    2    0    0  0.00000000000E+00  0.00000000000E+00  0.00000000000E+00  0.91188000000E+02  0.91188000000E+02 0.  0.
    9900012    2    3    3    0    0  0.20982396231E+02 -0.26763809727E+02  0.26964061336E+02  0.47787273434E+02  0.20000010894E+02 0.  0.
        -12    1    3    3    0    0 -0.20982396231E+02  0.26763809727E+02 -0.26964061336E+02  0.43400726566E+02  0.00000000000E+00 0.  1.
         11    1    4    4    0    0  0.12235267932E+02 -0.54394217399E+01  0.16456055398E+02  0.21215344676E+02  0.51100000000E-03 0. -1.
        -11    1    4    4    0    0  0.56992499871E+00 -0.38468748882E+01 -0.11153726764E+01  0.40456541347E+01  0.51100000000E-03 0.  1.
         12    1    4    4    0    0  0.81772033006E+01 -0.17477513099E+02  0.11623378615E+02  0.22526274623E+02  0.00000000000E+00 0. -1.
</event>
<event>
 8    1  0.4798632E-010  0.9118800E+02  0.7816164E-02  0.1184000E+00
        -11   -1    0    0    0    0  0.00000000000E+00  0.00000000000E+00  0.45593999997E+02  0.45594000000E+02  0.51100000000E-03 0. -1.
         11   -1    0    0    0    0 -0.00000000000E+00 -0.00000000000E+00 -0.45593999997E+02  0.45594000000E+02  0.51100000000E-03 0.  1.
         23    2    1    2    0    0  0.35527136788E-14  0.00000000000E+00  0.00000000000E+00  0.91188000000E+02  0.91188000000E+02 0.  0.
    9900012    2    3    3    0    0 -0.22102405455E+02 -0.58848550973E+01 -0.36884624554E+02  0.47787269880E+02  0.19999994693E+02 0.  0.
         12    1    3    3    0    0  0.22102405455E+02  0.58848550973E+01  0.36884624554E+02  0.43400730120E+02  0.00000000000E+00 0. -1.
         11    1    4    4    0    0 -0.88250119053E+01  0.52429482040E+00 -0.10347078822E+02  0.13609473193E+02  0.51100000000E-03 0. -1.
        -11    1    4    4    0    0 -0.23279549266E+01  0.51279530217E+01 -0.68436049923E+01  0.88628554025E+01  0.51100000000E-03 0.  1.
        -12    1    4    4    0    0 -0.10949438623E+02 -0.11537102939E+02 -0.19693940739E+02  0.25314941285E+02  0.00000000000E+00 0.  1.
</event>
<event>
 8    1  0.4798632E-010  0.9118800E+02  0.7816164E-02  0.1184000E+00
        -11   -1    0    0    0    0  0.00000000000E+00  0.00000000000E+00  0.45593999997E+02  0.45594000000E+02  0.51100000000E-03 0. -1.
         11   -1    0    0    0    0 -0.00000000000E+00 -0.00000000000E+00 -0.45593999997E+02  0.45594000000E+02  0.51100000000E-03 0.  1.
         23    2    1    2    0    0 -0.88817841970E-15 -0.38857805862E-15  0.00000000000E+00  0.91188000000E+02  0.91188000000E+02 0.  0.
    9900012    2    3    3    0    0  0.52212575986E+01  0.36333870706E+00 -0.43083984995E+02  0.47787270640E+02  0.19999998158E+02 0.  0.
         12    1    3    3    0    0 -0.52212575986E+01 -0.36333870706E+00  0.43083984995E+02  0.43400729360E+02  0.00000000000E+00 0. -1.
         11    1    4    4    0    0  0.10934774310E+02 -0.31622139220E+01 -0.22917142543E+02  0.25588362759E+02  0.51100000000E-03 0. -1.
        -11    1    4    4    0    0 -0.66249256024E+01  0.42995290917E+01 -0.18746716547E+02  0.20342442607E+02  0.51100000000E-03 0.  1.
        -12    1    4    4    0    0  0.91140889064E+00 -0.77397646257E+00 -0.14201259044E+01  0.18564652744E+01  0.00000000000E+00 0.  1.
</event>
<event>
 8    1  0.4798632E-010  0.9118800E+02  0.7816164E-02  0.1184000E+00
        -11   -1    0    0    0    0  0.00000000000E+00  0.00000000000E+00  0.45593999997E+02  0.45594000000E+02  0.51100000000E-03 0. -1.
         11   -1    0    0    0    0 -0.00000000000E+00 -0.00000000000E+00 -0.45593999997E+02  0.45594000000E+02  0.51100000000E-03 0.  1.
         23    2    1    2    0    0 -0.71054273576E-14  0.88817841970E-15  0.00000000000E+00  0.91188000000E+02  0.91188000000E+02 0.  0.
    9900012    2    3    3    0    0 -0.35993691995E+02 -0.65322925982E+01  0.23354012232E+02  0.47787232756E+02  0.19999825426E+02 0.  0.
        -12    1    3    3    0    0  0.35993691995E+02  0.65322925982E+01 -0.23354012232E+02  0.43400767244E+02  0.00000000000E+00 0.  1.
         11    1    4    4    0    0 -0.20133588648E+02 -0.77336492539E+01  0.56853755515E+01  0.22304578410E+02  0.51100000000E-03 0. -1.
        -11    1    4    4    0    0 -0.87054236976E+01  0.34879350903E+01  0.14635006577E+02  0.17381988112E+02  0.51100000000E-03 0.  1.
        -12    1    4    4    0    0 -0.71546796498E+01 -0.22865784347E+01  0.30336301036E+01  0.81006662340E+01  0.00000000000E+00 0.  1.
</event>
<event>
 8    1  0.4798632E-010  0.9118800E+02  0.7816164E-02  0.1184000E+00
        -11   -1    0    0    0    0  0.00000000000E+00  0.00000000000E+00  0.45593999997E+02  0.45594000000E+02  0.51100000000E-03 0. -1.
         11   -1    0    0    0    0 -0.00000000000E+00 -0.00000000000E+00 -0.45593999997E+02  0.45594000000E+02  0.51100000000E-03 0.  1.
         23    2    1    2    0    0  0.00000000000E+00  0.00000000000E+00  0.17763568394E-14  0.91188000000E+02  0.91188000000E+02 0.  0.
    9900012    2    3    3    0    0 -0.34712093474E+02  0.20701655382E+02 -0.15815675090E+02  0.47787267892E+02  0.19999985628E+02 0.  0.
         12    1    3    3    0    0  0.34712093474E+02 -0.20701655382E+02  0.15815675090E+02  0.43400732108E+02  0.00000000000E+00 0. -1.
         11    1    4    4    0    0 -0.12279741284E+02  0.10404692263E+02  0.25688742422E+01  0.16298735602E+02  0.51100000000E-03 0. -1.
        -11    1    4    4    0    0 -0.16897587088E+02  0.71904689183E+01 -0.16929819443E+02  0.24976990997E+02  0.51100000000E-03 0.  1.
        -12    1    4    4    0    0 -0.55347651026E+01  0.31064942016E+01 -0.14547298900E+01  0.65115412936E+01  0.00000000000E+00 0.  1.
</event>
<event>
 8    1  0.4798632E-010  0.9118800E+02  0.7816164E-02  0.1184000E+00
        -11   -1    0    0    0    0  0.00000000000E+00  0.00000000000E+00  0.45593999997E+02  0.45594000000E+02  0.51100000000E-03 0. -1.
         11   -1    0    0    0    0 -0.00000000000E+00 -0.00000000000E+00 -0.45593999997E+02  0.45594000000E+02  0.51100000000E-03 0.  1.
         23    2    1    2    0    0  0.00000000000E+00  0.88817841970E-15  0.00000000000E+00  0.91188000000E+02  0.91188000000E+02 0.  0.
    9900012    2    3    3    0    0  0.22590128796E+02  0.58643467810E+01 -0.36591229287E+02  0.47787279466E+02  0.20000038395E+02 0.  0.
         12    1    3    3    0    0 -0.22590128796E+02 -0.58643467810E+01  0.36591229287E+02  0.43400720534E+02  0.00000000000E+00 0. -1.
         11    1    4    4    0    0  0.94875699055E+01  0.10961070992E+02 -0.17038095843E+02  0.22370868785E+02  0.51100000000E-03 0. -1.
        -11    1    4    4    0    0  0.13819333725E+02 -0.31861956068E+01 -0.16711793391E+02  0.21918254165E+02  0.51100000000E-03 0.  1.
         12    1    4    4    0    0 -0.71677483407E+00 -0.19105286038E+01 -0.28413400526E+01  0.34981565150E+01  0.00000000000E+00 0. -1.
</event>
<event>
 8    1  0.4798632E-010  0.9118800E+02  0.7816164E-02  0.1184000E+00
        -11   -1    0    0    0    0  0.00000000000E+00  0.00000000000E+00  0.45593999997E+02  0.45594000000E+02  0.51100000000E-03 0. -1.
         11   -1    0    0    0    0 -0.00000000000E+00 -0.00000000000E+00 -0.45593999997E+02  0.45594000000E+02  0.51100000000E-03 0.  1.
         23    2    1    2    0    0  0.00000000000E+00  0.00000000000E+00  0.00000000000E+00  0.91188000000E+02  0.91188000000E+02 0.  0.
    9900012    2    3    3    0    0  0.11953417147E+02  0.83801348330E+01 -0.40871904000E+02  0.47787269846E+02  0.19999994534E+02 0.  0.
         12    1    3    3    0    0 -0.11953417147E+02 -0.83801348330E+01  0.40871904000E+02  0.43400730154E+02  0.00000000000E+00 0. -1.
         11    1    4    4    0    0  0.58649941282E+01  0.12308789404E+02 -0.13207750283E+02  0.18982863864E+02  0.51100000000E-03 0. -1.
        -11    1    4    4    0    0  0.53301082991E+01 -0.19983518599E+01 -0.23102065896E+02  0.23793043386E+02  0.51100000000E-03 0.  1.
         12    1    4    4    0    0  0.75831472006E+00 -0.19303027108E+01 -0.45620878217E+01  0.50113625954E+01  0.00000000000E+00 0. -1.
</event>
<event>
 8    1  0.4798632E-010  0.9118800E+02  0.7816164E-02  0.1184000E+00
        -11   -1    0    0    0    0  0.00000000000E+00  0.00000000000E+00  0.45593999997E+02  0.45594000000E+02  0.51100000000E-03 0. -1.
         11   -1    0    0    0    0 -0.00000000000E+00 -0.00000000000E+00 -0.45593999997E+02  0.45594000000E+02  0.51100000000E-03 0.  1.
         23    2    1    2    0    0  0.00000000000E+00 -0.35527136788E-14  0.00000000000E+00  0.91188000000E+02  0.91188000000E+02 0.  0.
    9900012    2    3    3    0    0 -0.26127613036E+01 -0.27787575148E+02  0.33236245254E+02  0.47787264375E+02  0.19999969591E+02 0.  0.
        -12    1    3    3    0    0  0.26127613036E+01  0.27787575148E+02 -0.33236245254E+02  0.43400735625E+02  0.00000000000E+00 0.  1.
         11    1    4    4    0    0 -0.69299232274E+01 -0.60755385592E+01  0.47231671274E+01  0.10355882999E+02  0.51100000000E-03 0. -1.
        -11    1    4    4    0    0  0.38449412641E+01 -0.17830843843E+02  0.28098055698E+02  0.33499601486E+02  0.51100000000E-03 0.  1.
        -12    1    4    4    0    0  0.47222065965E+00 -0.38811927457E+01  0.41502242858E+00  0.39317798892E+01  0.00000000000E+00 0.  1.
</event>
<event>
 8    1  0.4798632E-010  0.9118800E+02  0.7816164E-02  0.1184000E+00
        -11   -1    0    0    0    0  0.00000000000E+00  0.00000000000E+00  0.45593999997E+02  0.45594000000E+02  0.51100000000E-03 0. -1.
         11   -1    0    0    0    0 -0.00000000000E+00 -0.00000000000E+00 -0.45593999997E+02  0.45594000000E+02  0.51100000000E-03 0.  1.
         23    2    1    2    0    0  0.22204460493E-15  0.17763568394E-14 -0.71054273576E-14  0.91188000000E+02  0.91188000000E+02 0.  0.
    9900012    2    3    3    0    0 -0.19953149138E+01 -0.59720898445E+01  0.42941546540E+02  0.47787267772E+02  0.19999985078E+02 0.  0.
        -12    1    3    3    0    0  0.19953149138E+01  0.59720898445E+01 -0.42941546540E+02  0.43400732228E+02  0.00000000000E+00 0.  1.
         11    1    4    4    0    0  0.28100702920E+01 -0.94623378719E+00  0.31565995705E+02  0.31704951325E+02  0.51100000000E-03 0. -1.
        -11    1    4    4    0    0  0.38873685573E+00 -0.56382699407E+01  0.35640248340E+01  0.66815774743E+01  0.51100000000E-03 0.  1.
         12    1    4    4    0    0 -0.51941220615E+01  0.61241388340E+00  0.78115260008E+01  0.94007389718E+01  0.00000000000E+00 0. -1.
</event>
<event>
 8    1  0.4798632E-010  0.9118800E+02  0.7816164E-02  0.1184000E+00
        -11   -1    0    0    0    0  0.00000000000E+00  0.00000000000E+00  0.45593999997E+02  0.45594000000E+02  0.51100000000E-03 0. -1.
         11   -1    0    0    0    0 -0.00000000000E+00 -0.00000000000E+00 -0.45593999997E+02  0.45594000000E+02  0.51100000000E-03 0.  1.
         23    2    1    2    0    0  0.00000000000E+00  0.66613381478E-15  0.00000000000E+00  0.91188000000E+02  0.91188000000E+02 0.  0.
    9900012    2    3    3    0    0 -0.17897072921E+02  0.51486188700E+00 -0.39535400255E+02  0.47787329784E+02  0.20000267815E+02 0.  0.
         12    1    3    3    0    0  0.17897072921E+02 -0.51486188700E+00  0.39535400255E+02  0.43400670216E+02  0.00000000000E+00 0. -1.
         11    1    4    4    0    0 -0.50944248201E+01 -0.52162746566E+01 -0.22433187589E+02  0.23588357111E+02  0.51100000000E-03 0. -1.
        -11    1    4    4    0    0 -0.35961873895E+01  0.68261841377E+01 -0.92814114111E+01  0.12069546457E+02  0.51100000000E-03 0.  1.
         12    1    4    4    0    0 -0.92064607116E+01 -0.10950475941E+01 -0.78208012544E+01  0.12129426216E+02  0.00000000000E+00 0. -1.
</event>
<event>
 8    1  0.4798632E-010  0.9118800E+02  0.7816164E-02  0.1184000E+00
        -11   -1    0    0    0    0  0.00000000000E+00  0.00000000000E+00  0.45593999997E+02  0.45594000000E+02  0.51100000000E-03 0. -1.
         11   -1    0    0    0    0 -0.00000000000E+00 -0.00000000000E+00 -0.45593999997E+02  0.45594000000E+02  0.51100000000E-03 0.  1.
         23    2    1    2    0    0  0.00000000000E+00  0.00000000000E+00  0.74940054162E-15  0.91188000000E+02  0.91188000000E+02 0.  0.
    9900012    2    3    3    0    0 -0.24557602668E+02 -0.35784115309E+02  0.21088637932E+00  0.47787271546E+02  0.20000002287E+02 0.  0.
        -12    1    3    3    0    0  0.24557602668E+02  0.35784115309E+02 -0.21088637932E+00  0.43400728454E+02  0.00000000000E+00 0.  1.
         11    1    4    4    0    0 -0.61335800046E+01 -0.83367948911E+01 -0.54666098870E+01  0.11704989391E+02  0.51100000000E-03 0. -1.
        -11    1    4    4    0    0 -0.15981551491E+02 -0.21683029183E+02  0.97129129273E+01  0.28633973185E+02  0.51100000000E-03 0.  1.
        -12    1    4    4    0    0 -0.24424711724E+01 -0.57642912356E+01 -0.40354166610E+01  0.74483089694E+01  0.00000000000E+00 0.  1.
</event>
<event>
 8    1  0.4798632E-010  0.9118800E+02  0.7816164E-02  0.1184000E+00
        -11   -1    0    0    0    0  0.00000000000E+00  0.00000000000E+00  0.45593999997E+02  0.45594000000E+02  0.51100000000E-03 0. -1.
         11   -1    0    0    0    0 -0.00000000000E+00 -0.00000000000E+00 -0.45593999997E+02  0.45594000000E+02  0.51100000000E-03 0.  1.
         23    2    1    2    0    0 -0.88817841970E-15  0.00000000000E+00 -0.71054273576E-14  0.91188000000E+02  0.91188000000E+02 0.  0.
    9900012    2    3    3    0    0 -0.63644762498E+01 -0.25163361870E+02  0.34783914217E+02  0.47787285411E+02  0.20000065504E+02 0.  0.
        -12    1    3    3    0    0  0.63644762498E+01  0.25163361870E+02 -0.34783914217E+02  0.43400714589E+02  0.00000000000E+00 0.  1.
         11    1    4    4    0    0  0.64441178072E+01 -0.71823446380E+01  0.82477683154E+01  0.12694030536E+02  0.51100000000E-03 0. -1.
        -11    1    4    4    0    0 -0.83419370689E+01 -0.15635097716E+02  0.18611493093E+02  0.25698869042E+02  0.51100000000E-03 0.  1.
         12    1    4    4    0    0 -0.44666569881E+01 -0.23459195162E+01  0.79246528092E+01  0.93943858326E+01  0.00000000000E+00 0. -1.
</event>
<event>
 8    1  0.4798632E-010  0.9118800E+02  0.7816164E-02  0.1184000E+00
        -11   -1    0    0    0    0  0.00000000000E+00  0.00000000000E+00  0.45593999997E+02  0.45594000000E+02  0.51100000000E-03 0. -1.
         11   -1    0    0    0    0 -0.00000000000E+00 -0.00000000000E+00 -0.45593999997E+02  0.45594000000E+02  0.51100000000E-03 0.  1.
         23    2    1    2    0    0  0.88817841970E-15  0.00000000000E+00  0.00000000000E+00  0.91188000000E+02  0.91188000000E+02 0.  0.
    9900012    2    3    3    0    0  0.76849072630E+01  0.10429436336E+02 -0.41422121120E+02  0.47787273509E+02  0.20000011235E+02 0.  0.
         12    1    3    3    0    0 -0.76849072630E+01 -0.10429436336E+02  0.41422121120E+02  0.43400726491E+02  0.00000000000E+00 0. -1.
         11    1    4    4    0    0  0.15244312215E+00 -0.42235129412E+01 -0.19505747000E+01  0.46546796229E+01  0.51100000000E-03 0. -1.
        -11    1    4    4    0    0  0.56044418853E+01  0.14169193559E+02 -0.32709721430E+02  0.36084646198E+02  0.51100000000E-03 0.  1.
         12    1    4    4    0    0  0.19280222555E+01  0.48375571811E+00 -0.67618249898E+01  0.70479476874E+01  0.00000000000E+00 0. -1.
</event>
<event>
 8    1  0.4798632E-010  0.9118800E+02  0.7816164E-02  0.1184000E+00
        -11   -1    0    0    0    0  0.00000000000E+00  0.00000000000E+00  0.45593999997E+02  0.45594000000E+02  0.51100000000E-03 0. -1.
         11   -1    0    0    0    0 -0.00000000000E+00 -0.00000000000E+00 -0.45593999997E+02  0.45594000000E+02  0.51100000000E-03 0.  1.
         23    2    1    2    0    0  0.22204460493E-15  0.00000000000E+00 -0.71054273576E-14  0.91188000000E+02  0.91188000000E+02 0.  0.
    9900012    2    3    3    0    0 -0.16299051485E+01  0.11286813098E+02 -0.41875706131E+02  0.47787268386E+02  0.19999987878E+02 0.  0.
         12    1    3    3    0    0  0.16299051485E+01 -0.11286813098E+02  0.41875706131E+02  0.43400731614E+02  0.00000000000E+00 0. -1.
         11    1    4    4    0    0 -0.24499717558E+01  0.25300867794E+01 -0.50613516256E+01  0.61661155726E+01  0.51100000000E-03 0. -1.
        -11    1    4    4    0    0 -0.34560893584E+01 -0.33382780096E+01 -0.19432929122E+02  0.20018176446E+02  0.51100000000E-03 0.  1.
        -12    1    4    4    0    0  0.42761559657E+01  0.12095004328E+02 -0.17381425384E+02  0.21602976367E+02  0.00000000000E+00 0.  1.
</event>
<event>
 8    1  0.4798632E-010  0.9118800E+02  0.7816164E-02  0.1184000E+00
        -11   -1    0    0    0    0  0.00000000000E+00  0.00000000000E+00  0.45593999997E+02  0.45594000000E+02  0.51100000000E-03 0. -1.
         11   -1    0    0    0    0 -0.00000000000E+00 -0.00000000000E+00 -0.45593999997E+02  0.45594000000E+02  0.51100000000E-03 0.  1.
         23    2    1    2    0    0 -0.35527136788E-14 -0.44408920985E-15  0.00000000000E+00  0.91188000000E+02  0.91188000000E+02 0.  0.
    9900012    2    3    3    0    0  0.29587035955E+02 -0.32375893258E+01  0.31587161901E+02  0.47787268691E+02  0.19999989270E+02 0.  0.
        -12    1    3    3    0    0 -0.29587035955E+02  0.32375893258E+01 -0.31587161901E+02  0.43400731309E+02  0.00000000000E+00 0.  1.
         11    1    4    4    0    0  0.28926467923E+02 -0.39616898704E+01  0.28026873643E+02  0.40471486007E+02  0.51100000000E-03 0. -1.
        -11    1    4    4    0    0 -0.14337916810E+00 -0.64704400236E+00 -0.16978753479E+01  0.18226366848E+01  0.51100000000E-03 0.  1.
        -12    1    4    4    0    0  0.80394719951E+00  0.13711445470E+01  0.52581636058E+01  0.54931459997E+01  0.00000000000E+00 0.  1.
</event>
<event>
 8    1  0.6929440E-010  0.9118800E+02  0.7816164E-02  0.1184000E+00
        -11   -1    0    0    0    0  0.00000000000E+00  0.00000000000E+00  0.45593999997E+02  0.45594000000E+02  0.51100000000E-03 0. -1.
         11   -1    0    0    0    0 -0.00000000000E+00 -0.00000000000E+00 -0.45593999997E+02  0.45594000000E+02  0.51100000000E-03 0.  1.
         23    2    1    2    0    0  0.00000000000E+00 -0.17763568394E-14  0.71054273576E-14  0.91188000000E+02  0.91188000000E+02 0.  0.
    9900012    2    3    3    0    0 -0.20046124735E+02  0.12084044862E+02 -0.36547940052E+02  0.47787272135E+02  0.20000004974E+02 0.  0.
         12    1    3    3    0    0  0.20046124735E+02 -0.12084044862E+02  0.36547940052E+02  0.43400727865E+02  0.00000000000E+00 0. -1.
         11    1    4    4    0    0 -0.35557228173E+01 -0.28984507184E+01 -0.84410303158E+01  0.96070377523E+01  0.51100000000E-03 0. -1.
        -11    1    4    4    0    0 -0.93207103517E+01  0.13597626907E+02 -0.11681116815E+02  0.20204444790E+02  0.51100000000E-03 0.  1.
        -12    1    4    4    0    0 -0.71696915658E+01  0.13848686729E+01 -0.16425792921E+02  0.17975789593E+02  0.00000000000E+00 0.  1.
</event>
<event>
 8    1  0.4798632E-010  0.9118800E+02  0.7816164E-02  0.1184000E+00
        -11   -1    0    0    0    0  0.00000000000E+00  0.00000000000E+00  0.45593999997E+02  0.45594000000E+02  0.51100000000E-03 0. -1.
         11   -1    0    0    0    0 -0.00000000000E+00 -0.00000000000E+00 -0.45593999997E+02  0.45594000000E+02  0.51100000000E-03 0.  1.
         23    2    1    2    0    0  0.00000000000E+00  0.00000000000E+00  0.88817841970E-15  0.91188000000E+02  0.91188000000E+02 0.  0.
    9900012    2    3    3    0    0 -0.42716937265E+02  0.10305856471E+01 -0.76042403384E+01  0.47787270661E+02  0.19999998250E+02 0.  0.
         12    1    3    3    0    0  0.42716937265E+02 -0.10305856471E+01  0.76042403384E+01  0.43400729339E+02  0.00000000000E+00 0. -1.
         11    1    4    4    0    0 -0.12630626360E+02 -0.15600598465E+01  0.45625887094E+00  0.12734782345E+02  0.51100000000E-03 0. -1.
        -11    1    4    4    0    0 -0.11377839673E+02  0.33880074728E+01  0.42877051172E+01  0.12622133167E+02  0.51100000000E-03 0.  1.
        -12    1    4    4    0    0 -0.18708471232E+02 -0.79736197923E+00 -0.12348204327E+02  0.22430355148E+02  0.00000000000E+00 0.  1.
</event>
<event>
 8    1  0.4798632E-010  0.9118800E+02  0.7816164E-02  0.1184000E+00
        -11   -1    0    0    0    0  0.00000000000E+00  0.00000000000E+00  0.45593999997E+02  0.45594000000E+02  0.51100000000E-03 0. -1.
         11   -1    0    0    0    0 -0.00000000000E+00 -0.00000000000E+00 -0.45593999997E+02  0.45594000000E+02  0.51100000000E-03 0.  1.
         23    2    1    2    0    0  0.00000000000E+00 -0.17763568394E-14 -0.71054273576E-14  0.91188000000E+02  0.91188000000E+02 0.  0.
    9900012    2    3    3    0    0 -0.19892999392E+02  0.10909285067E+02  0.36998388269E+02  0.47787255076E+02  0.19999927193E+02 0.  0.
        -12    1    3    3    0    0  0.19892999392E+02 -0.10909285067E+02 -0.36998388269E+02  0.43400744924E+02  0.00000000000E+00 0.  1.
         11    1    4    4    0    0 -0.17658017715E+02  0.36537336431E+01  0.32155053826E+02  0.36866012070E+02  0.51100000000E-03 0. -1.
        -11    1    4    4    0    0 -0.30633714187E+01  0.78818198277E+01  0.33352130183E+01  0.90901581055E+01  0.51100000000E-03 0.  1.
         12    1    4    4    0    0  0.82838974203E+00 -0.62626840425E+00  0.15081214251E+01  0.18310849002E+01  0.00000000000E+00 0. -1.
</event>
<event>
 8    1  0.4798632E-010  0.9118800E+02  0.7816164E-02  0.1184000E+00
        -11   -1    0    0    0    0  0.00000000000E+00  0.00000000000E+00  0.45593999997E+02  0.45594000000E+02  0.51100000000E-03 0. -1.
         11   -1    0    0    0    0 -0.00000000000E+00 -0.00000000000E+00 -0.45593999997E+02  0.45594000000E+02  0.51100000000E-03 0.  1.
         23    2    1    2    0    0  0.17763568394E-14 -0.35527136788E-14  0.00000000000E+00  0.91188000000E+02  0.91188000000E+02 0.  0.
    9900012    2    3    3    0    0  0.81174214459E+01 -0.21543334510E+02  0.36791515639E+02  0.47787269410E+02  0.19999992549E+02 0.  0.
        -12    1    3    3    0    0 -0.81174214459E+01  0.21543334510E+02 -0.36791515639E+02  0.43400730590E+02  0.00000000000E+00 0.  1.
         11    1    4    4    0    0 -0.21440103551E+01 -0.19114804887E+02  0.21768113669E+02  0.29048637132E+02  0.51100000000E-03 0. -1.
        -11    1    4    4    0    0  0.63932931254E+01 -0.18314479861E+01  0.12259461564E+02  0.13947142963E+02  0.51100000000E-03 0.  1.
         12    1    4    4    0    0  0.38681386756E+01 -0.59708163670E+00  0.27639404054E+01  0.47914893153E+01  0.00000000000E+00 0. -1.
</event>
<event>
 8    1  0.4798632E-010  0.9118800E+02  0.7816164E-02  0.1184000E+00
        -11   -1    0    0    0    0  0.00000000000E+00  0.00000000000E+00  0.45593999997E+02  0.45594000000E+02  0.51100000000E-03 0. -1.
         11   -1    0    0    0    0 -0.00000000000E+00 -0.00000000000E+00 -0.45593999997E+02  0.45594000000E+02  0.51100000000E-03 0.  1.
         23    2    1    2    0    0  0.17763568394E-14  0.00000000000E+00 -0.71054273576E-14  0.91188000000E+02  0.91188000000E+02 0.  0.
    9900012    2    3    3    0    0  0.15009580603E+02 -0.15662433897E+02  0.37590211355E+02  0.47787270338E+02  0.19999996781E+02 0.  0.
        -12    1    3    3    0    0 -0.15009580603E+02  0.15662433897E+02 -0.37590211355E+02  0.43400729662E+02  0.00000000000E+00 0.  1.
         11    1    4    4    0    0  0.25219228333E+01  0.18052627799E+01  0.17293336167E+02  0.17569249970E+02  0.51100000000E-03 0. -1.
        -11    1    4    4    0    0  0.47835334811E+01 -0.73779299083E+01  0.42768461493E+01  0.97779065011E+01  0.51100000000E-03 0.  1.
         12    1    4    4    0    0  0.77041242882E+01 -0.10089766768E+02  0.16020029039E+02  0.20440113867E+02  0.00000000000E+00 0. -1.
</event>
<event>
 8    1  0.4798632E-010  0.9118800E+02  0.7816164E-02  0.1184000E+00
        -11   -1    0    0    0    0  0.00000000000E+00  0.00000000000E+00  0.45593999997E+02  0.45594000000E+02  0.51100000000E-03 0. -1.
         11   -1    0    0    0    0 -0.00000000000E+00 -0.00000000000E+00 -0.45593999997E+02  0.45594000000E+02  0.51100000000E-03 0.  1.
         23    2    1    2    0    0  0.88817841970E-15  0.35527136788E-14  0.71054273576E-14  0.91188000000E+02  0.91188000000E+02 0.  0.
    9900012    2    3    3    0    0 -0.41367889453E+01 -0.26352269328E+02 -0.34235481016E+02  0.47787270953E+02  0.19999999581E+02 0.  0.
         12    1    3    3    0    0  0.41367889453E+01  0.26352269328E+02  0.34235481016E+02  0.43400729047E+02  0.00000000000E+00 0. -1.
         11    1    4    4    0    0  0.27586747282E+01  0.53319802258E-01  0.49962747118E+00  0.28040608283E+01  0.51100000000E-03 0. -1.
        -11    1    4    4    0    0 -0.39099095283E+01 -0.58981617898E+01 -0.47096286099E+01  0.85003709874E+01  0.51100000000E-03 0.  1.
         12    1    4    4    0    0 -0.29855541452E+01 -0.20507427340E+02 -0.30025479877E+02  0.36482839137E+02  0.00000000000E+00 0. -1.
</event>
<event>
 8    1  0.4798632E-010  0.9118800E+02  0.7816164E-02  0.1184000E+00
        -11   -1    0    0    0    0  0.00000000000E+00  0.00000000000E+00  0.45593999997E+02  0.45594000000E+02  0.51100000000E-03 0. -1.
         11   -1    0    0    0    0 -0.00000000000E+00 -0.00000000000E+00 -0.45593999997E+02  0.45594000000E+02  0.51100000000E-03 0.  1.
         23    2    1    2    0    0  0.00000000000E+00  0.00000000000E+00  0.00000000000E+00  0.91188000000E+02  0.91188000000E+02 0.  0.
    9900012    2    3    3    0    0 -0.27855657854E+02  0.16277093138E+02 -0.29030032005E+02  0.47787260447E+02  0.19999951683E+02 0.  0.
         12    1    3    3    0    0  0.27855657854E+02 -0.16277093138E+02  0.29030032005E+02  0.43400739553E+02  0.00000000000E+00 0. -1.
         11    1    4    4    0    0 -0.14825395307E+02  0.16292485474E+02 -0.15293559286E+02  0.26816606512E+02  0.51100000000E-03 0. -1.
        -11    1    4    4    0    0 -0.13483469333E+02 -0.13599832591E+01 -0.14046635796E+02  0.19518234479E+02  0.51100000000E-03 0.  1.
         12    1    4    4    0    0  0.45320678610E+00  0.13445909227E+01  0.31016307759E+00  0.14524194556E+01  0.00000000000E+00 0. -1.
</event>
<event>
 8    1  0.4798632E-010  0.9118800E+02  0.7816164E-02  0.1184000E+00
        -11   -1    0    0    0    0  0.00000000000E+00  0.00000000000E+00  0.45593999997E+02  0.45594000000E+02  0.51100000000E-03 0. -1.
         11   -1    0    0    0    0 -0.00000000000E+00 -0.00000000000E+00 -0.45593999997E+02  0.45594000000E+02  0.51100000000E-03 0.  1.
         23    2    1    2    0    0  0.00000000000E+00  0.71054273576E-14 -0.44408920985E-15  0.91188000000E+02  0.91188000000E+02 0.  0.
    9900012    2    3    3    0    0  0.48700326037E+01  0.43021654406E+02 -0.30071345435E+01  0.47787276233E+02  0.20000023655E+02 0.  0.
        -12    1    3    3    0    0 -0.48700326037E+01 -0.43021654406E+02  0.30071345435E+01  0.43400723767E+02  0.00000000000E+00 0.  1.
         11    1    4    4    0    0  0.28350621220E+01  0.32817398490E+02  0.11789254125E+01  0.32960720354E+02  0.51100000000E-03 0. -1.
        -11    1    4    4    0    0  0.49310668188E+01  0.17215674219E+01 -0.10288047470E+01  0.53233122986E+01  0.51100000000E-03 0.  1.
         12    1    4    4    0    0 -0.28960963371E+01  0.84826884939E+01 -0.31572552091E+01  0.95032435796E+01  0.00000000000E+00 0. -1.
</event>
<event>
 8    1  0.4798632E-010  0.9118800E+02  0.7816164E-02  0.1184000E+00
        -11   -1    0    0    0    0  0.00000000000E+00  0.00000000000E+00  0.45593999997E+02  0.45594000000E+02  0.51100000000E-03 0.  1.
         11   -1    0    0    0    0 -0.00000000000E+00 -0.00000000000E+00 -0.45593999997E+02  0.45594000000E+02  0.51100000000E-03 0. -1.
         23    2    1    2    0    0  0.35527136788E-14 -0.35527136788E-14 -0.35527136788E-14  0.91188000000E+02  0.91188000000E+02 0.  0.
    9900012    2    3    3    0    0  0.24746962680E+02 -0.23417252758E+02 -0.26885746237E+02  0.47787271443E+02  0.20000001816E+02 0.  0.
        -12    1    3    3    0    0 -0.24746962680E+02  0.23417252758E+02  0.26885746237E+02  0.43400728557E+02  0.00000000000E+00 0.  1.
         11    1    4    4    0    0  0.19343303974E+02 -0.63186520334E+01 -0.16519535206E+02  0.26210376110E+02  0.51100000000E-03 0. -1.
        -11    1    4    4    0    0 -0.53345386143E+00  0.21821900765E+00 -0.89500469010E-01  0.58326936543E+00  0.51100000000E-03 0.  1.
         12    1    4    4    0    0  0.59371125671E+01 -0.17316819732E+02 -0.10276710562E+02  0.20993625967E+02  0.00000000000E+00 0. -1.
</event>
<event>
 8    1  0.4798632E-010  0.9118800E+02  0.7816164E-02  0.1184000E+00
        -11   -1    0    0    0    0  0.00000000000E+00  0.00000000000E+00  0.45593999997E+02  0.45594000000E+02  0.51100000000E-03 0. -1.
         11   -1    0    0    0    0 -0.00000000000E+00 -0.00000000000E+00 -0.45593999997E+02  0.45594000000E+02  0.51100000000E-03 0.  1.
         23    2    1    2    0    0  0.00000000000E+00 -0.17763568394E-14 -0.35527136788E-14  0.91188000000E+02  0.91188000000E+02 0.  0.
    9900012    2    3    3    0    0 -0.31176027586E+02 -0.69821224520E+01 -0.29375685832E+02  0.47787243692E+02  0.19999875291E+02 0.  0.
         12    1    3    3    0    0  0.31176027586E+02  0.69821224520E+01  0.29375685832E+02  0.43400756308E+02  0.00000000000E+00 0. -1.
         11    1    4    4    0    0 -0.25949635418E+01  0.42291891192E+01 -0.75484470962E+01  0.90332126187E+01  0.51100000000E-03 0. -1.
        -11    1    4    4    0    0 -0.19298865325E+02 -0.11148033836E+02 -0.12315760010E+02  0.25463754753E+02  0.51100000000E-03 0.  1.
        -12    1    4    4    0    0 -0.92821987196E+01 -0.63277735170E-01 -0.95114787250E+01  0.13290276321E+02  0.00000000000E+00 0.  1.
</event>
<event>
 8    1  0.4798632E-010  0.9118800E+02  0.7816164E-02  0.1184000E+00
        -11   -1    0    0    0    0  0.00000000000E+00  0.00000000000E+00  0.45593999997E+02  0.45594000000E+02  0.51100000000E-03 0. -1.
         11   -1    0    0    0    0 -0.00000000000E+00 -0.00000000000E+00 -0.45593999997E+02  0.45594000000E+02  0.51100000000E-03 0.  1.
         23    2    1    2    0    0  0.88817841970E-15  0.00000000000E+00  0.00000000000E+00  0.91188000000E+02  0.91188000000E+02 0.  0.
    9900012    2    3    3    0    0 -0.73793716498E+01  0.22189090548E+02  0.36562450472E+02  0.47787266714E+02  0.19999980254E+02 0.  0.
        -12    1    3    3    0    0  0.73793716498E+01 -0.22189090548E+02 -0.36562450472E+02  0.43400733286E+02  0.00000000000E+00 0.  1.
         11    1    4    4    0    0 -0.13821857592E+01  0.11824215668E+02  0.76599606111E+01  0.14156182765E+02  0.51100000000E-03 0. -1.
        -11    1    4    4    0    0 -0.85283832841E+00  0.78047345882E+01  0.26066389091E+02  0.27223112528E+02  0.51100000000E-03 0.  1.
        -12    1    4    4    0    0 -0.51443475622E+01  0.25601402913E+01  0.28361007694E+01  0.64079714205E+01  0.00000000000E+00 0.  1.
</event>
<event>
 8    1  0.4798632E-010  0.9118800E+02  0.7816164E-02  0.1184000E+00
        -11   -1    0    0    0    0  0.00000000000E+00  0.00000000000E+00  0.45593999997E+02  0.45594000000E+02  0.51100000000E-03 0. -1.
         11   -1    0    0    0    0 -0.00000000000E+00 -0.00000000000E+00 -0.45593999997E+02  0.45594000000E+02  0.51100000000E-03 0.  1.
         23    2    1    2    0    0  0.00000000000E+00  0.00000000000E+00  0.00000000000E+00  0.91188000000E+02  0.91188000000E+02 0.  0.
    9900012    2    3    3    0    0  0.17920126897E+02  0.80217480003E+01  0.38705864736E+02  0.47787270122E+02  0.19999995793E+02 0.  0.
        -12    1    3    3    0    0 -0.17920126897E+02 -0.80217480003E+01 -0.38705864736E+02  0.43400729878E+02  0.00000000000E+00 0.  1.
         11    1    4    4    0    0  0.79142843716E+01  0.12695439060E+02  0.19744396141E+02  0.24771985170E+02  0.51100000000E-03 0. -1.
        -11    1    4    4    0    0  0.37419674519E+01 -0.23504820649E+01  0.21281978043E+01  0.49047234891E+01  0.51100000000E-03 0.  1.
         12    1    4    4    0    0  0.62638750731E+01 -0.23232089947E+01  0.16833270791E+02  0.18110561462E+02  0.00000000000E+00 0. -1.
</event>
<event>
 8    1  0.4798632E-010  0.9118800E+02  0.7816164E-02  0.1184000E+00
        -11   -1    0    0    0    0  0.00000000000E+00  0.00000000000E+00  0.45593999997E+02  0.45594000000E+02  0.51100000000E-03 0. -1.
         11   -1    0    0    0    0 -0.00000000000E+00 -0.00000000000E+00 -0.45593999997E+02  0.45594000000E+02  0.51100000000E-03 0.  1.
         23    2    1    2    0    0  0.00000000000E+00  0.00000000000E+00  0.00000000000E+00  0.91188000000E+02  0.91188000000E+02 0.  0.
    9900012    2    3    3    0    0  0.23117002696E+02 -0.30863117604E+02 -0.19917206445E+02  0.47787274724E+02  0.20000016777E+02 0.  0.
         12    1    3    3    0    0 -0.23117002696E+02  0.30863117604E+02  0.19917206445E+02  0.43400725276E+02  0.00000000000E+00 0. -1.
         11    1    4    4    0    0  0.89401746640E+01 -0.96094633619E+01  0.12948725815E+01  0.13188828773E+02  0.51100000000E-03 0. -1.
        -11    1    4    4    0    0  0.15441849703E+02 -0.20953454505E+02 -0.20070981401E+02  0.32868560550E+02  0.51100000000E-03 0.  1.
        -12    1    4    4    0    0 -0.12650216715E+01 -0.30019973718E+00 -0.11410976252E+01  0.17298854014E+01  0.00000000000E+00 0.  1.
</event>
<event>
 8    1  0.4798632E-010  0.9118800E+02  0.7816164E-02  0.1184000E+00
        -11   -1    0    0    0    0  0.00000000000E+00  0.00000000000E+00  0.45593999997E+02  0.45594000000E+02  0.51100000000E-03 0. -1.
         11   -1    0    0    0    0 -0.00000000000E+00 -0.00000000000E+00 -0.45593999997E+02  0.45594000000E+02  0.51100000000E-03 0.  1.
         23    2    1    2    0    0  0.71054273576E-14  0.35527136788E-14 -0.17763568394E-14  0.91188000000E+02  0.91188000000E+02 0.  0.
    9900012    2    3    3    0    0 -0.40416952199E+02 -0.10241756253E+02  0.12049866351E+02  0.47787275637E+02  0.20000020938E+02 0.  0.
        -12    1    3    3    0    0  0.40416952199E+02  0.10241756253E+02 -0.12049866351E+02  0.43400724363E+02  0.00000000000E+00 0.  1.
         11    1    4    4    0    0 -0.20637215439E+02 -0.12695957685E+02  0.38102037621E+01  0.24527528526E+02  0.51100000000E-03 0. -1.
        -11    1    4    4    0    0 -0.53382951086E+01  0.42424920988E+01  0.65557333962E+00  0.68502489400E+01  0.51100000000E-03 0.  1.
        -12    1    4    4    0    0 -0.14441441651E+02 -0.17882906666E+01  0.75840892490E+01  0.16409498171E+02  0.00000000000E+00 0.  1.
</event>
<event>
 8    1  0.4798632E-010  0.9118800E+02  0.7816164E-02  0.1184000E+00
        -11   -1    0    0    0    0  0.00000000000E+00  0.00000000000E+00  0.45593999997E+02  0.45594000000E+02  0.51100000000E-03 0. -1.
         11   -1    0    0    0    0 -0.00000000000E+00 -0.00000000000E+00 -0.45593999997E+02  0.45594000000E+02  0.51100000000E-03 0.  1.
         23    2    1    2    0    0  0.00000000000E+00  0.00000000000E+00  0.00000000000E+00  0.91188000000E+02  0.91188000000E+02 0.  0.
    9900012    2    3    3    0    0 -0.23141353522E+02  0.23686867560E+01 -0.36640004276E+02  0.47787276122E+02  0.20000023149E+02 0.  0.
         12    1    3    3    0    0  0.23141353522E+02 -0.23686867560E+01  0.36640004276E+02  0.43400723878E+02  0.00000000000E+00 0. -1.
         11    1    4    4    0    0 -0.14758100302E+02  0.75136732757E+00 -0.98809307717E+01  0.17776357067E+02  0.51100000000E-03 0. -1.
        -11    1    4    4    0    0 -0.65753534974E+01  0.26329545971E+01 -0.63986765721E+01  0.95451969944E+01  0.51100000000E-03 0.  1.
         12    1    4    4    0    0 -0.18078997228E+01 -0.10156351687E+01 -0.20360396933E+02  0.20465722060E+02  0.00000000000E+00 0. -1.
</event>
<event>
 8    1  0.4798632E-010  0.9118800E+02  0.7816164E-02  0.1184000E+00
        -11   -1    0    0    0    0  0.00000000000E+00  0.00000000000E+00  0.45593999997E+02  0.45594000000E+02  0.51100000000E-03 0. -1.
         11   -1    0    0    0    0 -0.00000000000E+00 -0.00000000000E+00 -0.45593999997E+02  0.45594000000E+02  0.51100000000E-03 0.  1.
         23    2    1    2    0    0  0.00000000000E+00  0.17763568394E-14  0.00000000000E+00  0.91188000000E+02  0.91188000000E+02 0.  0.
    9900012    2    3    3    0    0 -0.40370841224E+02 -0.14559241035E+02 -0.64689123736E+01  0.47787272495E+02  0.20000006616E+02 0.  0.
         12    1    3    3    0    0  0.40370841224E+02  0.14559241035E+02  0.64689123736E+01  0.43400727505E+02  0.00000000000E+00 0. -1.
         11    1    4    4    0    0 -0.13655518207E+02  0.43726701273E+01 -0.35578496967E+01  0.14773344789E+02  0.51100000000E-03 0. -1.
        -11    1    4    4    0    0 -0.10417951049E+02 -0.84438260856E+01  0.38844798916E-01  0.13410198067E+02  0.51100000000E-03 0.  1.
         12    1    4    4    0    0 -0.16297371969E+02 -0.10488085077E+02 -0.29499074758E+01  0.19603729639E+02  0.00000000000E+00 0. -1.
</event>
<event>
 8    1  0.4798632E-010  0.9118800E+02  0.7816164E-02  0.1184000E+00
        -11   -1    0    0    0    0  0.00000000000E+00  0.00000000000E+00  0.45593999997E+02  0.45594000000E+02  0.51100000000E-03 0. -1.
         11   -1    0    0    0    0 -0.00000000000E+00 -0.00000000000E+00 -0.45593999997E+02  0.45594000000E+02  0.51100000000E-03 0.  1.
         23    2    1    2    0    0  0.00000000000E+00  0.00000000000E+00  0.00000000000E+00  0.91188000000E+02  0.91188000000E+02 0.  0.
    9900012    2    3    3    0    0 -0.11312502107E+02 -0.23640648340E+02 -0.34594369435E+02  0.47787270116E+02  0.19999995767E+02 0.  0.
         12    1    3    3    0    0  0.11312502107E+02  0.23640648340E+02  0.34594369435E+02  0.43400729884E+02  0.00000000000E+00 0. -1.
         11    1    4    4    0    0 -0.38449750419E+00 -0.12685147241E+02 -0.64295603656E+01  0.14226736998E+02  0.51100000000E-03 0. -1.
        -11    1    4    4    0    0 -0.11891921372E+02 -0.84646063261E+01 -0.18679463377E+02  0.23706322078E+02  0.51100000000E-03 0.  1.
         12    1    4    4    0    0  0.96391676878E+00 -0.24908947724E+01 -0.94853456929E+01  0.98542110399E+01  0.00000000000E+00 0. -1.
</event>
<event>
 8    1  0.4798632E-010  0.9118800E+02  0.7816164E-02  0.1184000E+00
        -11   -1    0    0    0    0  0.00000000000E+00  0.00000000000E+00  0.45593999997E+02  0.45594000000E+02  0.51100000000E-03 0. -1.
         11   -1    0    0    0    0 -0.00000000000E+00 -0.00000000000E+00 -0.45593999997E+02  0.45594000000E+02  0.51100000000E-03 0.  1.
         23    2    1    2    0    0  0.00000000000E+00 -0.88817841970E-15  0.00000000000E+00  0.91188000000E+02  0.91188000000E+02 0.  0.
    9900012    2    3    3    0    0 -0.28629443405E+02 -0.48337517921E+01  0.32258529052E+02  0.47787275551E+02  0.20000020546E+02 0.  0.
        -12    1    3    3    0    0  0.28629443405E+02  0.48337517921E+01 -0.32258529052E+02  0.43400724449E+02  0.00000000000E+00 0.  1.
         11    1    4    4    0    0 -0.17071222602E+02 -0.96219619351E+01  0.15912838861E+02  0.25243360186E+02  0.51100000000E-03 0. -1.
        -11    1    4    4    0    0 -0.72979461327E+01  0.48854107998E+01  0.16020992761E+02  0.18270179685E+02  0.51100000000E-03 0.  1.
        -12    1    4    4    0    0 -0.42602746703E+01 -0.97200656830E-01  0.32469743103E+00  0.42737356792E+01  0.00000000000E+00 0.  1.
</event>
<event>
 8    1  0.4798632E-010  0.9118800E+02  0.7816164E-02  0.1184000E+00
        -11   -1    0    0    0    0  0.00000000000E+00  0.00000000000E+00  0.45593999997E+02  0.45594000000E+02  0.51100000000E-03 0. -1.
         11   -1    0    0    0    0 -0.00000000000E+00 -0.00000000000E+00 -0.45593999997E+02  0.45594000000E+02  0.51100000000E-03 0.  1.
         23    2    1    2    0    0 -0.22204460493E-15  0.00000000000E+00 -0.71054273576E-14  0.91188000000E+02  0.91188000000E+02 0.  0.
    9900012    2    3    3    0    0 -0.78544091747E+00 -0.14096230399E+02 -0.41040256235E+02  0.47787271196E+02  0.20000000690E+02 0.  0.
         12    1    3    3    0    0  0.78544091747E+00  0.14096230399E+02  0.41040256235E+02  0.43400728804E+02  0.00000000000E+00 0. -1.
         11    1    4    4    0    0 -0.54833048896E+00  0.20583038727E+01 -0.17152287223E+02  0.17284045776E+02  0.51100000000E-03 0. -1.
        -11    1    4    4    0    0  0.25318139453E+01 -0.15519664276E+02 -0.22179637374E+02  0.27188349994E+02  0.51100000000E-03 0.  1.
         12    1    4    4    0    0 -0.27689243739E+01 -0.63486999503E+00 -0.17083316386E+01  0.33148754254E+01  0.00000000000E+00 0. -1.
</event>
<event>
 8    1  0.4798632E-010  0.9118800E+02  0.7816164E-02  0.1184000E+00
        -11   -1    0    0    0    0  0.00000000000E+00  0.00000000000E+00  0.45593999997E+02  0.45594000000E+02  0.51100000000E-03 0. -1.
         11   -1    0    0    0    0 -0.00000000000E+00 -0.00000000000E+00 -0.45593999997E+02  0.45594000000E+02  0.51100000000E-03 0.  1.
         23    2    1    2    0    0  0.88817841970E-15 -0.35527136788E-14  0.00000000000E+00  0.91188000000E+02  0.91188000000E+02 0.  0.
    9900012    2    3    3    0    0 -0.43115432239E+01 -0.24513311338E+02 -0.35554641718E+02  0.47787258239E+02  0.19999941614E+02 0.  0.
         12    1    3    3    0    0  0.43115432239E+01  0.24513311338E+02  0.35554641718E+02  0.43400741761E+02  0.00000000000E+00 0. -1.
         11    1    4    4    0    0 -0.29461260852E+01 -0.12604745598E+02 -0.82026923541E+01  0.15324602201E+02  0.51100000000E-03 0. -1.
        -11    1    4    4    0    0 -0.36120988804E+01 -0.11670796171E+02 -0.27606663572E+02  0.30189114187E+02  0.51100000000E-03 0.  1.
         12    1    4    4    0    0  0.22466817417E+01 -0.23776956854E+00  0.25471420804E+00  0.22735418501E+01  0.00000000000E+00 0. -1.
</event>
<event>
 8    1  0.4798632E-010  0.9118800E+02  0.7816164E-02  0.1184000E+00
        -11   -1    0    0    0    0  0.00000000000E+00  0.00000000000E+00  0.45593999997E+02  0.45594000000E+02  0.51100000000E-03 0. -1.
         11   -1    0    0    0    0 -0.00000000000E+00 -0.00000000000E+00 -0.45593999997E+02  0.45594000000E+02  0.51100000000E-03 0.  1.
         23    2    1    2    0    0  0.00000000000E+00  0.00000000000E+00 -0.35527136788E-14  0.91188000000E+02  0.91188000000E+02 0.  0.
    9900012    2    3    3    0    0  0.37076882797E+02  0.85527380618E+01  0.20875309145E+02  0.47787273069E+02  0.20000009230E+02 0.  0.
        -12    1    3    3    0    0 -0.37076882797E+02 -0.85527380618E+01 -0.20875309145E+02  0.43400726931E+02  0.00000000000E+00 0.  1.
         11    1    4    4    0    0  0.93280963296E+01 -0.35286784787E+01  0.98816431586E+01  0.14039651873E+02  0.51100000000E-03 0. -1.
        -11    1    4    4    0    0  0.17380348523E+02  0.69659444826E+01  0.14941020364E+01  0.18783855794E+02  0.51100000000E-03 0.  1.
         12    1    4    4    0    0  0.10368437944E+02  0.51154720578E+01  0.94995639498E+01  0.14963765402E+02  0.00000000000E+00 0. -1.
</event>
<event>
 8    1  0.4798632E-010  0.9118800E+02  0.7816164E-02  0.1184000E+00
        -11   -1    0    0    0    0  0.00000000000E+00  0.00000000000E+00  0.45593999997E+02  0.45594000000E+02  0.51100000000E-03 0. -1.
         11   -1    0    0    0    0 -0.00000000000E+00 -0.00000000000E+00 -0.45593999997E+02  0.45594000000E+02  0.51100000000E-03 0.  1.
         23    2    1    2    0    0  0.66613381478E-15  0.17763568394E-14  0.00000000000E+00  0.91188000000E+02  0.91188000000E+02 0.  0.
    9900012    2    3    3    0    0 -0.14745524694E+01 -0.56849904303E+01  0.43001508836E+02  0.47787272087E+02  0.20000004756E+02 0.  0.
        -12    1    3    3    0    0  0.14745524694E+01  0.56849904303E+01 -0.43001508836E+02  0.43400727913E+02  0.00000000000E+00 0.  1.
         11    1    4    4    0    0  0.46779954779E+01  0.33084315514E+01  0.12399297884E+02  0.13659134281E+02  0.51100000000E-03 0. -1.
        -11    1    4    4    0    0  0.93273493911E+00  0.64014605018E+00 -0.14191190707E+00  0.11401406416E+01  0.51100000000E-03 0.  1.
         12    1    4    4    0    0 -0.70852828863E+01 -0.96335680319E+01  0.30744122859E+02  0.32987997165E+02  0.00000000000E+00 0. -1.
</event>
<event>
 8    1  0.6031557E-010  0.9118800E+02  0.7816164E-02  0.1184000E+00
        -11   -1    0    0    0    0  0.00000000000E+00  0.00000000000E+00  0.45593999997E+02  0.45594000000E+02  0.51100000000E-03 0. -1.
         11   -1    0    0    0    0 -0.00000000000E+00 -0.00000000000E+00 -0.45593999997E+02  0.45594000000E+02  0.51100000000E-03 0.  1.
         23    2    1    2    0    0 -0.17763568394E-14  0.00000000000E+00  0.00000000000E+00  0.91188000000E+02  0.91188000000E+02 0.  0.
    9900012    2    3    3    0    0 -0.81783576134E+01  0.15705404664E+02 -0.39624209908E+02  0.47787270977E+02  0.19999999693E+02 0.  0.
         12    1    3    3    0    0  0.81783576134E+01 -0.15705404664E+02  0.39624209908E+02  0.43400729023E+02  0.00000000000E+00 0. -1.
         11    1    4    4    0    0 -0.37516683058E+01  0.67143872640E+00 -0.14779065427E+01  0.40877931761E+01  0.51100000000E-03 0. -1.
        -11    1    4    4    0    0  0.53117166662E+01  0.54354409569E+01 -0.12282166064E+02  0.14443336035E+02  0.51100000000E-03 0.  1.
        -12    1    4    4    0    0 -0.97384059738E+01  0.95985249804E+01 -0.25864137301E+02  0.29256141766E+02  0.00000000000E+00 0.  1.
</event>
<event>
 8    1  0.4798632E-010  0.9118800E+02  0.7816164E-02  0.1184000E+00
        -11   -1    0    0    0    0  0.00000000000E+00  0.00000000000E+00  0.45593999997E+02  0.45594000000E+02  0.51100000000E-03 0.  1.
         11   -1    0    0    0    0 -0.00000000000E+00 -0.00000000000E+00 -0.45593999997E+02  0.45594000000E+02  0.51100000000E-03 0. -1.
         23    2    1    2    0    0 -0.17763568394E-14  0.00000000000E+00  0.00000000000E+00  0.91188000000E+02  0.91188000000E+02 0.  0.
    9900012    2    3    3    0    0 -0.93214244527E+01 -0.39030801734E+02 -0.16532730536E+02  0.47787267094E+02  0.19999981988E+02 0.  0.
         12    1    3    3    0    0  0.93214244527E+01  0.39030801734E+02  0.16532730536E+02  0.43400732906E+02  0.00000000000E+00 0. -1.
         11    1    4    4    0    0 -0.46920617418E+01 -0.12496759896E+01  0.11255564564E+01  0.49843766978E+01  0.51100000000E-03 0. -1.
        -11    1    4    4    0    0  0.14152772288E+01 -0.21861985888E+02 -0.11057966435E+02  0.24540335339E+02  0.51100000000E-03 0.  1.
        -12    1    4    4    0    0 -0.60446399396E+01 -0.15919139856E+02 -0.66003205581E+01  0.18262555057E+02  0.00000000000E+00 0.  1.
</event>
<event>
 8    1  0.4798632E-010  0.9118800E+02  0.7816164E-02  0.1184000E+00
        -11   -1    0    0    0    0  0.00000000000E+00  0.00000000000E+00  0.45593999997E+02  0.45594000000E+02  0.51100000000E-03 0. -1.
         11   -1    0    0    0    0 -0.00000000000E+00 -0.00000000000E+00 -0.45593999997E+02  0.45594000000E+02  0.51100000000E-03 0.  1.
         23    2    1    2    0    0  0.35527136788E-14  0.55511151231E-16  0.71054273576E-14  0.91188000000E+02  0.91188000000E+02 0.  0.
    9900012    2    3    3    0    0  0.25031560564E+02  0.41304123966E+00  0.35452416207E+02  0.47787269105E+02  0.19999991157E+02 0.  0.
        -12    1    3    3    0    0 -0.25031560564E+02 -0.41304123966E+00 -0.35452416207E+02  0.43400730895E+02  0.00000000000E+00 0.  1.
         11    1    4    4    0    0 -0.69402292517E+00  0.43546333603E+00  0.24901301065E+01  0.26214584387E+01  0.51100000000E-03 0. -1.
        -11    1    4    4    0    0  0.65367315427E+00 -0.19890906099E+01 -0.14474840776E+01  0.25453841484E+01  0.51100000000E-03 0.  1.
        -12    1    4    4    0    0  0.25071910335E+02  0.19666685135E+01  0.34409770178E+02  0.42620426518E+02  0.00000000000E+00 0.  1.
</event>
<event>
 8    1  0.4798632E-010  0.9118800E+02  0.7816164E-02  0.1184000E+00
        -11   -1    0    0    0    0  0.00000000000E+00  0.00000000000E+00  0.45593999997E+02  0.45594000000E+02  0.51100000000E-03 0. -1.
         11   -1    0    0    0    0 -0.00000000000E+00 -0.00000000000E+00 -0.45593999997E+02  0.45594000000E+02  0.51100000000E-03 0.  1.
         23    2    1    2    0    0  0.00000000000E+00 -0.17763568394E-14  0.71054273576E-14  0.91188000000E+02  0.91188000000E+02 0.  0.
    9900012    2    3    3    0    0  0.50252885424E+01 -0.13606879703E+02  0.40905042660E+02  0.47787271720E+02  0.20000003080E+02 0.  0.
        -12    1    3    3    0    0 -0.50252885424E+01  0.13606879703E+02 -0.40905042660E+02  0.43400728280E+02  0.00000000000E+00 0.  1.
         11    1    4    4    0    0  0.94690404335E+01 -0.58015785713E+01  0.19901860833E+02  0.22790460845E+02  0.51100000000E-03 0. -1.
        -11    1    4    4    0    0 -0.35190533723E+01 -0.10204046257E+02  0.15129408704E+02  0.18585082853E+02  0.51100000000E-03 0.  1.
        -12    1    4    4    0    0 -0.92469851876E+00  0.23987451252E+01  0.58737731234E+01  0.64117280223E+01  0.00000000000E+00 0.  1.
</event>
<event>
 8    1  0.4798632E-010  0.9118800E+02  0.7816164E-02  0.1184000E+00
        -11   -1    0    0    0    0  0.00000000000E+00  0.00000000000E+00  0.45593999997E+02  0.45594000000E+02  0.51100000000E-03 0. -1.
         11   -1    0    0    0    0 -0.00000000000E+00 -0.00000000000E+00 -0.45593999997E+02  0.45594000000E+02  0.51100000000E-03 0.  1.
         23    2    1    2    0    0 -0.35527136788E-14  0.00000000000E+00  0.00000000000E+00  0.91188000000E+02  0.91188000000E+02 0.  0.
    9900012    2    3    3    0    0  0.18322508686E+02 -0.21434988279E+02  0.32991661709E+02  0.47787276625E+02  0.20000025446E+02 0.  0.
        -12    1    3    3    0    0 -0.18322508686E+02  0.21434988279E+02 -0.32991661709E+02  0.43400723375E+02  0.00000000000E+00 0.  1.
         11    1    4    4    0    0 -0.15522829108E+01 -0.13705114424E+01  0.12254900204E+02  0.12428614690E+02  0.51100000000E-03 0.  1.
        -11    1    4    4    0    0  0.11919830014E+02 -0.12995970265E+02  0.15589925087E+02  0.23537700720E+02  0.51100000000E-03 0. -1.
         12    1    4    4    0    0  0.79549615829E+01 -0.70685065716E+01  0.51468364189E+01  0.11820961216E+02  0.00000000000E+00 0. -1.
</event>
<event>
 8    1  0.6664064E-010  0.9118800E+02  0.7816164E-02  0.1184000E+00
        -11   -1    0    0    0    0  0.00000000000E+00  0.00000000000E+00  0.45593999997E+02  0.45594000000E+02  0.51100000000E-03 0. -1.
         11   -1    0    0    0    0 -0.00000000000E+00 -0.00000000000E+00 -0.45593999997E+02  0.45594000000E+02  0.51100000000E-03 0.  1.
         23    2    1    2    0    0  0.00000000000E+00  0.00000000000E+00  0.00000000000E+00  0.91188000000E+02  0.91188000000E+02 0.  0.
    9900012    2    3    3    0    0 -0.11172484307E+02 -0.18459196572E+02 -0.37657102937E+02  0.47787265613E+02  0.19999975238E+02 0.  0.
         12    1    3    3    0    0  0.11172484307E+02  0.18459196572E+02  0.37657102937E+02  0.43400734387E+02  0.00000000000E+00 0. -1.
         11    1    4    4    0    0 -0.40442514431E+01  0.16434068763E+01 -0.11611421006E+01  0.45171901814E+01  0.51100000000E-03 0. -1.
        -11    1    4    4    0    0 -0.44389138748E+01 -0.16165138262E+02 -0.19987034060E+02  0.26086340913E+02  0.51100000000E-03 0.  1.
        -12    1    4    4    0    0 -0.26893189886E+01 -0.39374651861E+01 -0.16508926777E+02  0.17183734519E+02  0.00000000000E+00 0.  1.
</event>
<event>
 8    1  0.4798632E-010  0.9118800E+02  0.7816164E-02  0.1184000E+00
        -11   -1    0    0    0    0  0.00000000000E+00  0.00000000000E+00  0.45593999997E+02  0.45594000000E+02  0.51100000000E-03 0. -1.
         11   -1    0    0    0    0 -0.00000000000E+00 -0.00000000000E+00 -0.45593999997E+02  0.45594000000E+02  0.51100000000E-03 0.  1.
         23    2    1    2    0    0  0.00000000000E+00  0.17763568394E-14 -0.71054273576E-14  0.91188000000E+02  0.91188000000E+02 0.  0.
    9900012    2    3    3    0    0 -0.12766262696E+02 -0.12558433532E+02  0.39533937382E+02  0.47787263590E+02  0.19999966013E+02 0.  0.
        -12    1    3    3    0    0  0.12766262696E+02  0.12558433532E+02 -0.39533937382E+02  0.43400736410E+02  0.00000000000E+00 0.  1.
         11    1    4    4    0    0 -0.35404015359E+01 -0.34030491176E+01  0.45960149924E+01  0.67259601845E+01  0.51100000000E-03 0. -1.
        -11    1    4    4    0    0 -0.13960951458E+02 -0.38982267265E+01  0.23757439168E+02  0.27830203975E+02  0.51100000000E-03 0.  1.
        -12    1    4    4    0    0  0.47350902973E+01 -0.52571576878E+01  0.11180483221E+02  0.13231099430E+02  0.00000000000E+00 0.  1.
</event>
<event>
 8    1  0.4798632E-010  0.9118800E+02  0.7816164E-02  0.1184000E+00
        -11   -1    0    0    0    0  0.00000000000E+00  0.00000000000E+00  0.45593999997E+02  0.45594000000E+02  0.51100000000E-03 0. -1.
         11   -1    0    0    0    0 -0.00000000000E+00 -0.00000000000E+00 -0.45593999997E+02  0.45594000000E+02  0.51100000000E-03 0.  1.
         23    2    1    2    0    0  0.00000000000E+00  0.00000000000E+00  0.00000000000E+00  0.91188000000E+02  0.91188000000E+02 0.  0.
    9900012    2    3    3    0    0  0.94402805233E+01  0.27502262267E+02  0.32220023683E+02  0.47787271293E+02  0.20000001133E+02 0.  0.
        -12    1    3    3    0    0 -0.94402805233E+01 -0.27502262267E+02 -0.32220023683E+02  0.43400728707E+02  0.00000000000E+00 0.  1.
         11    1    4    4    0    0  0.49240461429E+01  0.17566555141E+02  0.29090357994E+02  0.34337720053E+02  0.51100000000E-03 0. -1.
        -11    1    4    4    0    0  0.57555408185E+01  0.10098441784E+02  0.20604183719E+01  0.11804664363E+02  0.51100000000E-03 0.  1.
         12    1    4    4    0    0 -0.12393064382E+01 -0.16273465734E+00  0.10692473167E+01  0.16448868778E+01  0.00000000000E+00 0. -1.
</event>
<event>
 8    1  0.4798632E-010  0.9118800E+02  0.7816164E-02  0.1184000E+00
        -11   -1    0    0    0    0  0.00000000000E+00  0.00000000000E+00  0.45593999997E+02  0.45594000000E+02  0.51100000000E-03 0.  1.
         11   -1    0    0    0    0 -0.00000000000E+00 -0.00000000000E+00 -0.45593999997E+02  0.45594000000E+02  0.51100000000E-03 0. -1.
         23    2    1    2    0    0  0.00000000000E+00  0.00000000000E+00  0.00000000000E+00  0.91188000000E+02  0.91188000000E+02 0.  0.
    9900012    2    3    3    0    0 -0.53638435326E+01  0.22626760025E+02  0.36645359498E+02  0.47787268907E+02  0.19999990252E+02 0.  0.
        -12    1    3    3    0    0  0.53638435326E+01 -0.22626760025E+02 -0.36645359498E+02  0.43400731093E+02  0.00000000000E+00 0.  1.
         11    1    4    4    0    0 -0.22280853856E+01  0.19817941717E+02  0.14379960608E+02  0.24586550099E+02  0.51100000000E-03 0. -1.
        -11    1    4    4    0    0 -0.41966546039E+01  0.19604471222E+01  0.20231069710E+02  0.20754552383E+02  0.51100000000E-03 0.  1.
        -12    1    4    4    0    0  0.10608964568E+01  0.84837118575E+00  0.20343291807E+01  0.24461664245E+01  0.00000000000E+00 0.  1.
</event>
<event>
 8    1  0.4798632E-010  0.9118800E+02  0.7816164E-02  0.1184000E+00
        -11   -1    0    0    0    0  0.00000000000E+00  0.00000000000E+00  0.45593999997E+02  0.45594000000E+02  0.51100000000E-03 0. -1.
         11   -1    0    0    0    0 -0.00000000000E+00 -0.00000000000E+00 -0.45593999997E+02  0.45594000000E+02  0.51100000000E-03 0.  1.
         23    2    1    2    0    0  0.00000000000E+00  0.00000000000E+00  0.00000000000E+00  0.91188000000E+02  0.91188000000E+02 0.  0.
    9900012    2    3    3    0    0 -0.16525495497E+02 -0.88834183548E+01  0.39135854715E+02  0.47787282871E+02  0.20000053921E+02 0.  0.
        -12    1    3    3    0    0  0.16525495497E+02  0.88834183548E+01 -0.39135854715E+02  0.43400717129E+02  0.00000000000E+00 0.  1.
         11    1    4    4    0    0 -0.13528196133E+02 -0.88504942232E+01  0.19270959605E+02  0.25153791424E+02  0.51100000000E-03 0.  1.
        -11    1    4    4    0    0  0.38728920508E+01  0.37005326649E+00  0.59382715364E+01  0.70992465345E+01  0.51100000000E-03 0. -1.
         12    1    4    4    0    0 -0.68701914147E+01 -0.40297739810E+00  0.13926623573E+02  0.15534244913E+02  0.00000000000E+00 0. -1.
</event>
<event>
 8    1  0.4798632E-010  0.9118800E+02  0.7816164E-02  0.1184000E+00
        -11   -1    0    0    0    0  0.00000000000E+00  0.00000000000E+00  0.45593999997E+02  0.45594000000E+02  0.51100000000E-03 0. -1.
         11   -1    0    0    0    0 -0.00000000000E+00 -0.00000000000E+00 -0.45593999997E+02  0.45594000000E+02  0.51100000000E-03 0.  1.
         23    2    1    2    0    0  0.88817841970E-15  0.00000000000E+00  0.00000000000E+00  0.91188000000E+02  0.91188000000E+02 0.  0.
    9900012    2    3    3    0    0 -0.78667496131E+01 -0.13122065049E+02 -0.40614631367E+02  0.47787278557E+02  0.20000034255E+02 0.  0.
         12    1    3    3    0    0  0.78667496131E+01  0.13122065049E+02  0.40614631367E+02  0.43400721443E+02  0.00000000000E+00 0. -1.
         11    1    4    4    0    0 -0.12886974957E+02 -0.37626248691E+01 -0.29416254894E+02  0.32334927272E+02  0.51100000000E-03 0. -1.
        -11    1    4    4    0    0  0.27920033771E+01 -0.53812533685E+01 -0.58589132323E+01  0.84308976508E+01  0.51100000000E-03 0.  1.
         12    1    4    4    0    0  0.22282219664E+01 -0.39781868116E+01 -0.53394632408E+01  0.70214536344E+01  0.00000000000E+00 0. -1.
</event>
<event>
 8    1  0.4798632E-010  0.9118800E+02  0.7816164E-02  0.1184000E+00
        -11   -1    0    0    0    0  0.00000000000E+00  0.00000000000E+00  0.45593999997E+02  0.45594000000E+02  0.51100000000E-03 0. -1.
         11   -1    0    0    0    0 -0.00000000000E+00 -0.00000000000E+00 -0.45593999997E+02  0.45594000000E+02  0.51100000000E-03 0.  1.
         23    2    1    2    0    0  0.00000000000E+00  0.88817841970E-15 -0.35527136788E-14  0.91188000000E+02  0.91188000000E+02 0.  0.
    9900012    2    3    3    0    0 -0.35933958041E+02  0.71222807554E+01 -0.23273314740E+02  0.47787269561E+02  0.19999993237E+02 0.  0.
         12    1    3    3    0    0  0.35933958041E+02 -0.71222807554E+01  0.23273314740E+02  0.43400730439E+02  0.00000000000E+00 0. -1.
         11    1    4    4    0    0 -0.24213655809E+02  0.56248352248E+01 -0.16794294417E+02  0.29999803735E+02  0.51100000000E-03 0. -1.
        -11    1    4    4    0    0 -0.13303385805E+02 -0.88560526630E+00 -0.37897235754E+01  0.13860965897E+02  0.51100000000E-03 0.  1.
         12    1    4    4    0    0  0.15830835724E+01  0.23830507969E+01 -0.26892967470E+01  0.39264999289E+01  0.00000000000E+00 0. -1.
</event>
<event>
 8    1  0.4798632E-010  0.9118800E+02  0.7816164E-02  0.1184000E+00
        -11   -1    0    0    0    0  0.00000000000E+00  0.00000000000E+00  0.45593999997E+02  0.45594000000E+02  0.51100000000E-03 0. -1.
         11   -1    0    0    0    0 -0.00000000000E+00 -0.00000000000E+00 -0.45593999997E+02  0.45594000000E+02  0.51100000000E-03 0.  1.
         23    2    1    2    0    0  0.00000000000E+00  0.00000000000E+00  0.00000000000E+00  0.91188000000E+02  0.91188000000E+02 0.  0.
    9900012    2    3    3    0    0 -0.86629389317E+01 -0.18744285292E+02  0.38173672368E+02  0.47787262632E+02  0.19999961644E+02 0.  0.
        -12    1    3    3    0    0  0.86629389317E+01  0.18744285292E+02 -0.38173672368E+02  0.43400737368E+02  0.00000000000E+00 0.  1.
         11    1    4    4    0    0 -0.99484785442E+00 -0.19513651402E+01  0.13802142954E+02  0.13974859518E+02  0.51100000000E-03 0. -1.
        -11    1    4    4    0    0 -0.10961343793E+02 -0.11132365806E+02  0.11596475928E+02  0.19456589639E+02  0.51100000000E-03 0.  1.
        -12    1    4    4    0    0  0.32932527159E+01 -0.56605543459E+01  0.12775053486E+02  0.14355813475E+02  0.00000000000E+00 0.  1.
</event>
<event>
 8    1  0.4798632E-010  0.9118800E+02  0.7816164E-02  0.1184000E+00
        -11   -1    0    0    0    0  0.00000000000E+00  0.00000000000E+00  0.45593999997E+02  0.45594000000E+02  0.51100000000E-03 0. -1.
         11   -1    0    0    0    0 -0.00000000000E+00 -0.00000000000E+00 -0.45593999997E+02  0.45594000000E+02  0.51100000000E-03 0.  1.
         23    2    1    2    0    0 -0.35527136788E-14 -0.35527136788E-14  0.17763568394E-14  0.91188000000E+02  0.91188000000E+02 0.  0.
    9900012    2    3    3    0    0 -0.30800175520E+02 -0.27154283721E+02  0.14057646689E+02  0.47787269973E+02  0.19999995117E+02 0.  0.
        -12    1    3    3    0    0  0.30800175520E+02  0.27154283721E+02 -0.14057646689E+02  0.43400730027E+02  0.00000000000E+00 0.  1.
         11    1    4    4    0    0 -0.24702389170E+02 -0.15019516061E+02  0.90839105528E+01  0.30303652001E+02  0.51100000000E-03 0. -1.
        -11    1    4    4    0    0 -0.83817799899E+00 -0.73786032178E+01 -0.18387111430E+01  0.76503063162E+01  0.51100000000E-03 0.  1.
         12    1    4    4    0    0 -0.52596083511E+01 -0.47561644419E+01  0.68124472789E+01  0.98333116564E+01  0.00000000000E+00 0. -1.
</event>
<event>
 8    1  0.4798632E-010  0.9118800E+02  0.7816164E-02  0.1184000E+00
        -11   -1    0    0    0    0  0.00000000000E+00  0.00000000000E+00  0.45593999997E+02  0.45594000000E+02  0.51100000000E-03 0. -1.
         11   -1    0    0    0    0 -0.00000000000E+00 -0.00000000000E+00 -0.45593999997E+02  0.45594000000E+02  0.51100000000E-03 0.  1.
         23    2    1    2    0    0  0.00000000000E+00 -0.35527136788E-14  0.71054273576E-14  0.91188000000E+02  0.91188000000E+02 0.  0.
    9900012    2    3    3    0    0  0.40025724442E+01 -0.18609629165E+02  0.39003648781E+02  0.47787268416E+02  0.19999988014E+02 0.  0.
        -12    1    3    3    0    0 -0.40025724442E+01  0.18609629165E+02 -0.39003648781E+02  0.43400731584E+02  0.00000000000E+00 0.  1.
         11    1    4    4    0    0 -0.24699844230E+01 -0.10319414346E+02  0.15473114951E+02  0.18761887486E+02  0.51100000000E-03 0. -1.
        -11    1    4    4    0    0  0.40549767622E+01  0.28704537972E+01  0.39043593011E+01  0.63187311508E+01  0.51100000000E-03 0.  1.
        -12    1    4    4    0    0  0.24175801051E+01 -0.11160668616E+02  0.19626174529E+02  0.22706649779E+02  0.00000000000E+00 0.  1.
</event>
<event>
 8    1  0.4798632E-010  0.9118800E+02  0.7816164E-02  0.1184000E+00
        -11   -1    0    0    0    0  0.00000000000E+00  0.00000000000E+00  0.45593999997E+02  0.45594000000E+02  0.51100000000E-03 0. -1.
         11   -1    0    0    0    0 -0.00000000000E+00 -0.00000000000E+00 -0.45593999997E+02  0.45594000000E+02  0.51100000000E-03 0.  1.
         23    2    1    2    0    0 -0.35527136788E-14  0.00000000000E+00  0.71054273576E-14  0.91188000000E+02  0.91188000000E+02 0.  0.
    9900012    2    3    3    0    0 -0.10208759684E+02  0.17588133576E+02  0.38341399591E+02  0.47787261071E+02  0.19999954527E+02 0.  0.
        -12    1    3    3    0    0  0.10208759684E+02 -0.17588133576E+02 -0.38341399591E+02  0.43400738929E+02  0.00000000000E+00 0.  1.
         11    1    4    4    0    0 -0.15753623354E+00  0.86516675432E+01  0.25603727945E+02  0.27026414003E+02  0.51100000000E-03 0. -1.
        -11    1    4    4    0    0 -0.10344774194E+02  0.93880864743E+01  0.13758065659E+02  0.19607011290E+02  0.51100000000E-03 0.  1.
         12    1    4    4    0    0  0.29355074313E+00 -0.45162044182E+00 -0.10203940126E+01  0.11538357783E+01  0.00000000000E+00 0. -1.
</event>
<event>
 8    1  0.4798632E-010  0.9118800E+02  0.7816164E-02  0.1184000E+00
        -11   -1    0    0    0    0  0.00000000000E+00  0.00000000000E+00  0.45593999997E+02  0.45594000000E+02  0.51100000000E-03 0. -1.
         11   -1    0    0    0    0 -0.00000000000E+00 -0.00000000000E+00 -0.45593999997E+02  0.45594000000E+02  0.51100000000E-03 0.  1.
         23    2    1    2    0    0  0.00000000000E+00  0.00000000000E+00  0.00000000000E+00  0.91188000000E+02  0.91188000000E+02 0.  0.
    9900012    2    3    3    0    0 -0.80476408544E+01 -0.30428805909E+02 -0.29882222646E+02  0.47787262879E+02  0.19999962772E+02 0.  0.
         12    1    3    3    0    0  0.80476408544E+01  0.30428805909E+02  0.29882222646E+02  0.43400737121E+02  0.00000000000E+00 0. -1.
         11    1    4    4    0    0 -0.58642869980E+01 -0.51852973492E+01 -0.56840765376E+01  0.96739804084E+01  0.51100000000E-03 0. -1.
        -11    1    4    4    0    0 -0.59759199911E+01 -0.21698383787E+02 -0.13558891573E+02  0.26274988481E+02  0.51100000000E-03 0.  1.
        -12    1    4    4    0    0  0.37925661347E+01 -0.35451247728E+01 -0.10639254535E+02  0.11838293990E+02  0.00000000000E+00 0.  1.
</event>
<event>
 8    1  0.4798632E-010  0.9118800E+02  0.7816164E-02  0.1184000E+00
        -11   -1    0    0    0    0  0.00000000000E+00  0.00000000000E+00  0.45593999997E+02  0.45594000000E+02  0.51100000000E-03 0. -1.
         11   -1    0    0    0    0 -0.00000000000E+00 -0.00000000000E+00 -0.45593999997E+02  0.45594000000E+02  0.51100000000E-03 0.  1.
         23    2    1    2    0    0  0.00000000000E+00 -0.88817841970E-15  0.00000000000E+00  0.91188000000E+02  0.91188000000E+02 0.  0.
    9900012    2    3    3    0    0 -0.41411408837E+01 -0.63987266213E+01  0.42726241897E+02  0.47787256956E+02  0.19999935764E+02 0.  0.
        -12    1    3    3    0    0  0.41411408837E+01  0.63987266213E+01 -0.42726241897E+02  0.43400743044E+02  0.00000000000E+00 0.  1.
         11    1    4    4    0    0 -0.23185976864E+01  0.28261587703E+01  0.25607303271E+02  0.25866910324E+02  0.51100000000E-03 0. -1.
        -11    1    4    4    0    0  0.11002080995E+01 -0.43954732874E+01  0.73384950685E+00  0.45901174976E+01  0.51100000000E-03 0.  1.
         12    1    4    4    0    0 -0.29227512968E+01 -0.48294121042E+01  0.16385089119E+02  0.17330229134E+02  0.00000000000E+00 0. -1.
</event>
<event>
 8    1  0.4798632E-010  0.9118800E+02  0.7816164E-02  0.1184000E+00
        -11   -1    0    0    0    0  0.00000000000E+00  0.00000000000E+00  0.45593999997E+02  0.45594000000E+02  0.51100000000E-03 0. -1.
         11   -1    0    0    0    0 -0.00000000000E+00 -0.00000000000E+00 -0.45593999997E+02  0.45594000000E+02  0.51100000000E-03 0.  1.
         23    2    1    2    0    0  0.00000000000E+00 -0.38857805862E-15 -0.71054273576E-14  0.91188000000E+02  0.91188000000E+02 0.  0.
    9900012    2    3    3    0    0  0.14137676442E+02  0.41397103463E+00  0.41031428597E+02  0.47787269593E+02  0.19999993381E+02 0.  0.
        -12    1    3    3    0    0 -0.14137676442E+02 -0.41397103463E+00 -0.41031428597E+02  0.43400730407E+02  0.00000000000E+00 0.  1.
         11    1    4    4    0    0 -0.21450856940E+01 -0.30771323741E+01  0.21951551303E+01  0.43461296104E+01  0.51100000000E-03 0.  1.
        -11    1    4    4    0    0  0.11405064065E+02  0.63594564679E+01  0.21000994660E+02  0.24729738168E+02  0.51100000000E-03 0. -1.
         12    1    4    4    0    0  0.48776980714E+01 -0.28683530592E+01  0.17835278807E+02  0.18711401814E+02  0.00000000000E+00 0. -1.
</event>
<event>
 8    1  0.4798632E-010  0.9118800E+02  0.7816164E-02  0.1184000E+00
        -11   -1    0    0    0    0  0.00000000000E+00  0.00000000000E+00  0.45593999997E+02  0.45594000000E+02  0.51100000000E-03 0. -1.
         11   -1    0    0    0    0 -0.00000000000E+00 -0.00000000000E+00 -0.45593999997E+02  0.45594000000E+02  0.51100000000E-03 0.  1.
         23    2    1    2    0    0 -0.71054273576E-14  0.00000000000E+00 -0.35527136788E-14  0.91188000000E+02  0.91188000000E+02 0.  0.
    9900012    2    3    3    0    0  0.26108595057E+02  0.13630287758E+02  0.31877593687E+02  0.47787257386E+02  0.19999937723E+02 0.  0.
        -12    1    3    3    0    0 -0.26108595057E+02 -0.13630287758E+02 -0.31877593687E+02  0.43400742614E+02  0.00000000000E+00 0.  1.
         11    1    4    4    0    0  0.15467108948E+02  0.72541962887E+01  0.21276908295E+02  0.27286656993E+02  0.51100000000E-03 0. -1.
        -11    1    4    4    0    0  0.76000528043E+01  0.70196323941E+01  0.98236286425E+00  0.10392356741E+02  0.51100000000E-03 0.  1.
        -12    1    4    4    0    0  0.30414333044E+01 -0.64354092442E+00  0.96183225274E+01  0.10108243651E+02  0.00000000000E+00 0.  1.
</event>
<event>
 8    1  0.4798632E-010  0.9118800E+02  0.7816164E-02  0.1184000E+00
        -11   -1    0    0    0    0  0.00000000000E+00  0.00000000000E+00  0.45593999997E+02  0.45594000000E+02  0.51100000000E-03 0. -1.
         11   -1    0    0    0    0 -0.00000000000E+00 -0.00000000000E+00 -0.45593999997E+02  0.45594000000E+02  0.51100000000E-03 0.  1.
         23    2    1    2    0    0 -0.88817841970E-15 -0.17763568394E-14  0.00000000000E+00  0.91188000000E+02  0.91188000000E+02 0.  0.
    9900012    2    3    3    0    0 -0.55822957343E+01  0.13725927922E+02  0.40792893950E+02  0.47787270515E+02  0.19999997588E+02 0.  0.
        -12    1    3    3    0    0  0.55822957343E+01 -0.13725927922E+02 -0.40792893950E+02  0.43400729485E+02  0.00000000000E+00 0.  1.
         11    1    4    4    0    0 -0.81918645364E+01  0.11898548648E+02  0.17625267721E+02  0.22788860590E+02  0.51100000000E-03 0. -1.
        -11    1    4    4    0    0  0.88671830096E+00 -0.15295955507E+01  0.19982441419E+02  0.20060505907E+02  0.51100000000E-03 0.  1.
        -12    1    4    4    0    0  0.17228505012E+01  0.33569748246E+01  0.31851848099E+01  0.49379040185E+01  0.00000000000E+00 0.  1.
</event>
<event>
 8    1  0.4798632E-010  0.9118800E+02  0.7816164E-02  0.1184000E+00
        -11   -1    0    0    0    0  0.00000000000E+00  0.00000000000E+00  0.45593999997E+02  0.45594000000E+02  0.51100000000E-03 0. -1.
         11   -1    0    0    0    0 -0.00000000000E+00 -0.00000000000E+00 -0.45593999997E+02  0.45594000000E+02  0.51100000000E-03 0.  1.
         23    2    1    2    0    0 -0.44408920985E-15 -0.33306690739E-15  0.00000000000E+00  0.91188000000E+02  0.91188000000E+02 0.  0.
    9900012    2    3    3    0    0 -0.22236464967E+01 -0.54771755963E+00 -0.43340264170E+02  0.47787273087E+02  0.20000009314E+02 0.  0.
         12    1    3    3    0    0  0.22236464967E+01  0.54771755963E+00  0.43340264170E+02  0.43400726913E+02  0.00000000000E+00 0. -1.
         11    1    4    4    0    0  0.59608228793E+01 -0.31749343627E+01 -0.18645877901E+02  0.19831298005E+02  0.51100000000E-03 0. -1.
        -11    1    4    4    0    0 -0.49970342701E+01 -0.32840139288E+01 -0.15134411783E+02  0.16272846071E+02  0.51100000000E-03 0.  1.
         12    1    4    4    0    0 -0.31874351060E+01  0.59112307319E+01 -0.95599744854E+01  0.11683129011E+02  0.00000000000E+00 0. -1.
</event>
<event>
 8    1  0.4798632E-010  0.9118800E+02  0.7816164E-02  0.1184000E+00
        -11   -1    0    0    0    0  0.00000000000E+00  0.00000000000E+00  0.45593999997E+02  0.45594000000E+02  0.51100000000E-03 0. -1.
         11   -1    0    0    0    0 -0.00000000000E+00 -0.00000000000E+00 -0.45593999997E+02  0.45594000000E+02  0.51100000000E-03 0.  1.
         23    2    1    2    0    0  0.35527136788E-14  0.00000000000E+00  0.35527136788E-14  0.91188000000E+02  0.91188000000E+02 0.  0.
    9900012    2    3    3    0    0  0.25252981704E+02  0.19610249476E+02  0.29348737317E+02  0.47787270150E+02  0.19999995921E+02 0.  0.
        -12    1    3    3    0    0 -0.25252981704E+02 -0.19610249476E+02 -0.29348737317E+02  0.43400729850E+02  0.00000000000E+00 0.  1.
         11    1    4    4    0    0  0.11870516713E-01  0.18561143684E+01  0.74263011711E+01  0.76547534776E+01  0.51100000000E-03 0.  1.
        -11    1    4    4    0    0  0.19997780680E+02  0.16018410580E+02  0.10981263392E+02  0.27876313522E+02  0.51100000000E-03 0. -1.
         12    1    4    4    0    0  0.52433305075E+01  0.17357245277E+01  0.10941172753E+02  0.12256203150E+02  0.00000000000E+00 0. -1.
</event>
<event>
 8    1  0.4798632E-010  0.9118800E+02  0.7816164E-02  0.1184000E+00
        -11   -1    0    0    0    0  0.00000000000E+00  0.00000000000E+00  0.45593999997E+02  0.45594000000E+02  0.51100000000E-03 0. -1.
         11   -1    0    0    0    0 -0.00000000000E+00 -0.00000000000E+00 -0.45593999997E+02  0.45594000000E+02  0.51100000000E-03 0.  1.
         23    2    1    2    0    0 -0.35527136788E-14  0.88817841970E-15  0.00000000000E+00  0.91188000000E+02  0.91188000000E+02 0.  0.
    9900012    2    3    3    0    0  0.31138168613E+02  0.55527037307E+01 -0.29718700002E+02  0.47787318057E+02  0.20000214348E+02 0.  0.
         12    1    3    3    0    0 -0.31138168613E+02 -0.55527037307E+01  0.29718700002E+02  0.43400681943E+02  0.00000000000E+00 0. -1.
         11    1    4    4    0    0 -0.25679405397E+01 -0.12513319123E+01 -0.19841121688E+01  0.34780528359E+01  0.51100000000E-03 0. -1.
        -11    1    4    4    0    0  0.25603779356E+02  0.55937087509E+01 -0.22858023870E+02  0.34775456150E+02  0.51100000000E-03 0.  1.
        -12    1    4    4    0    0  0.81023297969E+01  0.12103268921E+01 -0.48765639627E+01  0.95338090712E+01  0.00000000000E+00 0.  1.
</event>
<event>
 8    1  0.4798632E-010  0.9118800E+02  0.7816164E-02  0.1184000E+00
        -11   -1    0    0    0    0  0.00000000000E+00  0.00000000000E+00  0.45593999997E+02  0.45594000000E+02  0.51100000000E-03 0. -1.
         11   -1    0    0    0    0 -0.00000000000E+00 -0.00000000000E+00 -0.45593999997E+02  0.45594000000E+02  0.51100000000E-03 0.  1.
         23    2    1    2    0    0 -0.71054273576E-14  0.71054273576E-14  0.35527136788E-14  0.91188000000E+02  0.91188000000E+02 0.  0.
    9900012    2    3    3    0    0 -0.20619883770E+02  0.25716616464E+02  0.28232940819E+02  0.47787275164E+02  0.20000018782E+02 0.  0.
        -12    1    3    3    0    0  0.20619883770E+02 -0.25716616464E+02 -0.28232940819E+02  0.43400724836E+02  0.00000000000E+00 0.  1.
         11    1    4    4    0    0  0.36453068510E+00  0.87544883562E+00 -0.22667881964E+01  0.24571573561E+01  0.51100000000E-03 0. -1.
        -11    1    4    4    0    0 -0.10365123002E+02  0.16995531286E+02  0.14736141199E+02  0.24767674825E+02  0.51100000000E-03 0.  1.
         12    1    4    4    0    0 -0.10619291453E+02  0.78456363422E+01  0.15763587816E+02  0.20562442982E+02  0.00000000000E+00 0. -1.
</event>
<event>
 8    1  0.5325200E-010  0.9118800E+02  0.7816164E-02  0.1184000E+00
        -11   -1    0    0    0    0  0.00000000000E+00  0.00000000000E+00  0.45593999997E+02  0.45594000000E+02  0.51100000000E-03 0. -1.
         11   -1    0    0    0    0 -0.00000000000E+00 -0.00000000000E+00 -0.45593999997E+02  0.45594000000E+02  0.51100000000E-03 0.  1.
         23    2    1    2    0    0 -0.88817841970E-15  0.35527136788E-14  0.00000000000E+00  0.91188000000E+02  0.91188000000E+02 0.  0.
    9900012    2    3    3    0    0 -0.44897598383E+01  0.30391828840E+02 -0.30656192932E+02  0.47787269951E+02  0.19999995016E+02 0.  0.
         12    1    3    3    0    0  0.44897598383E+01 -0.30391828840E+02  0.30656192932E+02  0.43400730049E+02  0.00000000000E+00 0. -1.
         11    1    4    4    0    0 -0.30970309781E+01  0.67260530981E+01 -0.41616062467E+00  0.74165073374E+01  0.51100000000E-03 0. -1.
        -11    1    4    4    0    0  0.27508043438E+01  0.14384118798E+02 -0.24903781094E+02  0.28890623240E+02  0.51100000000E-03 0.  1.
        -12    1    4    4    0    0 -0.41435332040E+01  0.92816569441E+01 -0.53362512137E+01  0.11480139374E+02  0.00000000000E+00 0.  1.
</event>
<event>
 8    1  0.4798632E-010  0.9118800E+02  0.7816164E-02  0.1184000E+00
        -11   -1    0    0    0    0  0.00000000000E+00  0.00000000000E+00  0.45593999997E+02  0.45594000000E+02  0.51100000000E-03 0. -1.
         11   -1    0    0    0    0 -0.00000000000E+00 -0.00000000000E+00 -0.45593999997E+02  0.45594000000E+02  0.51100000000E-03 0.  1.
         23    2    1    2    0    0  0.00000000000E+00  0.35527136788E-14 -0.17763568394E-14  0.91188000000E+02  0.91188000000E+02 0.  0.
    9900012    2    3    3    0    0 -0.31219723173E+02 -0.28604670174E+02  0.95249751685E+01  0.47787269330E+02  0.19999992182E+02 0.  0.
        -12    1    3    3    0    0  0.31219723173E+02  0.28604670174E+02 -0.95249751685E+01  0.43400730670E+02  0.00000000000E+00 0.  1.
         11    1    4    4    0    0 -0.13585312250E+02 -0.19369388456E+02  0.16947125018E+01  0.23719316364E+02  0.51100000000E-03 0. -1.
        -11    1    4    4    0    0 -0.88468828157E+01  0.13788459312E+01  0.25326603630E+01  0.93049943811E+01  0.51100000000E-03 0.  1.
         12    1    4    4    0    0 -0.87875281073E+01 -0.10614127649E+02  0.52976023036E+01  0.14762958584E+02  0.00000000000E+00 0. -1.
</event>
<event>
 8    1  0.4798632E-010  0.9118800E+02  0.7816164E-02  0.1184000E+00
        -11   -1    0    0    0    0  0.00000000000E+00  0.00000000000E+00  0.45593999997E+02  0.45594000000E+02  0.51100000000E-03 0.  1.
         11   -1    0    0    0    0 -0.00000000000E+00 -0.00000000000E+00 -0.45593999997E+02  0.45594000000E+02  0.51100000000E-03 0. -1.
         23    2    1    2    0    0  0.00000000000E+00  0.00000000000E+00  0.00000000000E+00  0.91188000000E+02  0.91188000000E+02 0.  0.
    9900012    2    3    3    0    0 -0.76530567686E+01 -0.41357888354E+02  0.10704169413E+02  0.47787269018E+02  0.19999990759E+02 0.  0.
         12    1    3    3    0    0  0.76530567686E+01  0.41357888354E+02 -0.10704169413E+02  0.43400730982E+02  0.00000000000E+00 0. -1.
         11    1    4    4    0    0  0.26421521590E+00 -0.21953995086E+00 -0.21203894291E+01  0.21480360944E+01  0.51100000000E-03 0. -1.
        -11    1    4    4    0    0 -0.10086677416E+02 -0.31071086890E+02  0.58127503803E+01  0.33180439555E+02  0.51100000000E-03 0.  1.
        -12    1    4    4    0    0  0.21694054313E+01 -0.10067261513E+02  0.70118084616E+01  0.12458793368E+02  0.00000000000E+00 0.  1.
</event>
<event>
 8    1  0.4798632E-010  0.9118800E+02  0.7816164E-02  0.1184000E+00
        -11   -1    0    0    0    0  0.00000000000E+00  0.00000000000E+00  0.45593999997E+02  0.45594000000E+02  0.51100000000E-03 0. -1.
         11   -1    0    0    0    0 -0.00000000000E+00 -0.00000000000E+00 -0.45593999997E+02  0.45594000000E+02  0.51100000000E-03 0.  1.
         23    2    1    2    0    0  0.00000000000E+00  0.00000000000E+00  0.00000000000E+00  0.91188000000E+02  0.91188000000E+02 0.  0.
    9900012    2    3    3    0    0 -0.84279615649E+01  0.13281700979E+02 -0.40449828175E+02  0.47787277467E+02  0.20000029282E+02 0.  0.
         12    1    3    3    0    0  0.84279615649E+01 -0.13281700979E+02  0.40449828175E+02  0.43400722533E+02  0.00000000000E+00 0. -1.
         11    1    4    4    0    0 -0.10043984309E+02  0.15552401321E+02 -0.24766295577E+02  0.30921322813E+02  0.51100000000E-03 0. -1.
        -11    1    4    4    0    0  0.15134544177E+01 -0.82930440215E-01 -0.14055452750E+02  0.14136943587E+02  0.51100000000E-03 0.  1.
         12    1    4    4    0    0  0.10256832637E+00 -0.21877699022E+01 -0.16280798481E+01  0.27290110660E+01  0.00000000000E+00 0. -1.
</event>
<event>
 8    1  0.4798632E-010  0.9118800E+02  0.7816164E-02  0.1184000E+00
        -11   -1    0    0    0    0  0.00000000000E+00  0.00000000000E+00  0.45593999997E+02  0.45594000000E+02  0.51100000000E-03 0. -1.
         11   -1    0    0    0    0 -0.00000000000E+00 -0.00000000000E+00 -0.45593999997E+02  0.45594000000E+02  0.51100000000E-03 0.  1.
         23    2    1    2    0    0  0.00000000000E+00  0.55511151231E-16  0.00000000000E+00  0.91188000000E+02  0.91188000000E+02 0.  0.
    9900012    2    3    3    0    0  0.34840218305E+02 -0.26109644109E+00 -0.25878852129E+02  0.47787263020E+02  0.19999963414E+02 0.  0.
         12    1    3    3    0    0 -0.34840218305E+02  0.26109644109E+00  0.25878852129E+02  0.43400736980E+02  0.00000000000E+00 0. -1.
         11    1    4    4    0    0 -0.20076889716E+01  0.11256202047E+01 -0.42035947246E+01  0.47924987972E+01  0.51100000000E-03 0. -1.
        -11    1    4    4    0    0  0.28003974863E+02 -0.10535451518E+01 -0.18558603208E+02  0.33611818142E+02  0.51100000000E-03 0.  1.
        -12    1    4    4    0    0  0.88439324134E+01 -0.33317149404E+00 -0.31166541960E+01  0.93829460808E+01  0.00000000000E+00 0.  1.
</event>
<event>
 8    1  0.4798632E-010  0.9118800E+02  0.7816164E-02  0.1184000E+00
        -11   -1    0    0    0    0  0.00000000000E+00  0.00000000000E+00  0.45593999997E+02  0.45594000000E+02  0.51100000000E-03 0. -1.
         11   -1    0    0    0    0 -0.00000000000E+00 -0.00000000000E+00 -0.45593999997E+02  0.45594000000E+02  0.51100000000E-03 0.  1.
         23    2    1    2    0    0  0.00000000000E+00  0.00000000000E+00 -0.71054273576E-14  0.91188000000E+02  0.91188000000E+02 0.  0.
    9900012    2    3    3    0    0 -0.57836510650E+01 -0.10863111402E+02  0.41619294279E+02  0.47787268840E+02  0.19999989947E+02 0.  0.
        -12    1    3    3    0    0  0.57836510650E+01  0.10863111402E+02 -0.41619294279E+02  0.43400731160E+02  0.00000000000E+00 0.  1.
         11    1    4    4    0    0 -0.20551532822E+01 -0.68245079619E+01  0.26864981560E+02  0.27794330328E+02  0.51100000000E-03 0. -1.
        -11    1    4    4    0    0 -0.14155702001E+01 -0.83857216994E+00 -0.21082526330E+01  0.26742796602E+01  0.51100000000E-03 0.  1.
        -12    1    4    4    0    0 -0.23129275827E+01 -0.32000312700E+01  0.16862565352E+02  0.17318658851E+02  0.00000000000E+00 0.  1.
</event>
<event>
 8    1  0.4798632E-010  0.9118800E+02  0.7816164E-02  0.1184000E+00
        -11   -1    0    0    0    0  0.00000000000E+00  0.00000000000E+00  0.45593999997E+02  0.45594000000E+02  0.51100000000E-03 0.  1.
         11   -1    0    0    0    0 -0.00000000000E+00 -0.00000000000E+00 -0.45593999997E+02  0.45594000000E+02  0.51100000000E-03 0. -1.
         23    2    1    2    0    0  0.00000000000E+00  0.00000000000E+00  0.00000000000E+00  0.91188000000E+02  0.91188000000E+02 0.  0.
    9900012    2    3    3    0    0  0.13263858431E+02  0.40620179172E+02 -0.75958712965E+01  0.47787237827E+02  0.19999848548E+02 0.  0.
        -12    1    3    3    0    0 -0.13263858431E+02 -0.40620179172E+02  0.75958712965E+01  0.43400762173E+02  0.00000000000E+00 0.  1.
         11    1    4    4    0    0  0.11603838579E+02  0.25078588319E+02  0.14913062448E+00  0.27633438115E+02  0.51100000000E-03 0. -1.
        -11    1    4    4    0    0 -0.32867077966E+01  0.86546127622E+01 -0.98579553972E+00  0.93100248824E+01  0.51100000000E-03 0.  1.
         12    1    4    4    0    0  0.49467276487E+01  0.68869780902E+01 -0.67592063813E+01  0.10843774829E+02  0.00000000000E+00 0. -1.
</event>
<event>
 8    1  0.5053406E-010  0.9118800E+02  0.7816164E-02  0.1184000E+00
        -11   -1    0    0    0    0  0.00000000000E+00  0.00000000000E+00  0.45593999997E+02  0.45594000000E+02  0.51100000000E-03 0. -1.
         11   -1    0    0    0    0 -0.00000000000E+00 -0.00000000000E+00 -0.45593999997E+02  0.45594000000E+02  0.51100000000E-03 0.  1.
         23    2    1    2    0    0 -0.71054273576E-14  0.00000000000E+00 -0.35527136788E-14  0.91188000000E+02  0.91188000000E+02 0.  0.
    9900012    2    3    3    0    0 -0.26016933003E+02  0.16847000676E+02 -0.30379619059E+02  0.47787268568E+02  0.19999988709E+02 0.  0.
         12    1    3    3    0    0  0.26016933003E+02 -0.16847000676E+02  0.30379619059E+02  0.43400731432E+02  0.00000000000E+00 0. -1.
         11    1    4    4    0    0  0.14486535921E+01 -0.17197815203E+00 -0.94227879460E+00  0.17366816929E+01  0.51100000000E-03 0. -1.
        -11    1    4    4    0    0 -0.17234265689E+02  0.46886799497E+01 -0.87633920211E+01  0.19894739844E+02  0.51100000000E-03 0.  1.
        -12    1    4    4    0    0 -0.10231320907E+02  0.12330298878E+02 -0.20673948243E+02  0.26155847031E+02  0.00000000000E+00 0.  1.
</event>
<event>
 8    1  0.4798632E-010  0.9118800E+02  0.7816164E-02  0.1184000E+00
        -11   -1    0    0    0    0  0.00000000000E+00  0.00000000000E+00  0.45593999997E+02  0.45594000000E+02  0.51100000000E-03 0. -1.
         11   -1    0    0    0    0 -0.00000000000E+00 -0.00000000000E+00 -0.45593999997E+02  0.45594000000E+02  0.51100000000E-03 0.  1.
         23    2    1    2    0    0 -0.71054273576E-14  0.00000000000E+00  0.35527136788E-14  0.91188000000E+02  0.91188000000E+02 0.  0.
    9900012    2    3    3    0    0 -0.27725522050E+02  0.17130668829E+02  0.28661102321E+02  0.47787272198E+02  0.20000005260E+02 0.  0.
        -12    1    3    3    0    0  0.27725522050E+02 -0.17130668829E+02 -0.28661102321E+02  0.43400727802E+02  0.00000000000E+00 0.  1.
         11    1    4    4    0    0 -0.93676384752E+01  0.55103016307E+01  0.14292180729E+01  0.10961694177E+02  0.51100000000E-03 0. -1.
        -11    1    4    4    0    0 -0.73184731568E+01  0.83370859741E+01  0.58558562576E+01  0.12544245878E+02  0.51100000000E-03 0.  1.
         12    1    4    4    0    0 -0.11039410418E+02  0.32832812246E+01  0.21376027991E+02  0.24281332143E+02  0.00000000000E+00 0. -1.
</event>
<event>
 8    1  0.4798632E-010  0.9118800E+02  0.7816164E-02  0.1184000E+00
        -11   -1    0    0    0    0  0.00000000000E+00  0.00000000000E+00  0.45593999997E+02  0.45594000000E+02  0.51100000000E-03 0. -1.
         11   -1    0    0    0    0 -0.00000000000E+00 -0.00000000000E+00 -0.45593999997E+02  0.45594000000E+02  0.51100000000E-03 0.  1.
         23    2    1    2    0    0  0.00000000000E+00  0.00000000000E+00  0.00000000000E+00  0.91188000000E+02  0.91188000000E+02 0.  0.
    9900012    2    3    3    0    0  0.40553185161E+02 -0.10963962878E+02  0.10901968330E+02  0.47787283161E+02  0.20000055242E+02 0.  0.
        -12    1    3    3    0    0 -0.40553185161E+02  0.10963962878E+02 -0.10901968330E+02  0.43400716839E+02  0.00000000000E+00 0.  1.
         11    1    4    4    0    0  0.29785517097E+02 -0.37821068862E+01  0.73173784774E+01  0.30903485067E+02  0.51100000000E-03 0. -1.
        -11    1    4    4    0    0  0.12656688004E+02 -0.72905911813E+01  0.32120987683E+01  0.14955335161E+02  0.51100000000E-03 0.  1.
         12    1    4    4    0    0 -0.18890199402E+01  0.10873518944E+00  0.37249108376E+00  0.19284629329E+01  0.00000000000E+00 0. -1.
</event>
<event>
 8    1  0.4798632E-010  0.9118800E+02  0.7816164E-02  0.1184000E+00
        -11   -1    0    0    0    0  0.00000000000E+00  0.00000000000E+00  0.45593999997E+02  0.45594000000E+02  0.51100000000E-03 0. -1.
         11   -1    0    0    0    0 -0.00000000000E+00 -0.00000000000E+00 -0.45593999997E+02  0.45594000000E+02  0.51100000000E-03 0.  1.
         23    2    1    2    0    0  0.00000000000E+00  0.00000000000E+00  0.00000000000E+00  0.91188000000E+02  0.91188000000E+02 0.  0.
    9900012    2    3    3    0    0 -0.17497312861E+02 -0.15944647159E+02  0.36376300963E+02  0.47787274175E+02  0.20000014275E+02 0.  0.
        -12    1    3    3    0    0  0.17497312861E+02  0.15944647159E+02 -0.36376300963E+02  0.43400725825E+02  0.00000000000E+00 0.  1.
         11    1    4    4    0    0 -0.27911149703E+01 -0.13130443511E+02  0.12653910895E+02  0.18447773057E+02  0.51100000000E-03 0. -1.
        -11    1    4    4    0    0 -0.31055759934E+01  0.24670550842E+01  0.28538892287E+01  0.48862712809E+01  0.51100000000E-03 0.  1.
         12    1    4    4    0    0 -0.11600621898E+02 -0.52812587318E+01  0.20868500839E+02  0.24453229837E+02  0.00000000000E+00 0. -1.
</event>
<event>
 8    1  0.4798632E-010  0.9118800E+02  0.7816164E-02  0.1184000E+00
        -11   -1    0    0    0    0  0.00000000000E+00  0.00000000000E+00  0.45593999997E+02  0.45594000000E+02  0.51100000000E-03 0. -1.
         11   -1    0    0    0    0 -0.00000000000E+00 -0.00000000000E+00 -0.45593999997E+02  0.45594000000E+02  0.51100000000E-03 0.  1.
         23    2    1    2    0    0  0.00000000000E+00  0.00000000000E+00  0.00000000000E+00  0.91188000000E+02  0.91188000000E+02 0.  0.
    9900012    2    3    3    0    0  0.39133966112E+01 -0.39336774570E+02 -0.17914420871E+02  0.47787274410E+02  0.20000015344E+02 0.  0.
        -12    1    3    3    0    0 -0.39133966112E+01  0.39336774570E+02  0.17914420871E+02  0.43400725590E+02  0.00000000000E+00 0.  1.
         11    1    4    4    0    0  0.13593475483E+01 -0.68516576130E+01 -0.52361634261E+00  0.70047992218E+01  0.51100000000E-03 0. -1.
        -11    1    4    4    0    0 -0.87701742133E-01 -0.54849586749E+01  0.35303046686E+01  0.65234587892E+01  0.51100000000E-03 0.  1.
        -12    1    4    4    0    0  0.26417508049E+01 -0.27000158283E+02 -0.20921109197E+02  0.34259016399E+02  0.00000000000E+00 0.  1.
</event>
<event>
 8    1  0.4798632E-010  0.9118800E+02  0.7816164E-02  0.1184000E+00
        -11   -1    0    0    0    0  0.00000000000E+00  0.00000000000E+00  0.45593999997E+02  0.45594000000E+02  0.51100000000E-03 0. -1.
         11   -1    0    0    0    0 -0.00000000000E+00 -0.00000000000E+00 -0.45593999997E+02  0.45594000000E+02  0.51100000000E-03 0.  1.
         23    2    1    2    0    0 -0.66613381478E-15  0.35527136788E-14  0.00000000000E+00  0.91188000000E+02  0.91188000000E+02 0.  0.
    9900012    2    3    3    0    0  0.11349648465E+01 -0.23695453708E+02 -0.36343645353E+02  0.47787271560E+02  0.20000002349E+02 0.  0.
         12    1    3    3    0    0 -0.11349648465E+01  0.23695453708E+02  0.36343645353E+02  0.43400728440E+02  0.00000000000E+00 0. -1.
         11    1    4    4    0    0  0.19228016967E+01 -0.97605894922E+01 -0.84358655033E+01  0.13043392988E+02  0.51100000000E-03 0. -1.
        -11    1    4    4    0    0 -0.49596666108E+01 -0.35978391278E+01 -0.18475909105E+01  0.63997134087E+01  0.51100000000E-03 0.  1.
        -12    1    4    4    0    0  0.41718297606E+01 -0.10337025088E+02 -0.26060188939E+02  0.28344165162E+02  0.00000000000E+00 0.  1.
</event>
<event>
 8    1  0.4798632E-010  0.9118800E+02  0.7816164E-02  0.1184000E+00
        -11   -1    0    0    0    0  0.00000000000E+00  0.00000000000E+00  0.45593999997E+02  0.45594000000E+02  0.51100000000E-03 0. -1.
         11   -1    0    0    0    0 -0.00000000000E+00 -0.00000000000E+00 -0.45593999997E+02  0.45594000000E+02  0.51100000000E-03 0.  1.
         23    2    1    2    0    0  0.00000000000E+00  0.00000000000E+00  0.00000000000E+00  0.91188000000E+02  0.91188000000E+02 0.  0.
    9900012    2    3    3    0    0  0.16223533123E+02  0.36116925497E+02 -0.17776044653E+02  0.47787273072E+02  0.20000009244E+02 0.  0.
         12    1    3    3    0    0 -0.16223533123E+02 -0.36116925497E+02  0.17776044653E+02  0.43400726928E+02  0.00000000000E+00 0. -1.
         11    1    4    4    0    0  0.14546605974E+02  0.18166307997E+02 -0.67920104600E+01  0.24243553740E+02  0.51100000000E-03 0. -1.
        -11    1    4    4    0    0 -0.14333066738E+01  0.13131102959E+02 -0.27234189424E+01  0.13486928633E+02  0.51100000000E-03 0.  1.
         12    1    4    4    0    0  0.31102338224E+01  0.48195145414E+01 -0.82606152507E+01  0.10056790699E+02  0.00000000000E+00 0. -1.
</event>
<event>
 8    1  0.4798632E-010  0.9118800E+02  0.7816164E-02  0.1184000E+00
        -11   -1    0    0    0    0  0.00000000000E+00  0.00000000000E+00  0.45593999997E+02  0.45594000000E+02  0.51100000000E-03 0. -1.
         11   -1    0    0    0    0 -0.00000000000E+00 -0.00000000000E+00 -0.45593999997E+02  0.45594000000E+02  0.51100000000E-03 0.  1.
         23    2    1    2    0    0 -0.88817841970E-15  0.00000000000E+00  0.71054273576E-14  0.91188000000E+02  0.91188000000E+02 0.  0.
    9900012    2    3    3    0    0 -0.42529065149E+01  0.27208351481E+02 -0.33544615732E+02  0.47787275942E+02  0.20000022331E+02 0.  0.
         12    1    3    3    0    0  0.42529065149E+01 -0.27208351481E+02  0.33544615732E+02  0.43400724058E+02  0.00000000000E+00 0. -1.
         11    1    4    4    0    0  0.16572791016E+00  0.33634590489E+00  0.27089577984E+00  0.46257874205E+00  0.51100000000E-03 0. -1.
        -11    1    4    4    0    0  0.20488257532E+01 -0.22009043290E+01 -0.14418940616E+01  0.33347751915E+01  0.51100000000E-03 0.  1.
        -12    1    4    4    0    0 -0.64674601782E+01  0.29072909905E+02 -0.32373617450E+02  0.43989922009E+02  0.00000000000E+00 0.  1.
</event>
<event>
 8    1  0.4798632E-010  0.9118800E+02  0.7816164E-02  0.1184000E+00
        -11   -1    0    0    0    0  0.00000000000E+00  0.00000000000E+00  0.45593999997E+02  0.45594000000E+02  0.51100000000E-03 0. -1.
         11   -1    0    0    0    0 -0.00000000000E+00 -0.00000000000E+00 -0.45593999997E+02  0.45594000000E+02  0.51100000000E-03 0.  1.
         23    2    1    2    0    0  0.00000000000E+00  0.00000000000E+00  0.00000000000E+00  0.91188000000E+02  0.91188000000E+02 0.  0.
    9900012    2    3    3    0    0  0.20883525235E+02  0.16791184070E+02 -0.34140313177E+02  0.47787234194E+02  0.19999831983E+02 0.  0.
         12    1    3    3    0    0 -0.20883525235E+02 -0.16791184070E+02  0.34140313177E+02  0.43400765806E+02  0.00000000000E+00 0. -1.
         11    1    4    4    0    0  0.86050952401E+01 -0.29629452467E+01 -0.12373934552E+02  0.15360369956E+02  0.51100000000E-03 0. -1.
        -11    1    4    4    0    0  0.44561424772E+01  0.79235826079E+01 -0.12610236105E+02  0.15545366577E+02  0.51100000000E-03 0.  1.
         12    1    4    4    0    0  0.78222875179E+01  0.11830546708E+02 -0.91561425197E+01  0.16881497661E+02  0.00000000000E+00 0. -1.
</event>
<event>
 8    1  0.4798632E-010  0.9118800E+02  0.7816164E-02  0.1184000E+00
        -11   -1    0    0    0    0  0.00000000000E+00  0.00000000000E+00  0.45593999997E+02  0.45594000000E+02  0.51100000000E-03 0. -1.
         11   -1    0    0    0    0 -0.00000000000E+00 -0.00000000000E+00 -0.45593999997E+02  0.45594000000E+02  0.51100000000E-03 0.  1.
         23    2    1    2    0    0  0.00000000000E+00 -0.17763568394E-14  0.00000000000E+00  0.91188000000E+02  0.91188000000E+02 0.  0.
    9900012    2    3    3    0    0 -0.50298385472E+01  0.12487051407E+02 -0.41260118788E+02  0.47787272689E+02  0.20000007499E+02 0.  0.
         12    1    3    3    0    0  0.50298385472E+01 -0.12487051407E+02  0.41260118788E+02  0.43400727311E+02  0.00000000000E+00 0. -1.
         11    1    4    4    0    0 -0.72832612590E+01 -0.35376353476E+00 -0.13332912338E+02  0.15196631038E+02  0.51100000000E-03 0. -1.
        -11    1    4    4    0    0 -0.11751400846E+01  0.13218363999E+02 -0.20802361916E+02  0.24674771783E+02  0.51100000000E-03 0.  1.
         12    1    4    4    0    0  0.34285627964E+01 -0.37754905639E+00 -0.71248445345E+01  0.79158698688E+01  0.00000000000E+00 0. -1.
</event>
<event>
 8    1  0.4798632E-010  0.9118800E+02  0.7816164E-02  0.1184000E+00
        -11   -1    0    0    0    0  0.00000000000E+00  0.00000000000E+00  0.45593999997E+02  0.45594000000E+02  0.51100000000E-03 0. -1.
         11   -1    0    0    0    0 -0.00000000000E+00 -0.00000000000E+00 -0.45593999997E+02  0.45594000000E+02  0.51100000000E-03 0.  1.
         23    2    1    2    0    0 -0.35527136788E-14  0.00000000000E+00  0.00000000000E+00  0.91188000000E+02  0.91188000000E+02 0.  0.
    9900012    2    3    3    0    0  0.24786572953E+02  0.26976188128E+02  0.23270875677E+02  0.47787279044E+02  0.20000036474E+02 0.  0.
        -12    1    3    3    0    0 -0.24786572953E+02 -0.26976188128E+02 -0.23270875677E+02  0.43400720956E+02  0.00000000000E+00 0.  1.
         11    1    4    4    0    0  0.20226247054E+02  0.11462893545E+02  0.83001519461E+01  0.24685856698E+02  0.51100000000E-03 0. -1.
        -11    1    4    4    0    0 -0.85618967722E+00  0.92704575712E+01  0.73919262448E+01  0.11887599346E+02  0.51100000000E-03 0.  1.
        -12    1    4    4    0    0  0.54165155765E+01  0.62428370127E+01  0.75787974861E+01  0.11213823001E+02  0.00000000000E+00 0.  1.
</event>
<event>
 8    1  0.4798632E-010  0.9118800E+02  0.7816164E-02  0.1184000E+00
        -11   -1    0    0    0    0  0.00000000000E+00  0.00000000000E+00  0.45593999997E+02  0.45594000000E+02  0.51100000000E-03 0.  1.
         11   -1    0    0    0    0 -0.00000000000E+00 -0.00000000000E+00 -0.45593999997E+02  0.45594000000E+02  0.51100000000E-03 0. -1.
         23    2    1    2    0    0  0.00000000000E+00  0.00000000000E+00  0.17763568394E-14  0.91188000000E+02  0.91188000000E+02 0.  0.
    9900012    2    3    3    0    0 -0.42269661322E+02  0.34245450798E+01 -0.92288541042E+01  0.47787268147E+02  0.19999986789E+02 0.  0.
        -12    1    3    3    0    0  0.42269661322E+02 -0.34245450798E+01  0.92288541042E+01  0.43400731853E+02  0.00000000000E+00 0.  1.
         11    1    4    4    0    0 -0.62687889208E+01  0.43548516547E+01 -0.65563972328E+00  0.76610907302E+01  0.51100000000E-03 0. -1.
        -11    1    4    4    0    0 -0.31913790839E+02  0.33133460706E+01 -0.10760303557E+02  0.33841578580E+02  0.51100000000E-03 0.  1.
        -12    1    4    4    0    0 -0.40870815622E+01 -0.42436526455E+01  0.21870891759E+01  0.62845988364E+01  0.00000000000E+00 0.  1.
</event>
<event>
 8    1  0.4798632E-010  0.9118800E+02  0.7816164E-02  0.1184000E+00
        -11   -1    0    0    0    0  0.00000000000E+00  0.00000000000E+00  0.45593999997E+02  0.45594000000E+02  0.51100000000E-03 0. -1.
         11   -1    0    0    0    0 -0.00000000000E+00 -0.00000000000E+00 -0.45593999997E+02  0.45594000000E+02  0.51100000000E-03 0.  1.
         23    2    1    2    0    0 -0.88817841970E-15  0.00000000000E+00  0.00000000000E+00  0.91188000000E+02  0.91188000000E+02 0.  0.
    9900012    2    3    3    0    0 -0.79488912793E+01  0.25002297535E+02  0.34573457571E+02  0.47787265870E+02  0.19999976408E+02 0.  0.
        -12    1    3    3    0    0  0.79488912793E+01 -0.25002297535E+02 -0.34573457571E+02  0.43400734130E+02  0.00000000000E+00 0.  1.
         11    1    4    4    0    0 -0.74571265989E+01  0.12663919045E+02  0.13802983063E+02  0.20161992074E+02  0.51100000000E-03 0. -1.
        -11    1    4    4    0    0  0.27839036449E+01 -0.58812036857E+00 -0.11276408066E+00  0.28475816180E+01  0.51100000000E-03 0.  1.
        -12    1    4    4    0    0 -0.32756683253E+01  0.12926498858E+02  0.20883238589E+02  0.24777692178E+02  0.00000000000E+00 0.  1.
</event>
<event>
 8    1  0.4798632E-010  0.9118800E+02  0.7816164E-02  0.1184000E+00
        -11   -1    0    0    0    0  0.00000000000E+00  0.00000000000E+00  0.45593999997E+02  0.45594000000E+02  0.51100000000E-03 0. -1.
         11   -1    0    0    0    0 -0.00000000000E+00 -0.00000000000E+00 -0.45593999997E+02  0.45594000000E+02  0.51100000000E-03 0.  1.
         23    2    1    2    0    0  0.35527136788E-14  0.00000000000E+00  0.00000000000E+00  0.91188000000E+02  0.91188000000E+02 0.  0.
    9900012    2    3    3    0    0  0.25930467086E+02 -0.24141212086E+02 -0.25068626007E+02  0.47787271272E+02  0.20000001036E+02 0.  0.
         12    1    3    3    0    0 -0.25930467086E+02  0.24141212086E+02  0.25068626007E+02  0.43400728728E+02  0.00000000000E+00 0. -1.
         11    1    4    4    0    0  0.19981211156E+02 -0.74565951211E+01 -0.83514544155E+01  0.22904069533E+02  0.51100000000E-03 0. -1.
        -11    1    4    4    0    0  0.60208039583E+01 -0.14576103413E+02 -0.12341991759E+02  0.20025923995E+02  0.51100000000E-03 0.  1.
         12    1    4    4    0    0 -0.71548027789E-01 -0.21085135521E+01 -0.43751798320E+01  0.48572777440E+01  0.00000000000E+00 0. -1.
</event>
<event>
 8    1  0.4798632E-010  0.9118800E+02  0.7816164E-02  0.1184000E+00
        -11   -1    0    0    0    0  0.00000000000E+00  0.00000000000E+00  0.45593999997E+02  0.45594000000E+02  0.51100000000E-03 0. -1.
         11   -1    0    0    0    0 -0.00000000000E+00 -0.00000000000E+00 -0.45593999997E+02  0.45594000000E+02  0.51100000000E-03 0.  1.
         23    2    1    2    0    0 -0.71054273576E-14 -0.35527136788E-14 -0.35527136788E-14  0.91188000000E+02  0.91188000000E+02 0.  0.
    9900012    2    3    3    0    0  0.25802425410E+02  0.29317728412E+02  0.18929576037E+02  0.47787271835E+02  0.20000003606E+02 0.  0.
        -12    1    3    3    0    0 -0.25802425410E+02 -0.29317728412E+02 -0.18929576037E+02  0.43400728165E+02  0.00000000000E+00 0.  1.
         11    1    4    4    0    0 -0.14286973086E+01 -0.83536101525E+00  0.25397631961E+01  0.30314025432E+01  0.51100000000E-03 0. -1.
        -11    1    4    4    0    0  0.19368041884E+02  0.18588949061E+02  0.64797635828E+01  0.27616252642E+02  0.51100000000E-03 0.  1.
         12    1    4    4    0    0  0.78630808343E+01  0.11564140366E+02  0.99100492579E+01  0.17139616650E+02  0.00000000000E+00 0. -1.
</event>
<event>
 8    1  0.4798632E-010  0.9118800E+02  0.7816164E-02  0.1184000E+00
        -11   -1    0    0    0    0  0.00000000000E+00  0.00000000000E+00  0.45593999997E+02  0.45594000000E+02  0.51100000000E-03 0. -1.
         11   -1    0    0    0    0 -0.00000000000E+00 -0.00000000000E+00 -0.45593999997E+02  0.45594000000E+02  0.51100000000E-03 0.  1.
         23    2    1    2    0    0  0.00000000000E+00  0.88817841970E-15  0.00000000000E+00  0.91188000000E+02  0.91188000000E+02 0.  0.
    9900012    2    3    3    0    0 -0.89745409955E+01 -0.66529142187E+01  0.41938285215E+02  0.47787269355E+02  0.19999992299E+02 0.  0.
        -12    1    3    3    0    0  0.89745409955E+01  0.66529142187E+01 -0.41938285215E+02  0.43400730645E+02  0.00000000000E+00 0.  1.
         11    1    4    4    0    0 -0.35611461109E+01  0.46702072720E+01  0.55267176363E+01  0.80645648165E+01  0.51100000000E-03 0. -1.
        -11    1    4    4    0    0 -0.34831510264E+01 -0.12148804389E+02  0.34949308145E+02  0.37164229162E+02  0.51100000000E-03 0.  1.
        -12    1    4    4    0    0 -0.19302438582E+01  0.82568289837E+00  0.14622594345E+01  0.25584753769E+01  0.00000000000E+00 0.  1.
</event>
<event>
 8    1  0.4798632E-010  0.9118800E+02  0.7816164E-02  0.1184000E+00
        -11   -1    0    0    0    0  0.00000000000E+00  0.00000000000E+00  0.45593999997E+02  0.45594000000E+02  0.51100000000E-03 0. -1.
         11   -1    0    0    0    0 -0.00000000000E+00 -0.00000000000E+00 -0.45593999997E+02  0.45594000000E+02  0.51100000000E-03 0.  1.
         23    2    1    2    0    0  0.00000000000E+00  0.00000000000E+00 -0.17763568394E-14  0.91188000000E+02  0.91188000000E+02 0.  0.
    9900012    2    3    3    0    0 -0.38304558410E+02  0.13540999867E+02  0.15265162129E+02  0.47787273656E+02  0.20000011909E+02 0.  0.
        -12    1    3    3    0    0  0.38304558410E+02 -0.13540999867E+02 -0.15265162129E+02  0.43400726344E+02  0.00000000000E+00 0.  1.
         11    1    4    4    0    0 -0.15390986515E+02  0.11181321502E+02  0.16227219267E+01  0.19092868908E+02  0.51100000000E-03 0. -1.
        -11    1    4    4    0    0 -0.42404703360E+01 -0.25789134336E+01  0.63246820498E+01  0.80395265072E+01  0.51100000000E-03 0.  1.
         12    1    4    4    0    0 -0.18673101559E+02  0.49385917983E+01  0.73177581522E+01  0.20654878241E+02  0.00000000000E+00 0. -1.
</event>
<event>
 8    1  0.4798632E-010  0.9118800E+02  0.7816164E-02  0.1184000E+00
        -11   -1    0    0    0    0  0.00000000000E+00  0.00000000000E+00  0.45593999997E+02  0.45594000000E+02  0.51100000000E-03 0. -1.
         11   -1    0    0    0    0 -0.00000000000E+00 -0.00000000000E+00 -0.45593999997E+02  0.45594000000E+02  0.51100000000E-03 0.  1.
         23    2    1    2    0    0  0.44408920985E-15  0.00000000000E+00  0.71054273576E-14  0.91188000000E+02  0.91188000000E+02 0.  0.
    9900012    2    3    3    0    0  0.21858037633E+01  0.53617722890E+01 -0.43012752720E+02  0.47787271472E+02  0.20000001951E+02 0.  0.
         12    1    3    3    0    0 -0.21858037633E+01 -0.53617722890E+01  0.43012752720E+02  0.43400728528E+02  0.00000000000E+00 0. -1.
         11    1    4    4    0    0  0.63092706149E+01 -0.31488317886E+01 -0.18027669288E+02  0.19357657336E+02  0.51100000000E-03 0. -1.
        -11    1    4    4    0    0 -0.47813963391E+01  0.36692560544E+01 -0.21750468268E+02  0.22570070028E+02  0.51100000000E-03 0.  1.
         12    1    4    4    0    0  0.65792948752E+00  0.48413480232E+01 -0.32346151640E+01  0.58595441078E+01  0.00000000000E+00 0. -1.
</event>
<event>
 8    1  0.4798632E-010  0.9118800E+02  0.7816164E-02  0.1184000E+00
        -11   -1    0    0    0    0  0.00000000000E+00  0.00000000000E+00  0.45593999997E+02  0.45594000000E+02  0.51100000000E-03 0. -1.
         11   -1    0    0    0    0 -0.00000000000E+00 -0.00000000000E+00 -0.45593999997E+02  0.45594000000E+02  0.51100000000E-03 0.  1.
         23    2    1    2    0    0  0.71054273576E-14 -0.88817841970E-15  0.71054273576E-14  0.91188000000E+02  0.91188000000E+02 0.  0.
    9900012    2    3    3    0    0 -0.26816323980E+02  0.69543021367E+01 -0.33408769389E+02  0.47787269337E+02  0.19999992214E+02 0.  0.
         12    1    3    3    0    0  0.26816323980E+02 -0.69543021367E+01  0.33408769389E+02  0.43400730663E+02  0.00000000000E+00 0. -1.
         11    1    4    4    0    0  0.11779993919E+01  0.44758647511E+00 -0.10952824805E+02  0.11025079940E+02  0.51100000000E-03 0. -1.
        -11    1    4    4    0    0 -0.19388299673E+02  0.38835241603E+01 -0.12749440976E+02  0.23527349396E+02  0.51100000000E-03 0.  1.
         12    1    4    4    0    0 -0.86060236985E+01  0.26231915013E+01 -0.97065036086E+01  0.13234840001E+02  0.00000000000E+00 0. -1.
</event>
<event>
 8    1  0.4798632E-010  0.9118800E+02  0.7816164E-02  0.1184000E+00
        -11   -1    0    0    0    0  0.00000000000E+00  0.00000000000E+00  0.45593999997E+02  0.45594000000E+02  0.51100000000E-03 0. -1.
         11   -1    0    0    0    0 -0.00000000000E+00 -0.00000000000E+00 -0.45593999997E+02  0.45594000000E+02  0.51100000000E-03 0.  1.
         23    2    1    2    0    0  0.00000000000E+00  0.00000000000E+00  0.00000000000E+00  0.91188000000E+02  0.91188000000E+02 0.  0.
    9900012    2    3    3    0    0 -0.19591169581E+02 -0.90958290210E+01 -0.37644037695E+02  0.47787290269E+02  0.20000087654E+02 0.  0.
         12    1    3    3    0    0  0.19591169581E+02  0.90958290210E+01  0.37644037695E+02  0.43400709731E+02  0.00000000000E+00 0. -1.
         11    1    4    4    0    0 -0.15773707801E+01 -0.56311311748E+01 -0.48851123378E+00  0.58682519009E+01  0.51100000000E-03 0. -1.
        -11    1    4    4    0    0 -0.12216559196E+02 -0.33753487229E+01 -0.30855407418E+02  0.33357060194E+02  0.51100000000E-03 0.  1.
         12    1    4    4    0    0 -0.57972396050E+01 -0.89349123379E-01 -0.63001190437E+01  0.85619781749E+01  0.00000000000E+00 0. -1.
</event>
<event>
 8    1  0.4798632E-010  0.9118800E+02  0.7816164E-02  0.1184000E+00
        -11   -1    0    0    0    0  0.00000000000E+00  0.00000000000E+00  0.45593999997E+02  0.45594000000E+02  0.51100000000E-03 0. -1.
         11   -1    0    0    0    0 -0.00000000000E+00 -0.00000000000E+00 -0.45593999997E+02  0.45594000000E+02  0.51100000000E-03 0.  1.
         23    2    1    2    0    0  0.22204460493E-15  0.00000000000E+00 -0.35527136788E-14  0.91188000000E+02  0.91188000000E+02 0.  0.
    9900012    2    3    3    0    0 -0.17762334104E+01 -0.35149964591E+02  0.25395827259E+02  0.47787273531E+02  0.20000011338E+02 0.  0.
        -12    1    3    3    0    0  0.17762334104E+01  0.35149964591E+02 -0.25395827259E+02  0.43400726469E+02  0.00000000000E+00 0.  1.
         11    1    4    4    0    0  0.13183521829E+01 -0.23193498054E+02  0.12095543598E+02  0.26191192788E+02  0.51100000000E-03 0. -1.
        -11    1    4    4    0    0 -0.52012522277E+01 -0.55522489833E+01  0.12730050423E+02  0.14830194791E+02  0.51100000000E-03 0.  1.
        -12    1    4    4    0    0  0.21066666344E+01 -0.64042175533E+01  0.57023323867E+00  0.67658859527E+01  0.00000000000E+00 0.  1.
</event>
<event>
 8    1  0.4798632E-010  0.9118800E+02  0.7816164E-02  0.1184000E+00
        -11   -1    0    0    0    0  0.00000000000E+00  0.00000000000E+00  0.45593999997E+02  0.45594000000E+02  0.51100000000E-03 0. -1.
         11   -1    0    0    0    0 -0.00000000000E+00 -0.00000000000E+00 -0.45593999997E+02  0.45594000000E+02  0.51100000000E-03 0.  1.
         23    2    1    2    0    0 -0.71054273576E-14  0.17763568394E-14 -0.17763568394E-14  0.91188000000E+02  0.91188000000E+02 0.  0.
    9900012    2    3    3    0    0  0.38873114130E+02 -0.11127992677E+02  0.15769334466E+02  0.47787272671E+02  0.20000007416E+02 0.  0.
        -12    1    3    3    0    0 -0.38873114130E+02  0.11127992677E+02 -0.15769334466E+02  0.43400727329E+02  0.00000000000E+00 0.  1.
         11    1    4    4    0    0  0.87898518581E+00 -0.31349581090E+01  0.43395820870E+01  0.54251774398E+01  0.51100000000E-03 0.  1.
        -11    1    4    4    0    0  0.20335445222E+02 -0.49212826966E+01 -0.32957884277E+00  0.20925056230E+02  0.51100000000E-03 0. -1.
         12    1    4    4    0    0  0.17658683722E+02 -0.30717518715E+01  0.11759331221E+02  0.21437039001E+02  0.00000000000E+00 0. -1.
</event>
<event>
 8    1  0.4798632E-010  0.9118800E+02  0.7816164E-02  0.1184000E+00
        -11   -1    0    0    0    0  0.00000000000E+00  0.00000000000E+00  0.45593999997E+02  0.45594000000E+02  0.51100000000E-03 0. -1.
         11   -1    0    0    0    0 -0.00000000000E+00 -0.00000000000E+00 -0.45593999997E+02  0.45594000000E+02  0.51100000000E-03 0.  1.
         23    2    1    2    0    0  0.00000000000E+00  0.88817841970E-15  0.00000000000E+00  0.91188000000E+02  0.91188000000E+02 0.  0.
    9900012    2    3    3    0    0 -0.29225359539E+01  0.53312097373E+01 -0.42972784453E+02  0.47787271696E+02  0.20000002971E+02 0.  0.
         12    1    3    3    0    0  0.29225359539E+01 -0.53312097373E+01  0.42972784453E+02  0.43400728304E+02  0.00000000000E+00 0. -1.
         11    1    4    4    0    0  0.73181220659E+01  0.48266088656E+01 -0.18898783650E+02  0.20833028762E+02  0.51100000000E-03 0. -1.
        -11    1    4    4    0    0 -0.62234890893E+01 -0.19321563361E+01 -0.18767311786E+02  0.19866480224E+02  0.51100000000E-03 0.  1.
         12    1    4    4    0    0 -0.40171689305E+01  0.24367572078E+01 -0.53066890171E+01  0.70877627098E+01  0.00000000000E+00 0. -1.
</event>
<event>
 8    1  0.4798632E-010  0.9118800E+02  0.7816164E-02  0.1184000E+00
        -11   -1    0    0    0    0  0.00000000000E+00  0.00000000000E+00  0.45593999997E+02  0.45594000000E+02  0.51100000000E-03 0. -1.
         11   -1    0    0    0    0 -0.00000000000E+00 -0.00000000000E+00 -0.45593999997E+02  0.45594000000E+02  0.51100000000E-03 0.  1.
         23    2    1    2    0    0 -0.88817841970E-15  0.00000000000E+00  0.00000000000E+00  0.91188000000E+02  0.91188000000E+02 0.  0.
    9900012    2    3    3    0    0  0.74140159944E+01 -0.38710625102E+02  0.18169830533E+02  0.47787275691E+02  0.20000021185E+02 0.  0.
        -12    1    3    3    0    0 -0.74140159944E+01  0.38710625102E+02 -0.18169830533E+02  0.43400724309E+02  0.00000000000E+00 0.  1.
         11    1    4    4    0    0  0.36930222252E+01 -0.32471443818E+02  0.98575968334E+01  0.34135103521E+02  0.51100000000E-03 0. -1.
        -11    1    4    4    0    0  0.42432862981E+00 -0.16840223947E+01  0.78168597718E+01  0.80074517273E+01  0.51100000000E-03 0.  1.
         12    1    4    4    0    0  0.32966651394E+01 -0.45551588894E+01  0.49537392808E+00  0.56447204428E+01  0.00000000000E+00 0. -1.
</event>
<event>
 8    1  0.4798632E-010  0.9118800E+02  0.7816164E-02  0.1184000E+00
        -11   -1    0    0    0    0  0.00000000000E+00  0.00000000000E+00  0.45593999997E+02  0.45594000000E+02  0.51100000000E-03 0. -1.
         11   -1    0    0    0    0 -0.00000000000E+00 -0.00000000000E+00 -0.45593999997E+02  0.45594000000E+02  0.51100000000E-03 0.  1.
         23    2    1    2    0    0  0.00000000000E+00  0.17763568394E-14  0.00000000000E+00  0.91188000000E+02  0.91188000000E+02 0.  0.
    9900012    2    3    3    0    0 -0.20938180429E+02  0.84759544961E+01  0.37059069000E+02  0.47787264989E+02  0.19999972392E+02 0.  0.
        -12    1    3    3    0    0  0.20938180429E+02 -0.84759544961E+01 -0.37059069000E+02  0.43400735011E+02  0.00000000000E+00 0.  1.
         11    1    4    4    0    0 -0.86037449214E+01 -0.40950815021E+01  0.10014687424E+02  0.13823461348E+02  0.51100000000E-03 0.  1.
        -11    1    4    4    0    0 -0.13947628442E+02  0.11606194669E+02  0.21632762654E+02  0.28235022829E+02  0.51100000000E-03 0. -1.
        -12    1    4    4    0    0  0.16131929343E+01  0.96484132957E+00  0.54116189224E+01  0.57287808124E+01  0.00000000000E+00 0.  1.
</event>
<event>
 8    1  0.4798632E-010  0.9118800E+02  0.7816164E-02  0.1184000E+00
        -11   -1    0    0    0    0  0.00000000000E+00  0.00000000000E+00  0.45593999997E+02  0.45594000000E+02  0.51100000000E-03 0. -1.
         11   -1    0    0    0    0 -0.00000000000E+00 -0.00000000000E+00 -0.45593999997E+02  0.45594000000E+02  0.51100000000E-03 0.  1.
         23    2    1    2    0    0  0.00000000000E+00  0.00000000000E+00  0.00000000000E+00  0.91188000000E+02  0.91188000000E+02 0.  0.
    9900012    2    3    3    0    0  0.43951179842E+01  0.38407597815E+02 -0.19727218062E+02  0.47787265392E+02  0.19999974229E+02 0.  0.
         12    1    3    3    0    0 -0.43951179842E+01 -0.38407597815E+02  0.19727218062E+02  0.43400734608E+02  0.00000000000E+00 0. -1.
         11    1    4    4    0    0  0.37252448377E+01  0.25599176494E+02 -0.24984009258E+01  0.25989176472E+02  0.51100000000E-03 0. -1.
        -11    1    4    4    0    0  0.15950279067E+01  0.12056397972E+02 -0.15717465340E+02  0.19873086400E+02  0.51100000000E-03 0.  1.
         12    1    4    4    0    0 -0.92515476027E+00  0.75202334933E+00 -0.15113517961E+01  0.19250025195E+01  0.00000000000E+00 0. -1.
</event>
<event>
 8    1  0.4798632E-010  0.9118800E+02  0.7816164E-02  0.1184000E+00
        -11   -1    0    0    0    0  0.00000000000E+00  0.00000000000E+00  0.45593999997E+02  0.45594000000E+02  0.51100000000E-03 0. -1.
         11   -1    0    0    0    0 -0.00000000000E+00 -0.00000000000E+00 -0.45593999997E+02  0.45594000000E+02  0.51100000000E-03 0.  1.
         23    2    1    2    0    0  0.00000000000E+00  0.00000000000E+00  0.35527136788E-14  0.91188000000E+02  0.91188000000E+02 0.  0.
    9900012    2    3    3    0    0  0.21030777147E+02 -0.26027245966E+02  0.27638963445E+02  0.47787269357E+02  0.19999992307E+02 0.  0.
        -12    1    3    3    0    0 -0.21030777147E+02  0.26027245966E+02 -0.27638963445E+02  0.43400730643E+02  0.00000000000E+00 0.  1.
         11    1    4    4    0    0  0.12984007197E+02 -0.28132871944E+01  0.14028860347E+02  0.19321178810E+02  0.51100000000E-03 0. -1.
        -11    1    4    4    0    0  0.35831446203E+01 -0.13420374954E+02  0.99936179588E+01  0.17111919513E+02  0.51100000000E-03 0.  1.
         12    1    4    4    0    0  0.44636253305E+01 -0.97935838183E+01  0.36164851396E+01  0.11354171034E+02  0.00000000000E+00 0. -1.
</event>
<event>
 8    1  0.4798632E-010  0.9118800E+02  0.7816164E-02  0.1184000E+00
        -11   -1    0    0    0    0  0.00000000000E+00  0.00000000000E+00  0.45593999997E+02  0.45594000000E+02  0.51100000000E-03 0. -1.
         11   -1    0    0    0    0 -0.00000000000E+00 -0.00000000000E+00 -0.45593999997E+02  0.45594000000E+02  0.51100000000E-03 0.  1.
         23    2    1    2    0    0  0.35527136788E-14  0.00000000000E+00  0.00000000000E+00  0.91188000000E+02  0.91188000000E+02 0.  0.
    9900012    2    3    3    0    0 -0.25981892288E+02  0.27508764707E+02 -0.21256301612E+02  0.47787294697E+02  0.20000107840E+02 0.  0.
         12    1    3    3    0    0  0.25981892288E+02 -0.27508764707E+02  0.21256301612E+02  0.43400705303E+02  0.00000000000E+00 0. -1.
         11    1    4    4    0    0 -0.21185660523E+02  0.25683056601E+02 -0.17570894375E+02  0.37645556678E+02  0.51100000000E-03 0.  1.
        -11    1    4    4    0    0  0.13165149208E+01 -0.15850521895E+01  0.30712186629E+00  0.20832489246E+01  0.51100000000E-03 0. -1.
         12    1    4    4    0    0 -0.61127466861E+01  0.34107602958E+01 -0.39925291035E+01  0.80584890945E+01  0.00000000000E+00 0. -1.
</event>
<event>
 8    1  0.4798632E-010  0.9118800E+02  0.7816164E-02  0.1184000E+00
        -11   -1    0    0    0    0  0.00000000000E+00  0.00000000000E+00  0.45593999997E+02  0.45594000000E+02  0.51100000000E-03 0. -1.
         11   -1    0    0    0    0 -0.00000000000E+00 -0.00000000000E+00 -0.45593999997E+02  0.45594000000E+02  0.51100000000E-03 0.  1.
         23    2    1    2    0    0  0.00000000000E+00  0.00000000000E+00  0.00000000000E+00  0.91188000000E+02  0.91188000000E+02 0.  0.
    9900012    2    3    3    0    0  0.10964625519E+02  0.94936398396E+01  0.40905661445E+02  0.47787247145E+02  0.19999891030E+02 0.  0.
        -12    1    3    3    0    0 -0.10964625519E+02 -0.94936398396E+01 -0.40905661445E+02  0.43400752855E+02  0.00000000000E+00 0.  1.
         11    1    4    4    0    0 -0.29793293812E+01  0.71972743811E+01  0.19199253271E+02  0.20719278185E+02  0.51100000000E-03 0. -1.
        -11    1    4    4    0    0  0.40723002795E+01 -0.27384773002E+01  0.48834896826E+01  0.69232477373E+01  0.51100000000E-03 0.  1.
         12    1    4    4    0    0  0.98716546211E+01  0.50348427588E+01  0.16822918491E+02  0.20144721222E+02  0.00000000000E+00 0. -1.
</event>
<event>
 8    1  0.4798632E-010  0.9118800E+02  0.7816164E-02  0.1184000E+00
        -11   -1    0    0    0    0  0.00000000000E+00  0.00000000000E+00  0.45593999997E+02  0.45594000000E+02  0.51100000000E-03 0. -1.
         11   -1    0    0    0    0 -0.00000000000E+00 -0.00000000000E+00 -0.45593999997E+02  0.45594000000E+02  0.51100000000E-03 0.  1.
         23    2    1    2    0    0  0.00000000000E+00 -0.66613381478E-15  0.00000000000E+00  0.91188000000E+02  0.91188000000E+02 0.  0.
    9900012    2    3    3    0    0  0.75030648515E+01  0.66051554154E+00 -0.42742142236E+02  0.47787274363E+02  0.20000015130E+02 0.  0.
         12    1    3    3    0    0 -0.75030648515E+01 -0.66051554154E+00  0.42742142236E+02  0.43400725637E+02  0.00000000000E+00 0. -1.
         11    1    4    4    0    0  0.34401302725E+01 -0.25448618648E+01 -0.32939136429E+01  0.54000634765E+01  0.51100000000E-03 0. -1.
        -11    1    4    4    0    0  0.35578381203E+01  0.51258190044E+01 -0.53154592266E+01  0.81967273717E+01  0.51100000000E-03 0.  1.
        -12    1    4    4    0    0  0.50509645867E+00 -0.19204415981E+01 -0.34132769366E+02  0.34190483515E+02  0.00000000000E+00 0.  1.
</event>
<event>
 8    1  0.6460404E-010  0.9118800E+02  0.7816164E-02  0.1184000E+00
        -11   -1    0    0    0    0  0.00000000000E+00  0.00000000000E+00  0.45593999997E+02  0.45594000000E+02  0.51100000000E-03 0. -1.
         11   -1    0    0    0    0 -0.00000000000E+00 -0.00000000000E+00 -0.45593999997E+02  0.45594000000E+02  0.51100000000E-03 0.  1.
         23    2    1    2    0    0  0.00000000000E+00  0.00000000000E+00  0.00000000000E+00  0.91188000000E+02  0.91188000000E+02 0.  0.
    9900012    2    3    3    0    0 -0.18795306356E+02  0.17561338059E+02 -0.34956517355E+02  0.47787282944E+02  0.20000054254E+02 0.  0.
         12    1    3    3    0    0  0.18795306356E+02 -0.17561338059E+02  0.34956517355E+02  0.43400717056E+02  0.00000000000E+00 0. -1.
         11    1    4    4    0    0 -0.17690182186E+01 -0.14975986981E+01  0.51511748443E+00  0.23743575136E+01  0.51100000000E-03 0. -1.
        -11    1    4    4    0    0 -0.11937119566E+02  0.14894430099E+02 -0.33485328752E+02  0.38543561244E+02  0.51100000000E-03 0.  1.
        -12    1    4    4    0    0 -0.50891685713E+01  0.41645066577E+01 -0.19863060872E+01  0.68693641861E+01  0.00000000000E+00 0.  1.
</event>
<event>
 8    1  0.4798632E-010  0.9118800E+02  0.7816164E-02  0.1184000E+00
        -11   -1    0    0    0    0  0.00000000000E+00  0.00000000000E+00  0.45593999997E+02  0.45594000000E+02  0.51100000000E-03 0. -1.
         11   -1    0    0    0    0 -0.00000000000E+00 -0.00000000000E+00 -0.45593999997E+02  0.45594000000E+02  0.51100000000E-03 0.  1.
         23    2    1    2    0    0 -0.35527136788E-14  0.00000000000E+00  0.00000000000E+00  0.91188000000E+02  0.91188000000E+02 0.  0.
    9900012    2    3    3    0    0  0.21967779169E+02 -0.28774635799E+02  0.23938685389E+02  0.47787266768E+02  0.19999980500E+02 0.  0.
        -12    1    3    3    0    0 -0.21967779169E+02  0.28774635799E+02 -0.23938685389E+02  0.43400733232E+02  0.00000000000E+00 0.  1.
         11    1    4    4    0    0  0.68510794101E+01 -0.21033221815E+02  0.19458371585E+02  0.29461193696E+02  0.51100000000E-03 0. -1.
        -11    1    4    4    0    0  0.12237378902E+02 -0.57198792593E+01  0.56161760509E+01  0.14629145389E+02  0.51100000000E-03 0.  1.
         12    1    4    4    0    0  0.28793208573E+01 -0.20215347250E+01 -0.11358622475E+01  0.36969276824E+01  0.00000000000E+00 0. -1.
</event>
<event>
 8    1  0.4798632E-010  0.9118800E+02  0.7816164E-02  0.1184000E+00
        -11   -1    0    0    0    0  0.00000000000E+00  0.00000000000E+00  0.45593999997E+02  0.45594000000E+02  0.51100000000E-03 0.  1.
         11   -1    0    0    0    0 -0.00000000000E+00 -0.00000000000E+00 -0.45593999997E+02  0.45594000000E+02  0.51100000000E-03 0. -1.
         23    2    1    2    0    0  0.00000000000E+00  0.00000000000E+00  0.88817841970E-15  0.91188000000E+02  0.91188000000E+02 0.  0.
    9900012    2    3    3    0    0  0.55440339093E+01 -0.42395693200E+02 -0.74495038194E+01  0.47787237091E+02  0.19999845192E+02 0.  0.
        -12    1    3    3    0    0 -0.55440339093E+01  0.42395693200E+02  0.74495038194E+01  0.43400762909E+02  0.00000000000E+00 0.  1.
         11    1    4    4    0    0  0.10305902613E+02 -0.24476539951E+02 -0.93504720702E+01  0.28155709276E+02  0.51100000000E-03 0. -1.
        -11    1    4    4    0    0 -0.32393195796E+01 -0.35893873556E+01  0.19700991713E+01  0.52209370742E+01  0.51100000000E-03 0.  1.
         12    1    4    4    0    0 -0.15225491245E+01 -0.14329765894E+02 -0.69130920442E-01  0.14410590741E+02  0.00000000000E+00 0. -1.
</event>
<event>
 8    1  0.4798632E-010  0.9118800E+02  0.7816164E-02  0.1184000E+00
        -11   -1    0    0    0    0  0.00000000000E+00  0.00000000000E+00  0.45593999997E+02  0.45594000000E+02  0.51100000000E-03 0. -1.
         11   -1    0    0    0    0 -0.00000000000E+00 -0.00000000000E+00 -0.45593999997E+02  0.45594000000E+02  0.51100000000E-03 0.  1.
         23    2    1    2    0    0  0.00000000000E+00  0.00000000000E+00  0.00000000000E+00  0.91188000000E+02  0.91188000000E+02 0.  0.
    9900012    2    3    3    0    0 -0.10581510569E+02  0.36896502481E+02  0.20255938199E+02  0.47787270818E+02  0.19999998967E+02 0.  0.
        -12    1    3    3    0    0  0.10581510569E+02 -0.36896502481E+02 -0.20255938199E+02  0.43400729182E+02  0.00000000000E+00 0.  1.
         11    1    4    4    0    0 -0.10398047510E+02  0.28780846937E+02  0.17250045353E+02  0.35128629455E+02  0.51100000000E-03 0. -1.
        -11    1    4    4    0    0 -0.96371441617E+00 -0.19007138791E+01 -0.12682724131E+00  0.21348405412E+01  0.51100000000E-03 0.  1.
         12    1    4    4    0    0  0.78025135703E+00  0.10016369422E+02  0.31327200871E+01  0.10523800822E+02  0.00000000000E+00 0. -1.
</event>
<event>
 8    1  0.4798632E-010  0.9118800E+02  0.7816164E-02  0.1184000E+00
        -11   -1    0    0    0    0  0.00000000000E+00  0.00000000000E+00  0.45593999997E+02  0.45594000000E+02  0.51100000000E-03 0. -1.
         11   -1    0    0    0    0 -0.00000000000E+00 -0.00000000000E+00 -0.45593999997E+02  0.45594000000E+02  0.51100000000E-03 0.  1.
         23    2    1    2    0    0  0.00000000000E+00  0.44408920985E-15  0.00000000000E+00  0.91188000000E+02  0.91188000000E+02 0.  0.
    9900012    2    3    3    0    0 -0.21708583523E+02  0.94995123182E+00 -0.37569375721E+02  0.47787274223E+02  0.20000014491E+02 0.  0.
         12    1    3    3    0    0  0.21708583523E+02 -0.94995123182E+00  0.37569375721E+02  0.43400725777E+02  0.00000000000E+00 0. -1.
         11    1    4    4    0    0 -0.13733680843E+02  0.75466063139E+01 -0.22482223421E+02  0.27404664321E+02  0.51100000000E-03 0. -1.
        -11    1    4    4    0    0 -0.82515959404E+01 -0.55215713429E+01 -0.16076737067E+02  0.18895450792E+02  0.51100000000E-03 0.  1.
         12    1    4    4    0    0  0.27669326068E+00 -0.10750837391E+01  0.98958476638E+00  0.14871591093E+01  0.00000000000E+00 0. -1.
</event>
<event>
 8    1  0.4798632E-010  0.9118800E+02  0.7816164E-02  0.1184000E+00
        -11   -1    0    0    0    0  0.00000000000E+00  0.00000000000E+00  0.45593999997E+02  0.45594000000E+02  0.51100000000E-03 0. -1.
         11   -1    0    0    0    0 -0.00000000000E+00 -0.00000000000E+00 -0.45593999997E+02  0.45594000000E+02  0.51100000000E-03 0.  1.
         23    2    1    2    0    0 -0.17763568394E-14  0.00000000000E+00  0.00000000000E+00  0.91188000000E+02  0.91188000000E+02 0.  0.
    9900012    2    3    3    0    0  0.13956730363E+02  0.10914051793E+02  0.39619642063E+02  0.47787275511E+02  0.20000020366E+02 0.  0.
        -12    1    3    3    0    0 -0.13956730363E+02 -0.10914051793E+02 -0.39619642063E+02  0.43400724489E+02  0.00000000000E+00 0.  1.
         11    1    4    4    0    0  0.31556303936E+01 -0.39813405465E+01  0.41123550033E+01  0.65360951387E+01  0.51100000000E-03 0.  1.
        -11    1    4    4    0    0  0.47593489231E+01 -0.17227594373E+00  0.78750495916E+01  0.92031237905E+01  0.51100000000E-03 0. -1.
         12    1    4    4    0    0  0.60417510460E+01  0.15067668284E+02  0.27632237468E+02  0.32048056582E+02  0.00000000000E+00 0. -1.
</event>
<event>
 8    1  0.4798632E-010  0.9118800E+02  0.7816164E-02  0.1184000E+00
        -11   -1    0    0    0    0  0.00000000000E+00  0.00000000000E+00  0.45593999997E+02  0.45594000000E+02  0.51100000000E-03 0. -1.
         11   -1    0    0    0    0 -0.00000000000E+00 -0.00000000000E+00 -0.45593999997E+02  0.45594000000E+02  0.51100000000E-03 0.  1.
         23    2    1    2    0    0  0.00000000000E+00  0.00000000000E+00  0.00000000000E+00  0.91188000000E+02  0.91188000000E+02 0.  0.
    9900012    2    3    3    0    0 -0.14444071929E+02  0.49484951267E+01  0.40626402116E+02  0.47787269974E+02  0.19999995118E+02 0.  0.
        -12    1    3    3    0    0  0.14444071929E+02 -0.49484951267E+01 -0.40626402116E+02  0.43400730026E+02  0.00000000000E+00 0.  1.
         11    1    4    4    0    0 -0.49627808034E+01 -0.58008310759E+01  0.25433805753E+02  0.26554798245E+02  0.51100000000E-03 0. -1.
        -11    1    4    4    0    0 -0.37594771462E+01  0.62402150545E+01  0.56086789379E+01  0.91940867969E+01  0.51100000000E-03 0.  1.
         12    1    4    4    0    0 -0.57218139794E+01  0.45091111481E+01  0.95839174251E+01  0.12038384932E+02  0.00000000000E+00 0. -1.
</event>
<event>
 8    1  0.4798632E-010  0.9118800E+02  0.7816164E-02  0.1184000E+00
        -11   -1    0    0    0    0  0.00000000000E+00  0.00000000000E+00  0.45593999997E+02  0.45594000000E+02  0.51100000000E-03 0. -1.
         11   -1    0    0    0    0 -0.00000000000E+00 -0.00000000000E+00 -0.45593999997E+02  0.45594000000E+02  0.51100000000E-03 0.  1.
         23    2    1    2    0    0  0.00000000000E+00  0.00000000000E+00  0.00000000000E+00  0.91188000000E+02  0.91188000000E+02 0.  0.
    9900012    2    3    3    0    0 -0.11414763072E+02 -0.13327990879E+02  0.39694973834E+02  0.47787272995E+02  0.20000008894E+02 0.  0.
        -12    1    3    3    0    0  0.11414763072E+02  0.13327990879E+02 -0.39694973834E+02  0.43400727005E+02  0.00000000000E+00 0.  1.
         11    1    4    4    0    0 -0.58836834741E+01 -0.96435230943E+01  0.37253406064E+02  0.38928543930E+02  0.51100000000E-03 0. -1.
        -11    1    4    4    0    0 -0.23332668649E+01 -0.43025281456E+01  0.18796748249E+00  0.48980827619E+01  0.51100000000E-03 0.  1.
         12    1    4    4    0    0 -0.31978127329E+01  0.61806036054E+00  0.22536002880E+01  0.39606463035E+01  0.00000000000E+00 0. -1.
</event>
<event>
 8    1  0.4798632E-010  0.9118800E+02  0.7816164E-02  0.1184000E+00
        -11   -1    0    0    0    0  0.00000000000E+00  0.00000000000E+00  0.45593999997E+02  0.45594000000E+02  0.51100000000E-03 0.  1.
         11   -1    0    0    0    0 -0.00000000000E+00 -0.00000000000E+00 -0.45593999997E+02  0.45594000000E+02  0.51100000000E-03 0. -1.
         23    2    1    2    0    0  0.17763568394E-14  0.71054273576E-14 -0.17763568394E-14  0.91188000000E+02  0.91188000000E+02 0.  0.
    9900012    2    3    3    0    0 -0.85419448802E+01  0.39929718115E+02  0.14706336556E+02  0.47787267910E+02  0.19999985710E+02 0.  0.
        -12    1    3    3    0    0  0.85419448802E+01 -0.39929718115E+02 -0.14706336556E+02  0.43400732090E+02  0.00000000000E+00 0.  1.
         11    1    4    4    0    0 -0.11734739877E+02  0.29218913614E+02  0.15934173659E+02  0.35289473264E+02  0.51100000000E-03 0. -1.
        -11    1    4    4    0    0 -0.75596453084E+00  0.86538794532E+00  0.11511691080E+01  0.16265205944E+01  0.51100000000E-03 0.  1.
         12    1    4    4    0    0  0.39487595280E+01  0.98454165554E+01 -0.23790062116E+01  0.10871274052E+02  0.00000000000E+00 0. -1.
</event>
<event>
 8    1  0.4798632E-010  0.9118800E+02  0.7816164E-02  0.1184000E+00
        -11   -1    0    0    0    0  0.00000000000E+00  0.00000000000E+00  0.45593999997E+02  0.45594000000E+02  0.51100000000E-03 0. -1.
         11   -1    0    0    0    0 -0.00000000000E+00 -0.00000000000E+00 -0.45593999997E+02  0.45594000000E+02  0.51100000000E-03 0.  1.
         23    2    1    2    0    0 -0.17763568394E-14  0.88817841970E-15  0.00000000000E+00  0.91188000000E+02  0.91188000000E+02 0.  0.
    9900012    2    3    3    0    0  0.12458218094E+02 -0.65934944416E+01  0.41048012664E+02  0.47787300574E+02  0.20000134634E+02 0.  0.
        -12    1    3    3    0    0 -0.12458218094E+02  0.65934944416E+01 -0.41048012664E+02  0.43400699426E+02  0.00000000000E+00 0.  1.
         11    1    4    4    0    0 -0.20962047566E+01 -0.19468868219E+01  0.19422467255E+02  0.19632031918E+02  0.51100000000E-03 0. -1.
        -11    1    4    4    0    0  0.15816304375E+02 -0.47638611305E+01  0.18604969599E+02  0.24879605122E+02  0.51100000000E-03 0.  1.
        -12    1    4    4    0    0 -0.12618815245E+01  0.11725351085E+00  0.30205758096E+01  0.32756635342E+01  0.00000000000E+00 0.  1.
</event>
<event>
 8    1  0.4798632E-010  0.9118800E+02  0.7816164E-02  0.1184000E+00
        -11   -1    0    0    0    0  0.00000000000E+00  0.00000000000E+00  0.45593999997E+02  0.45594000000E+02  0.51100000000E-03 0. -1.
         11   -1    0    0    0    0 -0.00000000000E+00 -0.00000000000E+00 -0.45593999997E+02  0.45594000000E+02  0.51100000000E-03 0.  1.
         23    2    1    2    0    0  0.00000000000E+00 -0.17763568394E-14  0.00000000000E+00  0.91188000000E+02  0.91188000000E+02 0.  0.
    9900012    2    3    3    0    0 -0.86348633597E+01 -0.12578846638E+02  0.40630459581E+02  0.47787280032E+02  0.20000040977E+02 0.  0.
        -12    1    3    3    0    0  0.86348633597E+01  0.12578846638E+02 -0.40630459581E+02  0.43400719968E+02  0.00000000000E+00 0.  1.
         11    1    4    4    0    0 -0.73983241536E+01 -0.11344162579E+02  0.15681017576E+02  0.20720027446E+02  0.51100000000E-03 0. -1.
        -11    1    4    4    0    0  0.15454586471E+01  0.21133143617E+01  0.11270160520E+01  0.28503868972E+01  0.51100000000E-03 0.  1.
         12    1    4    4    0    0 -0.27819978531E+01 -0.33479984214E+01  0.23822425953E+02  0.24216865688E+02  0.00000000000E+00 0. -1.
</event>
<event>
 8    1  0.4798632E-010  0.9118800E+02  0.7816164E-02  0.1184000E+00
        -11   -1    0    0    0    0  0.00000000000E+00  0.00000000000E+00  0.45593999997E+02  0.45594000000E+02  0.51100000000E-03 0. -1.
         11   -1    0    0    0    0 -0.00000000000E+00 -0.00000000000E+00 -0.45593999997E+02  0.45594000000E+02  0.51100000000E-03 0.  1.
         23    2    1    2    0    0  0.00000000000E+00  0.00000000000E+00  0.00000000000E+00  0.91188000000E+02  0.91188000000E+02 0.  0.
    9900012    2    3    3    0    0  0.26460748818E+02  0.18850553960E+02 -0.28776878602E+02  0.47787270114E+02  0.19999995757E+02 0.  0.
         12    1    3    3    0    0 -0.26460748818E+02 -0.18850553960E+02  0.28776878602E+02  0.43400729886E+02  0.00000000000E+00 0. -1.
         11    1    4    4    0    0  0.58610073093E+01  0.54973005612E+01 -0.49088922101E+01  0.94164188061E+01  0.51100000000E-03 0. -1.
        -11    1    4    4    0    0  0.20146045486E+02  0.72250539184E+01 -0.10894666318E+02  0.24015792872E+02  0.51100000000E-03 0.  1.
        -12    1    4    4    0    0  0.45369602265E+00  0.61281994799E+01 -0.12973320074E+02  0.14355058436E+02  0.00000000000E+00 0.  1.
</event>
<event>
 8    1  0.4798632E-010  0.9118800E+02  0.7816164E-02  0.1184000E+00
        -11   -1    0    0    0    0  0.00000000000E+00  0.00000000000E+00  0.45593999997E+02  0.45594000000E+02  0.51100000000E-03 0. -1.
         11   -1    0    0    0    0 -0.00000000000E+00 -0.00000000000E+00 -0.45593999997E+02  0.45594000000E+02  0.51100000000E-03 0.  1.
         23    2    1    2    0    0  0.00000000000E+00  0.00000000000E+00  0.00000000000E+00  0.91188000000E+02  0.91188000000E+02 0.  0.
    9900012    2    3    3    0    0 -0.13833635319E+02  0.18088580735E+02  0.36946675702E+02  0.47787273456E+02  0.20000010994E+02 0.  0.
        -12    1    3    3    0    0  0.13833635319E+02 -0.18088580735E+02 -0.36946675702E+02  0.43400726544E+02  0.00000000000E+00 0.  1.
         11    1    4    4    0    0 -0.64333459339E+01  0.73375174559E+01  0.29509193353E+02  0.31080855763E+02  0.51100000000E-03 0. -1.
        -11    1    4    4    0    0 -0.31735535952E+01  0.10205306642E+02  0.55957151934E+01  0.12063654292E+02  0.51100000000E-03 0.  1.
         12    1    4    4    0    0 -0.42267357903E+01  0.54575663662E+00  0.18417671556E+01  0.46427634015E+01  0.00000000000E+00 0. -1.
</event>
<event>
 8    1  0.4798632E-010  0.9118800E+02  0.7816164E-02  0.1184000E+00
        -11   -1    0    0    0    0  0.00000000000E+00  0.00000000000E+00  0.45593999997E+02  0.45594000000E+02  0.51100000000E-03 0. -1.
         11   -1    0    0    0    0 -0.00000000000E+00 -0.00000000000E+00 -0.45593999997E+02  0.45594000000E+02  0.51100000000E-03 0.  1.
         23    2    1    2    0    0  0.00000000000E+00  0.00000000000E+00  0.00000000000E+00  0.91188000000E+02  0.91188000000E+02 0.  0.
    9900012    2    3    3    0    0 -0.18595664979E+02 -0.31133094594E+02  0.23844417614E+02  0.47787255924E+02  0.19999931059E+02 0.  0.
        -12    1    3    3    0    0  0.18595664979E+02  0.31133094594E+02 -0.23844417614E+02  0.43400744076E+02  0.00000000000E+00 0.  1.
         11    1    4    4    0    0 -0.18540951215E+01 -0.13777392401E+02  0.10913104376E+02  0.17673428006E+02  0.51100000000E-03 0. -1.
        -11    1    4    4    0    0 -0.13466207134E+02 -0.82162880772E+01  0.12943220284E+02  0.20405221781E+02  0.51100000000E-03 0.  1.
        -12    1    4    4    0    0 -0.32753627237E+01 -0.91394141152E+01 -0.11907046343E-01  0.97086061368E+01  0.00000000000E+00 0.  1.
</event>
<event>
 8    1  0.4798632E-010  0.9118800E+02  0.7816164E-02  0.1184000E+00
        -11   -1    0    0    0    0  0.00000000000E+00  0.00000000000E+00  0.45593999997E+02  0.45594000000E+02  0.51100000000E-03 0. -1.
         11   -1    0    0    0    0 -0.00000000000E+00 -0.00000000000E+00 -0.45593999997E+02  0.45594000000E+02  0.51100000000E-03 0.  1.
         23    2    1    2    0    0  0.11102230246E-15 -0.22204460493E-15  0.71054273576E-14  0.91188000000E+02  0.91188000000E+02 0.  0.
    9900012    2    3    3    0    0 -0.68735360127E+00 -0.31752860203E+00 -0.43394118652E+02  0.47787276354E+02  0.20000024210E+02 0.  0.
         12    1    3    3    0    0  0.68735360127E+00  0.31752860203E+00  0.43394118652E+02  0.43400723646E+02  0.00000000000E+00 0. -1.
         11    1    4    4    0    0  0.44517468760E+00 -0.58241719712E+01 -0.89895897527E+01  0.10720628892E+02  0.51100000000E-03 0. -1.
        -11    1    4    4    0    0  0.14613259197E+01 -0.36332932966E+01 -0.64946985734E+01  0.75840229063E+01  0.51100000000E-03 0.  1.
         12    1    4    4    0    0 -0.25938542086E+01  0.91399366657E+01 -0.27909830326E+02  0.29482624556E+02  0.00000000000E+00 0. -1.
</event>
<event>
 8    1  0.4798632E-010  0.9118800E+02  0.7816164E-02  0.1184000E+00
        -11   -1    0    0    0    0  0.00000000000E+00  0.00000000000E+00  0.45593999997E+02  0.45594000000E+02  0.51100000000E-03 0. -1.
         11   -1    0    0    0    0 -0.00000000000E+00 -0.00000000000E+00 -0.45593999997E+02  0.45594000000E+02  0.51100000000E-03 0.  1.
         23    2    1    2    0    0  0.00000000000E+00  0.00000000000E+00  0.71054273576E-14  0.91188000000E+02  0.91188000000E+02 0.  0.
    9900012    2    3    3    0    0 -0.20549087134E+02  0.87034357748E+01 -0.37223768641E+02  0.47787265811E+02  0.19999976138E+02 0.  0.
         12    1    3    3    0    0  0.20549087134E+02 -0.87034357748E+01  0.37223768641E+02  0.43400734189E+02  0.00000000000E+00 0. -1.
         11    1    4    4    0    0 -0.20599247476E+02  0.56494252154E+01 -0.25695299725E+02  0.33413970583E+02  0.51100000000E-03 0. -1.
        -11    1    4    4    0    0  0.56055044760E+00  0.56093447283E+01 -0.58428726586E+01  0.81189978600E+01  0.51100000000E-03 0.  1.
        -12    1    4    4    0    0 -0.51039010572E+00 -0.25553341689E+01 -0.56855962568E+01  0.62542973682E+01  0.00000000000E+00 0.  1.
</event>
<event>
 8    1  0.4798632E-010  0.9118800E+02  0.7816164E-02  0.1184000E+00
        -11   -1    0    0    0    0  0.00000000000E+00  0.00000000000E+00  0.45593999997E+02  0.45594000000E+02  0.51100000000E-03 0. -1.
         11   -1    0    0    0    0 -0.00000000000E+00 -0.00000000000E+00 -0.45593999997E+02  0.45594000000E+02  0.51100000000E-03 0.  1.
         23    2    1    2    0    0  0.00000000000E+00  0.35527136788E-14  0.71054273576E-14  0.91188000000E+02  0.91188000000E+02 0.  0.
    9900012    2    3    3    0    0  0.11582501795E+02  0.16223468118E+02  0.38552148919E+02  0.47787268994E+02  0.19999990650E+02 0.  0.
        -12    1    3    3    0    0 -0.11582501795E+02 -0.16223468118E+02 -0.38552148919E+02  0.43400731006E+02  0.00000000000E+00 0.  1.
         11    1    4    4    0    0  0.14217306127E+02  0.45415611459E+01  0.18196789525E+02  0.23534670604E+02  0.51100000000E-03 0. -1.
        -11    1    4    4    0    0 -0.49898025029E+00 -0.56101142498E+00  0.13454558301E+01  0.15407682373E+01  0.51100000000E-03 0.  1.
         12    1    4    4    0    0 -0.21358240813E+01  0.12242918397E+02  0.19009903564E+02  0.22711830153E+02  0.00000000000E+00 0. -1.
</event>
<event>
 8    1  0.4798632E-010  0.9118800E+02  0.7816164E-02  0.1184000E+00
        -11   -1    0    0    0    0  0.00000000000E+00  0.00000000000E+00  0.45593999997E+02  0.45594000000E+02  0.51100000000E-03 0. -1.
         11   -1    0    0    0    0 -0.00000000000E+00 -0.00000000000E+00 -0.45593999997E+02  0.45594000000E+02  0.51100000000E-03 0.  1.
         23    2    1    2    0    0  0.00000000000E+00  0.00000000000E+00  0.00000000000E+00  0.91188000000E+02  0.91188000000E+02 0.  0.
    9900012    2    3    3    0    0  0.17411537169E+02  0.36317161185E+02 -0.16171749362E+02  0.47787270737E+02  0.19999998599E+02 0.  0.
         12    1    3    3    0    0 -0.17411537169E+02 -0.36317161185E+02  0.16171749362E+02  0.43400729263E+02  0.00000000000E+00 0. -1.
         11    1    4    4    0    0  0.91793758387E+00  0.27414828566E+01 -0.59942508846E+01  0.66550267910E+01  0.51100000000E-03 0. -1.
        -11    1    4    4    0    0  0.14620137049E+02  0.14184553348E+02 -0.53802683076E+01  0.21068869176E+02  0.51100000000E-03 0.  1.
        -12    1    4    4    0    0  0.18734625358E+01  0.19391124980E+02 -0.47972301696E+01  0.20063374770E+02  0.00000000000E+00 0.  1.
</event>
<event>
 8    1  0.4798632E-010  0.9118800E+02  0.7816164E-02  0.1184000E+00
        -11   -1    0    0    0    0  0.00000000000E+00  0.00000000000E+00  0.45593999997E+02  0.45594000000E+02  0.51100000000E-03 0. -1.
         11   -1    0    0    0    0 -0.00000000000E+00 -0.00000000000E+00 -0.45593999997E+02  0.45594000000E+02  0.51100000000E-03 0.  1.
         23    2    1    2    0    0 -0.88817841970E-15 -0.71054273576E-14  0.00000000000E+00  0.91188000000E+02  0.91188000000E+02 0.  0.
    9900012    2    3    3    0    0  0.16702767647E+01 -0.37684698284E+02 -0.21463865672E+02  0.47787264536E+02  0.19999970327E+02 0.  0.
         12    1    3    3    0    0 -0.16702767647E+01  0.37684698284E+02  0.21463865672E+02  0.43400735464E+02  0.00000000000E+00 0. -1.
         11    1    4    4    0    0  0.39198991988E+01 -0.12376573541E+01 -0.15123970652E+01  0.43800400225E+01  0.51100000000E-03 0. -1.
        -11    1    4    4    0    0 -0.40419648317E+01 -0.35695669684E+02 -0.16692117868E+02  0.39612436343E+02  0.51100000000E-03 0.  1.
        -12    1    4    4    0    0  0.17923423976E+01 -0.75137124594E+00 -0.32593507391E+01  0.37947881706E+01  0.00000000000E+00 0.  1.
</event>
<event>
 8    1  0.4798632E-010  0.9118800E+02  0.7816164E-02  0.1184000E+00
        -11   -1    0    0    0    0  0.00000000000E+00  0.00000000000E+00  0.45593999997E+02  0.45594000000E+02  0.51100000000E-03 0. -1.
         11   -1    0    0    0    0 -0.00000000000E+00 -0.00000000000E+00 -0.45593999997E+02  0.45594000000E+02  0.51100000000E-03 0.  1.
         23    2    1    2    0    0  0.35527136788E-14  0.00000000000E+00 -0.14210854715E-13  0.91188000000E+02  0.91188000000E+02 0.  0.
    9900012    2    3    3    0    0  0.16017522441E+02 -0.95707725526E+01 -0.39184970276E+02  0.47787278716E+02  0.20000034979E+02 0.  0.
         12    1    3    3    0    0 -0.16017522441E+02  0.95707725526E+01  0.39184970276E+02  0.43400721284E+02  0.00000000000E+00 0. -1.
         11    1    4    4    0    0  0.12415594302E+02 -0.87157339079E+01 -0.27049443269E+02  0.31012632601E+02  0.51100000000E-03 0. -1.
        -11    1    4    4    0    0  0.75914951908E+00  0.50077772683E+01 -0.53630334367E+01  0.73767383758E+01  0.51100000000E-03 0.  1.
        -12    1    4    4    0    0  0.28427786198E+01 -0.58628159130E+01 -0.67724935702E+01  0.93979077389E+01  0.00000000000E+00 0.  1.
</event>
<event>
 8    1  0.4798632E-010  0.9118800E+02  0.7816164E-02  0.1184000E+00
        -11   -1    0    0    0    0  0.00000000000E+00  0.00000000000E+00  0.45593999997E+02  0.45594000000E+02  0.51100000000E-03 0. -1.
         11   -1    0    0    0    0 -0.00000000000E+00 -0.00000000000E+00 -0.45593999997E+02  0.45594000000E+02  0.51100000000E-03 0.  1.
         23    2    1    2    0    0  0.00000000000E+00  0.00000000000E+00  0.00000000000E+00  0.91188000000E+02  0.91188000000E+02 0.  0.
    9900012    2    3    3    0    0 -0.34533851374E+02 -0.84659174001E+01 -0.24887028712E+02  0.47787275971E+02  0.20000022461E+02 0.  0.
         12    1    3    3    0    0  0.34533851374E+02  0.84659174001E+01  0.24887028712E+02  0.43400724029E+02  0.00000000000E+00 0. -1.
         11    1    4    4    0    0 -0.17468761617E+01  0.11560169326E+01  0.14060333930E+00  0.20994573187E+01  0.51100000000E-03 0. -1.
        -11    1    4    4    0    0  0.17890845581E+01 -0.12435743231E+01  0.18808589587E-01  0.21789113514E+01  0.51100000000E-03 0.  1.
        -12    1    4    4    0    0 -0.34576059770E+02 -0.83783600097E+01 -0.25046440641E+02  0.43508907301E+02  0.00000000000E+00 0.  1.
</event>
<event>
 8    1  0.4798632E-010  0.9118800E+02  0.7816164E-02  0.1184000E+00
        -11   -1    0    0    0    0  0.00000000000E+00  0.00000000000E+00  0.45593999997E+02  0.45594000000E+02  0.51100000000E-03 0. -1.
         11   -1    0    0    0    0 -0.00000000000E+00 -0.00000000000E+00 -0.45593999997E+02  0.45594000000E+02  0.51100000000E-03 0.  1.
         23    2    1    2    0    0  0.00000000000E+00  0.00000000000E+00  0.00000000000E+00  0.91188000000E+02  0.91188000000E+02 0.  0.
    9900012    2    3    3    0    0 -0.22748893628E+02 -0.12082924110E+02  0.34930130061E+02  0.47787271868E+02  0.20000003754E+02 0.  0.
        -12    1    3    3    0    0  0.22748893628E+02  0.12082924110E+02 -0.34930130061E+02  0.43400728132E+02  0.00000000000E+00 0.  1.
         11    1    4    4    0    0 -0.15403707987E+02 -0.12887122544E+02  0.25239877785E+02  0.32255287599E+02  0.51100000000E-03 0. -1.
        -11    1    4    4    0    0 -0.73848119240E+00 -0.15424925870E+01 -0.15344071009E+01  0.22976168664E+01  0.51100000000E-03 0.  1.
         12    1    4    4    0    0 -0.66067044484E+01  0.23466910218E+01  0.11224659377E+02  0.13234367403E+02  0.00000000000E+00 0. -1.
</event>
<event>
 8    1  0.6867647E-010  0.9118800E+02  0.7816164E-02  0.1184000E+00
        -11   -1    0    0    0    0  0.00000000000E+00  0.00000000000E+00  0.45593999997E+02  0.45594000000E+02  0.51100000000E-03 0. -1.
         11   -1    0    0    0    0 -0.00000000000E+00 -0.00000000000E+00 -0.45593999997E+02  0.45594000000E+02  0.51100000000E-03 0.  1.
         23    2    1    2    0    0  0.00000000000E+00 -0.35527136788E-14  0.00000000000E+00  0.91188000000E+02  0.91188000000E+02 0.  0.
    9900012    2    3    3    0    0  0.17545375599E+02  0.25595316248E+02 -0.30342437471E+02  0.47787263481E+02  0.19999965515E+02 0.  0.
         12    1    3    3    0    0 -0.17545375599E+02 -0.25595316248E+02  0.30342437471E+02  0.43400736519E+02  0.00000000000E+00 0. -1.
         11    1    4    4    0    0 -0.24382704286E+01  0.32168271174E+01 -0.12146171743E+01  0.42152620948E+01  0.51100000000E-03 0. -1.
        -11    1    4    4    0    0  0.12821663693E+02  0.75919609914E+01 -0.19457242164E+02  0.24507492822E+02  0.51100000000E-03 0.  1.
        -12    1    4    4    0    0  0.71619823347E+01  0.14786528139E+02 -0.96705781323E+01  0.19064508564E+02  0.00000000000E+00 0.  1.
</event>
<event>
 8    1  0.4798632E-010  0.9118800E+02  0.7816164E-02  0.1184000E+00
        -11   -1    0    0    0    0  0.00000000000E+00  0.00000000000E+00  0.45593999997E+02  0.45594000000E+02  0.51100000000E-03 0.  1.
         11   -1    0    0    0    0 -0.00000000000E+00 -0.00000000000E+00 -0.45593999997E+02  0.45594000000E+02  0.51100000000E-03 0. -1.
         23    2    1    2    0    0  0.00000000000E+00  0.00000000000E+00  0.00000000000E+00  0.91188000000E+02  0.91188000000E+02 0.  0.
    9900012    2    3    3    0    0  0.22160852659E+02  0.36446051799E+02  0.80128203369E+01  0.47787269913E+02  0.19999994842E+02 0.  0.
         12    1    3    3    0    0 -0.22160852659E+02 -0.36446051799E+02 -0.80128203369E+01  0.43400730087E+02  0.00000000000E+00 0. -1.
         11    1    4    4    0    0  0.10488012896E+02  0.61402582886E+01  0.23497659609E+01  0.12378311141E+02  0.51100000000E-03 0. -1.
        -11    1    4    4    0    0  0.11780124948E+02  0.22776255906E+02  0.89952740686E+01  0.27174328560E+02  0.51100000000E-03 0.  1.
        -12    1    4    4    0    0 -0.10728518522E+00  0.75295376046E+01 -0.33322196926E+01  0.82346302121E+01  0.00000000000E+00 0.  1.
</event>
<event>
 8    1  0.4798632E-010  0.9118800E+02  0.7816164E-02  0.1184000E+00
        -11   -1    0    0    0    0  0.00000000000E+00  0.00000000000E+00  0.45593999997E+02  0.45594000000E+02  0.51100000000E-03 0. -1.
         11   -1    0    0    0    0 -0.00000000000E+00 -0.00000000000E+00 -0.45593999997E+02  0.45594000000E+02  0.51100000000E-03 0.  1.
         23    2    1    2    0    0  0.17763568394E-14  0.00000000000E+00 -0.71054273576E-14  0.91188000000E+02  0.91188000000E+02 0.  0.
    9900012    2    3    3    0    0 -0.83488580980E+01  0.25752334628E+02  0.33922509772E+02  0.47787276047E+02  0.20000022811E+02 0.  0.
        -12    1    3    3    0    0  0.83488580980E+01 -0.25752334628E+02 -0.33922509772E+02  0.43400723953E+02  0.00000000000E+00 0.  1.
         11    1    4    4    0    0  0.21808000144E+01  0.15110521710E+01 -0.71864515725E+00  0.27487485315E+01  0.51100000000E-03 0.  1.
        -11    1    4    4    0    0 -0.10538018348E+02  0.23622584057E+02  0.27067465645E+02  0.37439604765E+02  0.51100000000E-03 0. -1.
         12    1    4    4    0    0  0.83602352841E-02  0.61869840044E+00  0.75736892840E+01  0.75989227510E+01  0.00000000000E+00 0. -1.
</event>
<event>
 8    1  0.4798632E-010  0.9118800E+02  0.7816164E-02  0.1184000E+00
        -11   -1    0    0    0    0  0.00000000000E+00  0.00000000000E+00  0.45593999997E+02  0.45594000000E+02  0.51100000000E-03 0.  1.
         11   -1    0    0    0    0 -0.00000000000E+00 -0.00000000000E+00 -0.45593999997E+02  0.45594000000E+02  0.51100000000E-03 0. -1.
         23    2    1    2    0    0  0.00000000000E+00  0.00000000000E+00  0.00000000000E+00  0.91188000000E+02  0.91188000000E+02 0.  0.
    9900012    2    3    3    0    0  0.40482324094E+02 -0.15035220808E+02  0.43297762308E+01  0.47787269695E+02  0.19999993849E+02 0.  0.
        -12    1    3    3    0    0 -0.40482324094E+02  0.15035220808E+02 -0.43297762308E+01  0.43400730305E+02  0.00000000000E+00 0.  1.
         11    1    4    4    0    0  0.33549126813E+02 -0.35326606645E+01  0.44103962625E+01  0.34021687153E+02  0.51100000000E-03 0. -1.
        -11    1    4    4    0    0  0.59616800812E+01 -0.81272430399E+01 -0.10170227257E+01  0.10130550050E+02  0.51100000000E-03 0.  1.
         12    1    4    4    0    0  0.97151719966E+00 -0.33753171037E+01  0.93640269393E+00  0.36350324930E+01  0.00000000000E+00 0. -1.
</event>
<event>
 8    1  0.4798632E-010  0.9118800E+02  0.7816164E-02  0.1184000E+00
        -11   -1    0    0    0    0  0.00000000000E+00  0.00000000000E+00  0.45593999997E+02  0.45594000000E+02  0.51100000000E-03 0.  1.
         11   -1    0    0    0    0 -0.00000000000E+00 -0.00000000000E+00 -0.45593999997E+02  0.45594000000E+02  0.51100000000E-03 0. -1.
         23    2    1    2    0    0  0.00000000000E+00  0.88817841970E-15  0.00000000000E+00  0.91188000000E+02  0.91188000000E+02 0.  0.
    9900012    2    3    3    0    0 -0.40958300633E+02  0.41363420272E+01  0.13745240902E+02  0.47787270011E+02  0.19999995290E+02 0.  0.
        -12    1    3    3    0    0  0.40958300633E+02 -0.41363420272E+01 -0.13745240902E+02  0.43400729989E+02  0.00000000000E+00 0.  1.
         11    1    4    4    0    0 -0.16273866107E+02  0.59533809047E+01  0.12665120771E+02  0.21463614482E+02  0.51100000000E-03 0. -1.
        -11    1    4    4    0    0 -0.17318781213E+01  0.20767534210E+01  0.13913518383E+01  0.30410798736E+01  0.51100000000E-03 0.  1.
         12    1    4    4    0    0 -0.22952556405E+02 -0.38937922985E+01 -0.31123170657E+00  0.23282575655E+02  0.00000000000E+00 0. -1.
</event>
<event>
 8    1  0.4798632E-010  0.9118800E+02  0.7816164E-02  0.1184000E+00
        -11   -1    0    0    0    0  0.00000000000E+00  0.00000000000E+00  0.45593999997E+02  0.45594000000E+02  0.51100000000E-03 0.  1.
         11   -1    0    0    0    0 -0.00000000000E+00 -0.00000000000E+00 -0.45593999997E+02  0.45594000000E+02  0.51100000000E-03 0. -1.
         23    2    1    2    0    0  0.00000000000E+00  0.00000000000E+00 -0.17763568394E-14  0.91188000000E+02  0.91188000000E+02 0.  0.
    9900012    2    3    3    0    0  0.15819477417E+02  0.38399344150E+02 -0.12603876607E+02  0.47787271868E+02  0.20000003754E+02 0.  0.
         12    1    3    3    0    0 -0.15819477417E+02 -0.38399344150E+02  0.12603876607E+02  0.43400728132E+02  0.00000000000E+00 0. -1.
         11    1    4    4    0    0  0.98822231368E+01  0.25649587774E+02 -0.14189552619E+02  0.30933850243E+02  0.51100000000E-03 0. -1.
        -11    1    4    4    0    0  0.64936060263E+01  0.33753660527E+01 -0.63941698444E-01  0.73187501677E+01  0.51100000000E-03 0.  1.
         12    1    4    4    0    0 -0.55635174604E+00  0.93743903231E+01  0.16496177108E+01  0.95346714567E+01  0.00000000000E+00 0. -1.
</event>
<event>
 8    1  0.4798632E-010  0.9118800E+02  0.7816164E-02  0.1184000E+00
        -11   -1    0    0    0    0  0.00000000000E+00  0.00000000000E+00  0.45593999997E+02  0.45594000000E+02  0.51100000000E-03 0. -1.
         11   -1    0    0    0    0 -0.00000000000E+00 -0.00000000000E+00 -0.45593999997E+02  0.45594000000E+02  0.51100000000E-03 0.  1.
         23    2    1    2    0    0 -0.35527136788E-14  0.35527136788E-14  0.00000000000E+00  0.91188000000E+02  0.91188000000E+02 0.  0.
    9900012    2    3    3    0    0  0.16935234262E+02 -0.16016929102E+02 -0.36609825336E+02  0.47787268572E+02  0.19999988727E+02 0.  0.
         12    1    3    3    0    0 -0.16935234262E+02  0.16016929102E+02  0.36609825336E+02  0.43400731428E+02  0.00000000000E+00 0. -1.
         11    1    4    4    0    0 -0.10044690495E+01 -0.91242691555E+01 -0.83395671493E+01  0.12402000895E+02  0.51100000000E-03 0. -1.
        -11    1    4    4    0    0  0.59945621102E+01 -0.63024870835E+01 -0.16234672990E+02  0.18417945751E+02  0.51100000000E-03 0.  1.
         12    1    4    4    0    0  0.11945141201E+02 -0.59017286284E+00 -0.12035585196E+02  0.16967321926E+02  0.00000000000E+00 0. -1.
</event>
<event>
 8    1  0.4798632E-010  0.9118800E+02  0.7816164E-02  0.1184000E+00
        -11   -1    0    0    0    0  0.00000000000E+00  0.00000000000E+00  0.45593999997E+02  0.45594000000E+02  0.51100000000E-03 0. -1.
         11   -1    0    0    0    0 -0.00000000000E+00 -0.00000000000E+00 -0.45593999997E+02  0.45594000000E+02  0.51100000000E-03 0.  1.
         23    2    1    2    0    0 -0.22204460493E-15  0.00000000000E+00  0.00000000000E+00  0.91188000000E+02  0.91188000000E+02 0.  0.
    9900012    2    3    3    0    0 -0.16389897825E+01  0.62161201365E+01  0.42921986747E+02  0.47787269783E+02  0.19999994247E+02 0.  0.
        -12    1    3    3    0    0  0.16389897825E+01 -0.62161201365E+01 -0.42921986747E+02  0.43400730217E+02  0.00000000000E+00 0.  1.
         11    1    4    4    0    0 -0.21066881590E+01  0.41714485893E+01  0.19233398714E+02  0.19792997364E+02  0.51100000000E-03 0. -1.
        -11    1    4    4    0    0  0.63958971690E+01  0.50286656923E+01  0.14957187261E+02  0.17026815035E+02  0.51100000000E-03 0.  1.
        -12    1    4    4    0    0 -0.59281987925E+01 -0.29839941450E+01  0.87314007733E+01  0.10967457383E+02  0.00000000000E+00 0.  1.
</event>
<event>
 8    1  0.4798632E-010  0.9118800E+02  0.7816164E-02  0.1184000E+00
        -11   -1    0    0    0    0  0.00000000000E+00  0.00000000000E+00  0.45593999997E+02  0.45594000000E+02  0.51100000000E-03 0. -1.
         11   -1    0    0    0    0 -0.00000000000E+00 -0.00000000000E+00 -0.45593999997E+02  0.45594000000E+02  0.51100000000E-03 0.  1.
         23    2    1    2    0    0  0.00000000000E+00  0.00000000000E+00  0.00000000000E+00  0.91188000000E+02  0.91188000000E+02 0.  0.
    9900012    2    3    3    0    0 -0.17144952014E+02  0.20304875732E+02  0.34313057465E+02  0.47787271082E+02  0.20000000171E+02 0.  0.
        -12    1    3    3    0    0  0.17144952014E+02 -0.20304875732E+02 -0.34313057465E+02  0.43400728918E+02  0.00000000000E+00 0.  1.
         11    1    4    4    0    0 -0.41106065655E+01  0.30992656603E+01  0.79989371623E+01  0.95123882362E+01  0.51100000000E-03 0. -1.
        -11    1    4    4    0    0 -0.54965400243E+01  0.11009110339E+02  0.25704587930E+02  0.28498040347E+02  0.51100000000E-03 0.  1.
        -12    1    4    4    0    0 -0.75378054239E+01  0.61964997324E+01  0.60953237277E+00  0.97768424993E+01  0.00000000000E+00 0.  1.
</event>
<event>
 8    1  0.4798632E-010  0.9118800E+02  0.7816164E-02  0.1184000E+00
        -11   -1    0    0    0    0  0.00000000000E+00  0.00000000000E+00  0.45593999997E+02  0.45594000000E+02  0.51100000000E-03 0. -1.
         11   -1    0    0    0    0 -0.00000000000E+00 -0.00000000000E+00 -0.45593999997E+02  0.45594000000E+02  0.51100000000E-03 0.  1.
         23    2    1    2    0    0  0.00000000000E+00  0.00000000000E+00  0.00000000000E+00  0.91188000000E+02  0.91188000000E+02 0.  0.
    9900012    2    3    3    0    0  0.24658078101E+02 -0.40530316391E+01 -0.35484863622E+02  0.47787269276E+02  0.19999991937E+02 0.  0.
         12    1    3    3    0    0 -0.24658078101E+02  0.40530316391E+01  0.35484863622E+02  0.43400730724E+02  0.00000000000E+00 0. -1.
         11    1    4    4    0    0  0.46177734428E+01  0.60483837467E+01 -0.86143488008E+01  0.11494075998E+02  0.51100000000E-03 0. -1.
        -11    1    4    4    0    0  0.15321224046E+02 -0.82597453241E+01 -0.25789065186E+02  0.31113328053E+02  0.51100000000E-03 0.  1.
        -12    1    4    4    0    0  0.47190806122E+01 -0.18416700617E+01 -0.10814496347E+01  0.51798652254E+01  0.00000000000E+00 0.  1.
</event>
<event>
 8    1  0.4798632E-010  0.9118800E+02  0.7816164E-02  0.1184000E+00
        -11   -1    0    0    0    0  0.00000000000E+00  0.00000000000E+00  0.45593999997E+02  0.45594000000E+02  0.51100000000E-03 0. -1.
         11   -1    0    0    0    0 -0.00000000000E+00 -0.00000000000E+00 -0.45593999997E+02  0.45594000000E+02  0.51100000000E-03 0.  1.
         23    2    1    2    0    0 -0.35527136788E-14  0.00000000000E+00  0.00000000000E+00  0.91188000000E+02  0.91188000000E+02 0.  0.
    9900012    2    3    3    0    0  0.29872821771E+02  0.83858148042E+01 -0.30346598365E+02  0.47787269559E+02  0.19999993229E+02 0.  0.
         12    1    3    3    0    0 -0.29872821771E+02 -0.83858148042E+01  0.30346598365E+02  0.43400730441E+02  0.00000000000E+00 0. -1.
         11    1    4    4    0    0 -0.52012272596E+00 -0.94152150142E+00 -0.34105324521E+01  0.35761323040E+01  0.51100000000E-03 0. -1.
        -11    1    4    4    0    0  0.30182678654E+02  0.10167811912E+02 -0.20857563757E+02  0.38071202450E+02  0.51100000000E-03 0.  1.
        -12    1    4    4    0    0  0.21026584257E+00 -0.84047560614E+00 -0.60785021553E+01  0.61399348060E+01  0.00000000000E+00 0.  1.
</event>
<event>
 8    1  0.4798632E-010  0.9118800E+02  0.7816164E-02  0.1184000E+00
        -11   -1    0    0    0    0  0.00000000000E+00  0.00000000000E+00  0.45593999997E+02  0.45594000000E+02  0.51100000000E-03 0. -1.
         11   -1    0    0    0    0 -0.00000000000E+00 -0.00000000000E+00 -0.45593999997E+02  0.45594000000E+02  0.51100000000E-03 0.  1.
         23    2    1    2    0    0  0.00000000000E+00  0.00000000000E+00 -0.71054273576E-14  0.91188000000E+02  0.91188000000E+02 0.  0.
    9900012    2    3    3    0    0  0.18557024670E+02  0.18042824269E+02  0.34838435909E+02  0.47787270873E+02  0.19999999216E+02 0.  0.
        -12    1    3    3    0    0 -0.18557024670E+02 -0.18042824269E+02 -0.34838435909E+02  0.43400729127E+02  0.00000000000E+00 0.  1.
         11    1    4    4    0    0  0.12427912610E+02  0.11364615727E+02  0.19137694618E+02  0.25492329396E+02  0.51100000000E-03 0. -1.
        -11    1    4    4    0    0  0.18063561563E+01 -0.37476643855E+01  0.65750664881E+01  0.77807075831E+01  0.51100000000E-03 0.  1.
        -12    1    4    4    0    0  0.43227559034E+01  0.10425872928E+02  0.91256748026E+01  0.14514233894E+02  0.00000000000E+00 0.  1.
</event>
<event>
 8    1  0.4798632E-010  0.9118800E+02  0.7816164E-02  0.1184000E+00
        -11   -1    0    0    0    0  0.00000000000E+00  0.00000000000E+00  0.45593999997E+02  0.45594000000E+02  0.51100000000E-03 0. -1.
         11   -1    0    0    0    0 -0.00000000000E+00 -0.00000000000E+00 -0.45593999997E+02  0.45594000000E+02  0.51100000000E-03 0.  1.
         23    2    1    2    0    0  0.00000000000E+00  0.00000000000E+00  0.00000000000E+00  0.91188000000E+02  0.91188000000E+02 0.  0.
    9900012    2    3    3    0    0 -0.24786668754E+02 -0.31046604144E+02  0.17474340894E+02  0.47787272282E+02  0.20000005642E+02 0.  0.
        -12    1    3    3    0    0  0.24786668754E+02  0.31046604144E+02 -0.17474340894E+02  0.43400727718E+02  0.00000000000E+00 0.  1.
         11    1    4    4    0    0 -0.16170309756E+02 -0.12788911998E+02  0.63596000615E+01  0.21574978584E+02  0.51100000000E-03 0. -1.
        -11    1    4    4    0    0  0.14956827891E+01 -0.21144283747E+01  0.59293041454E+01  0.64702799218E+01  0.51100000000E-03 0.  1.
        -12    1    4    4    0    0 -0.10112041787E+02 -0.16143263771E+02  0.51854366873E+01  0.19742013776E+02  0.00000000000E+00 0.  1.
</event>
<event>
 8    1  0.4798632E-010  0.9118800E+02  0.7816164E-02  0.1184000E+00
        -11   -1    0    0    0    0  0.00000000000E+00  0.00000000000E+00  0.45593999997E+02  0.45594000000E+02  0.51100000000E-03 0. -1.
         11   -1    0    0    0    0 -0.00000000000E+00 -0.00000000000E+00 -0.45593999997E+02  0.45594000000E+02  0.51100000000E-03 0.  1.
         23    2    1    2    0    0  0.88817841970E-15  0.00000000000E+00  0.00000000000E+00  0.91188000000E+02  0.91188000000E+02 0.  0.
    9900012    2    3    3    0    0 -0.48789703532E+01 -0.38376770622E+02 -0.19673399242E+02  0.47787268292E+02  0.19999987451E+02 0.  0.
         12    1    3    3    0    0  0.48789703532E+01  0.38376770622E+02  0.19673399242E+02  0.43400731708E+02  0.00000000000E+00 0. -1.
         11    1    4    4    0    0  0.48940174717E+01 -0.15348941994E+02 -0.35558888985E+01  0.16498053627E+02  0.51100000000E-03 0. -1.
        -11    1    4    4    0    0 -0.10695072256E+02 -0.19079387405E+02 -0.10245229839E+02  0.24153101851E+02  0.51100000000E-03 0.  1.
         12    1    4    4    0    0  0.92208443074E+00 -0.39484412224E+01 -0.58722805036E+01  0.71361128142E+01  0.00000000000E+00 0. -1.
</event>
<event>
 8    1  0.7608111E-010  0.9118800E+02  0.7816164E-02  0.1184000E+00
        -11   -1    0    0    0    0  0.00000000000E+00  0.00000000000E+00  0.45593999997E+02  0.45594000000E+02  0.51100000000E-03 0. -1.
         11   -1    0    0    0    0 -0.00000000000E+00 -0.00000000000E+00 -0.45593999997E+02  0.45594000000E+02  0.51100000000E-03 0.  1.
         23    2    1    2    0    0  0.17763568394E-14 -0.17763568394E-14  0.71054273576E-14  0.91188000000E+02  0.91188000000E+02 0.  0.
    9900012    2    3    3    0    0 -0.89792071316E+01  0.14436136713E+02 -0.39932404807E+02  0.47787249343E+02  0.19999901055E+02 0.  0.
         12    1    3    3    0    0  0.89792071316E+01 -0.14436136713E+02  0.39932404807E+02  0.43400750657E+02  0.00000000000E+00 0. -1.
         11    1    4    4    0    0 -0.34006682661E+01 -0.28008498877E+00  0.46027780847E+00  0.34430870130E+01  0.51100000000E-03 0. -1.
        -11    1    4    4    0    0 -0.60018051447E+01  0.14410720764E+02 -0.28958783604E+02  0.32898353850E+02  0.51100000000E-03 0.  1.
        -12    1    4    4    0    0  0.42326627925E+00  0.30550093756E+00 -0.11433899011E+02  0.11445808480E+02  0.00000000000E+00 0.  1.
</event>
<event>
 8    1  0.4798632E-010  0.9118800E+02  0.7816164E-02  0.1184000E+00
        -11   -1    0    0    0    0  0.00000000000E+00  0.00000000000E+00  0.45593999997E+02  0.45594000000E+02  0.51100000000E-03 0. -1.
         11   -1    0    0    0    0 -0.00000000000E+00 -0.00000000000E+00 -0.45593999997E+02  0.45594000000E+02  0.51100000000E-03 0.  1.
         23    2    1    2    0    0  0.35527136788E-14  0.00000000000E+00  0.71054273576E-14  0.91188000000E+02  0.91188000000E+02 0.  0.
    9900012    2    3    3    0    0  0.25067615585E+02 -0.82553769552E+01  0.34454121631E+02  0.47787273080E+02  0.20000009282E+02 0.  0.
        -12    1    3    3    0    0 -0.25067615585E+02  0.82553769552E+01 -0.34454121631E+02  0.43400726920E+02  0.00000000000E+00 0.  1.
         11    1    4    4    0    0  0.21615720991E+02 -0.55737628666E+01  0.31322971745E+02  0.38463421399E+02  0.51100000000E-03 0. -1.
        -11    1    4    4    0    0 -0.51499961619E+00 -0.36441705283E+01  0.36806408834E+01  0.52050284358E+01  0.51100000000E-03 0.  1.
         12    1    4    4    0    0  0.39668942098E+01  0.96255643972E+00 -0.54949099763E+00  0.41188232456E+01  0.00000000000E+00 0. -1.
</event>
<event>
 8    1  0.4798632E-010  0.9118800E+02  0.7816164E-02  0.1184000E+00
        -11   -1    0    0    0    0  0.00000000000E+00  0.00000000000E+00  0.45593999997E+02  0.45594000000E+02  0.51100000000E-03 0. -1.
         11   -1    0    0    0    0 -0.00000000000E+00 -0.00000000000E+00 -0.45593999997E+02  0.45594000000E+02  0.51100000000E-03 0.  1.
         23    2    1    2    0    0  0.00000000000E+00  0.00000000000E+00 -0.35527136788E-14  0.91188000000E+02  0.91188000000E+02 0.  0.
    9900012    2    3    3    0    0  0.20617042586E+02 -0.21742065925E+02  0.31398137312E+02  0.47787275325E+02  0.20000019515E+02 0.  0.
        -12    1    3    3    0    0 -0.20617042586E+02  0.21742065925E+02 -0.31398137312E+02  0.43400724675E+02  0.00000000000E+00 0.  1.
         11    1    4    4    0    0  0.13201604993E+02 -0.97673308749E+01  0.39482804889E+01  0.16889998398E+02  0.51100000000E-03 0. -1.
        -11    1    4    4    0    0  0.62342121738E+01 -0.92099550994E+01  0.22657989486E+02  0.25240308282E+02  0.51100000000E-03 0.  1.
         12    1    4    4    0    0  0.11812254191E+01 -0.27647799511E+01  0.47918673367E+01  0.56569686441E+01  0.00000000000E+00 0. -1.
</event>
<event>
 8    1  0.4798632E-010  0.9118800E+02  0.7816164E-02  0.1184000E+00
        -11   -1    0    0    0    0  0.00000000000E+00  0.00000000000E+00  0.45593999997E+02  0.45594000000E+02  0.51100000000E-03 0. -1.
         11   -1    0    0    0    0 -0.00000000000E+00 -0.00000000000E+00 -0.45593999997E+02  0.45594000000E+02  0.51100000000E-03 0.  1.
         23    2    1    2    0    0  0.00000000000E+00  0.17763568394E-14  0.35527136788E-14  0.91188000000E+02  0.91188000000E+02 0.  0.
    9900012    2    3    3    0    0  0.29831304864E+02  0.14860206432E+02  0.27800911673E+02  0.47787272184E+02  0.20000005195E+02 0.  0.
        -12    1    3    3    0    0 -0.29831304864E+02 -0.14860206432E+02 -0.27800911673E+02  0.43400727816E+02  0.00000000000E+00 0.  1.
         11    1    4    4    0    0 -0.70590578295E+00  0.28329854048E+01  0.76819265648E+01  0.82180353666E+01  0.51100000000E-03 0.  1.
        -11    1    4    4    0    0  0.56920333554E+01  0.31477273918E+01  0.19511398460E+00  0.65073420979E+01  0.51100000000E-03 0. -1.
         12    1    4    4    0    0  0.24845177292E+02  0.88794936357E+01  0.19923871124E+02  0.33061894719E+02  0.00000000000E+00 0. -1.
</event>
<event>
 8    1  0.4798632E-010  0.9118800E+02  0.7816164E-02  0.1184000E+00
        -11   -1    0    0    0    0  0.00000000000E+00  0.00000000000E+00  0.45593999997E+02  0.45594000000E+02  0.51100000000E-03 0. -1.
         11   -1    0    0    0    0 -0.00000000000E+00 -0.00000000000E+00 -0.45593999997E+02  0.45594000000E+02  0.51100000000E-03 0.  1.
         23    2    1    2    0    0  0.00000000000E+00  0.00000000000E+00  0.00000000000E+00  0.91188000000E+02  0.91188000000E+02 0.  0.
    9900012    2    3    3    0    0  0.14442994777E+02 -0.36208559729E+02  0.19077824393E+02  0.47787270981E+02  0.19999999712E+02 0.  0.
        -12    1    3    3    0    0 -0.14442994777E+02  0.36208559729E+02 -0.19077824393E+02  0.43400729019E+02  0.00000000000E+00 0.  1.
         11    1    4    4    0    0  0.19202837399E+00 -0.69235635665E+01  0.11067400758E+02  0.13056031830E+02  0.51100000000E-03 0. -1.
        -11    1    4    4    0    0  0.59064512162E+01 -0.59648219521E+01 -0.82396601756E+00  0.84347013669E+01  0.51100000000E-03 0.  1.
         12    1    4    4    0    0  0.83445151865E+01 -0.23320174211E+02  0.88343896527E+01  0.26296537785E+02  0.00000000000E+00 0. -1.
</event>
<event>
 8    1  0.4798632E-010  0.9118800E+02  0.7816164E-02  0.1184000E+00
        -11   -1    0    0    0    0  0.00000000000E+00  0.00000000000E+00  0.45593999997E+02  0.45594000000E+02  0.51100000000E-03 0. -1.
         11   -1    0    0    0    0 -0.00000000000E+00 -0.00000000000E+00 -0.45593999997E+02  0.45594000000E+02  0.51100000000E-03 0.  1.
         23    2    1    2    0    0  0.00000000000E+00  0.00000000000E+00 -0.71054273576E-14  0.91188000000E+02  0.91188000000E+02 0.  0.
    9900012    2    3    3    0    0 -0.20255062379E+02  0.12788234843E+02 -0.36191384841E+02  0.47787276053E+02  0.20000022835E+02 0.  0.
         12    1    3    3    0    0  0.20255062379E+02 -0.12788234843E+02  0.36191384841E+02  0.43400723947E+02  0.00000000000E+00 0. -1.
         11    1    4    4    0    0 -0.48228171822E+01 -0.32091274102E+01 -0.16226537265E+02  0.17229584330E+02  0.51100000000E-03 0. -1.
        -11    1    4    4    0    0 -0.15141667563E+02  0.12983106265E+02 -0.18455358209E+02  0.27174094129E+02  0.51100000000E-03 0.  1.
        -12    1    4    4    0    0 -0.29057763432E+00  0.30142559878E+01 -0.15094893674E+01  0.33835975931E+01  0.00000000000E+00 0.  1.
</event>
<event>
 8    1  0.4798632E-010  0.9118800E+02  0.7816164E-02  0.1184000E+00
        -11   -1    0    0    0    0  0.00000000000E+00  0.00000000000E+00  0.45593999997E+02  0.45594000000E+02  0.51100000000E-03 0. -1.
         11   -1    0    0    0    0 -0.00000000000E+00 -0.00000000000E+00 -0.45593999997E+02  0.45594000000E+02  0.51100000000E-03 0.  1.
         23    2    1    2    0    0  0.00000000000E+00  0.00000000000E+00  0.00000000000E+00  0.91188000000E+02  0.91188000000E+02 0.  0.
    9900012    2    3    3    0    0 -0.96393812358E+01 -0.85166451116E+01  0.41450840314E+02  0.47787273309E+02  0.20000010327E+02 0.  0.
        -12    1    3    3    0    0  0.96393812358E+01  0.85166451116E+01 -0.41450840314E+02  0.43400726691E+02  0.00000000000E+00 0.  1.
         11    1    4    4    0    0 -0.21887753841E+01 -0.77210498670E+01  0.15790207956E+02  0.17712594849E+02  0.51100000000E-03 0. -1.
        -11    1    4    4    0    0 -0.94430041583E+01 -0.18521636577E+01  0.87247670959E+01  0.12989318646E+02  0.51100000000E-03 0.  1.
        -12    1    4    4    0    0  0.19923983066E+01  0.10565684131E+01  0.16935865261E+02  0.17085359814E+02  0.00000000000E+00 0.  1.
</event>
<event>
 8    1  0.4798632E-010  0.9118800E+02  0.7816164E-02  0.1184000E+00
        -11   -1    0    0    0    0  0.00000000000E+00  0.00000000000E+00  0.45593999997E+02  0.45594000000E+02  0.51100000000E-03 0. -1.
         11   -1    0    0    0    0 -0.00000000000E+00 -0.00000000000E+00 -0.45593999997E+02  0.45594000000E+02  0.51100000000E-03 0.  1.
         23    2    1    2    0    0  0.00000000000E+00  0.88817841970E-15  0.00000000000E+00  0.91188000000E+02  0.91188000000E+02 0.  0.
    9900012    2    3    3    0    0 -0.20910568481E+02 -0.74674433861E+01  0.37290866600E+02  0.47787270551E+02  0.19999997748E+02 0.  0.
        -12    1    3    3    0    0  0.20910568481E+02  0.74674433861E+01 -0.37290866600E+02  0.43400729449E+02  0.00000000000E+00 0.  1.
         11    1    4    4    0    0 -0.20462264083E+02 -0.73708674678E+01  0.39384491019E+02  0.44990799856E+02  0.51100000000E-03 0. -1.
        -11    1    4    4    0    0 -0.66606869817E+00 -0.79617812790E+00 -0.16198903233E+01  0.19239521934E+01  0.51100000000E-03 0.  1.
         12    1    4    4    0    0  0.21776429970E+00  0.69960220963E+00 -0.47373409508E+00  0.87251850111E+00  0.00000000000E+00 0. -1.
</event>
<event>
 8    1  0.4798632E-010  0.9118800E+02  0.7816164E-02  0.1184000E+00
        -11   -1    0    0    0    0  0.00000000000E+00  0.00000000000E+00  0.45593999997E+02  0.45594000000E+02  0.51100000000E-03 0. -1.
         11   -1    0    0    0    0 -0.00000000000E+00 -0.00000000000E+00 -0.45593999997E+02  0.45594000000E+02  0.51100000000E-03 0.  1.
         23    2    1    2    0    0  0.17763568394E-14  0.00000000000E+00  0.00000000000E+00  0.91188000000E+02  0.91188000000E+02 0.  0.
    9900012    2    3    3    0    0  0.10557401177E+02  0.34276355081E+02 -0.24439671852E+02  0.47787253492E+02  0.19999919969E+02 0.  0.
         12    1    3    3    0    0 -0.10557401177E+02 -0.34276355081E+02  0.24439671852E+02  0.43400746508E+02  0.00000000000E+00 0. -1.
         11    1    4    4    0    0  0.97313322021E+01  0.54428608056E+01 -0.60798063311E+01  0.12699905727E+02  0.51100000000E-03 0. -1.
        -11    1    4    4    0    0  0.39448528141E+01  0.22221266583E+02 -0.14425231531E+02  0.26784955801E+02  0.51100000000E-03 0.  1.
         12    1    4    4    0    0 -0.31187838390E+01  0.66122276928E+01 -0.39346339898E+01  0.83023919643E+01  0.00000000000E+00 0. -1.
</event>
<event>
 8    1  0.4798632E-010  0.9118800E+02  0.7816164E-02  0.1184000E+00
        -11   -1    0    0    0    0  0.00000000000E+00  0.00000000000E+00  0.45593999997E+02  0.45594000000E+02  0.51100000000E-03 0. -1.
         11   -1    0    0    0    0 -0.00000000000E+00 -0.00000000000E+00 -0.45593999997E+02  0.45594000000E+02  0.51100000000E-03 0.  1.
         23    2    1    2    0    0  0.00000000000E+00  0.00000000000E+00  0.00000000000E+00  0.91188000000E+02  0.91188000000E+02 0.  0.
    9900012    2    3    3    0    0 -0.18408195181E+02  0.29883588574E+02 -0.25529058732E+02  0.47787270103E+02  0.19999995706E+02 0.  0.
         12    1    3    3    0    0  0.18408195181E+02 -0.29883588574E+02  0.25529058732E+02  0.43400729897E+02  0.00000000000E+00 0. -1.
         11    1    4    4    0    0  0.22230920504E+01  0.76590549971E+01 -0.91817401294E+01  0.12161727418E+02  0.51100000000E-03 0. -1.
        -11    1    4    4    0    0 -0.18597334152E+02  0.16572847754E+02 -0.98768554449E+01  0.26796872839E+02  0.51100000000E-03 0.  1.
        -12    1    4    4    0    0 -0.20339530792E+01  0.56516858234E+01 -0.64704631576E+01  0.88286698460E+01  0.00000000000E+00 0.  1.
</event>
<event>
 8    1  0.4798632E-010  0.9118800E+02  0.7816164E-02  0.1184000E+00
        -11   -1    0    0    0    0  0.00000000000E+00  0.00000000000E+00  0.45593999997E+02  0.45594000000E+02  0.51100000000E-03 0. -1.
         11   -1    0    0    0    0 -0.00000000000E+00 -0.00000000000E+00 -0.45593999997E+02  0.45594000000E+02  0.51100000000E-03 0.  1.
         23    2    1    2    0    0 -0.17763568394E-14  0.35527136788E-14  0.00000000000E+00  0.91188000000E+02  0.91188000000E+02 0.  0.
    9900012    2    3    3    0    0  0.94189546831E+01 -0.30238586741E+02  0.29673802009E+02  0.47787270040E+02  0.19999995420E+02 0.  0.
        -12    1    3    3    0    0 -0.94189546831E+01  0.30238586741E+02 -0.29673802009E+02  0.43400729960E+02  0.00000000000E+00 0.  1.
         11    1    4    4    0    0  0.53868355591E+00  0.24261426044E+01  0.33054586333E+01  0.41355054041E+01  0.51100000000E-03 0. -1.
        -11    1    4    4    0    0 -0.29001113545E+00  0.38206579012E+00  0.23548012707E+00  0.53435182982E+00  0.51100000000E-03 0.  1.
         12    1    4    4    0    0  0.91702822626E+01 -0.33046795136E+02  0.26132863248E+02  0.43117412806E+02  0.00000000000E+00 0. -1.
</event>
<event>
 8    1  0.4798632E-010  0.9118800E+02  0.7816164E-02  0.1184000E+00
        -11   -1    0    0    0    0  0.00000000000E+00  0.00000000000E+00  0.45593999997E+02  0.45594000000E+02  0.51100000000E-03 0. -1.
         11   -1    0    0    0    0 -0.00000000000E+00 -0.00000000000E+00 -0.45593999997E+02  0.45594000000E+02  0.51100000000E-03 0.  1.
         23    2    1    2    0    0 -0.35527136788E-14 -0.71054273576E-14  0.00000000000E+00  0.91188000000E+02  0.91188000000E+02 0.  0.
    9900012    2    3    3    0    0 -0.24392534047E+02  0.35481223181E+02 -0.54511644071E+01  0.47787215341E+02  0.19999746023E+02 0.  0.
         12    1    3    3    0    0  0.24392534047E+02 -0.35481223181E+02  0.54511644071E+01  0.43400784659E+02  0.00000000000E+00 0. -1.
         11    1    4    4    0    0 -0.24850247113E+01  0.27253178717E+01 -0.57771873286E+00  0.37331574455E+01  0.51100000000E-03 0. -1.
        -11    1    4    4    0    0  0.25833233352E+01 -0.13983119765E+00  0.66296991066E+00  0.26707005788E+01  0.51100000000E-03 0.  1.
        -12    1    4    4    0    0 -0.24490832671E+02  0.32895736507E+02 -0.55364155849E+01  0.41383357316E+02  0.00000000000E+00 0.  1.
</event>
<event>
 8    1  0.4798632E-010  0.9118800E+02  0.7816164E-02  0.1184000E+00
        -11   -1    0    0    0    0  0.00000000000E+00  0.00000000000E+00  0.45593999997E+02  0.45594000000E+02  0.51100000000E-03 0. -1.
         11   -1    0    0    0    0 -0.00000000000E+00 -0.00000000000E+00 -0.45593999997E+02  0.45594000000E+02  0.51100000000E-03 0.  1.
         23    2    1    2    0    0 -0.44408920985E-15  0.00000000000E+00  0.17763568394E-14  0.91188000000E+02  0.91188000000E+02 0.  0.
    9900012    2    3    3    0    0 -0.22766966666E+01 -0.40572668037E+02  0.15241305609E+02  0.47787284153E+02  0.20000059769E+02 0.  0.
        -12    1    3    3    0    0  0.22766966666E+01  0.40572668037E+02 -0.15241305609E+02  0.43400715847E+02  0.00000000000E+00 0.  1.
         11    1    4    4    0    0  0.61642281284E+01 -0.28576397254E+02  0.10026174119E+02  0.30905215679E+02  0.51100000000E-03 0. -1.
        -11    1    4    4    0    0 -0.79913602945E+01 -0.95172869746E+01  0.16791552150E+01  0.12540341032E+02  0.51100000000E-03 0.  1.
         12    1    4    4    0    0 -0.44956450042E+00 -0.24789838081E+01  0.35359762752E+01  0.43417274419E+01  0.00000000000E+00 0. -1.
</event>
<event>
 8    1  0.4798632E-010  0.9118800E+02  0.7816164E-02  0.1184000E+00
        -11   -1    0    0    0    0  0.00000000000E+00  0.00000000000E+00  0.45593999997E+02  0.45594000000E+02  0.51100000000E-03 0. -1.
         11   -1    0    0    0    0 -0.00000000000E+00 -0.00000000000E+00 -0.45593999997E+02  0.45594000000E+02  0.51100000000E-03 0.  1.
         23    2    1    2    0    0  0.71054273576E-14  0.00000000000E+00  0.00000000000E+00  0.91188000000E+02  0.91188000000E+02 0.  0.
    9900012    2    3    3    0    0  0.41043714322E+02  0.12719701746E+02 -0.61029412338E+01  0.47787272015E+02  0.20000004427E+02 0.  0.
         12    1    3    3    0    0 -0.41043714322E+02 -0.12719701746E+02  0.61029412338E+01  0.43400727985E+02  0.00000000000E+00 0. -1.
         11    1    4    4    0    0  0.20949933907E+02  0.51811621385E+01  0.50827593434E+01  0.22171572218E+02  0.51100000000E-03 0. -1.
        -11    1    4    4    0    0  0.19547952526E+02  0.51982078669E+01 -0.83092598227E+01  0.21867501276E+02  0.51100000000E-03 0.  1.
         12    1    4    4    0    0  0.54582788862E+00  0.23403317403E+01 -0.28764407544E+01  0.37481985209E+01  0.00000000000E+00 0. -1.
</event>
<event>
 8    1  0.4798632E-010  0.9118800E+02  0.7816164E-02  0.1184000E+00
        -11   -1    0    0    0    0  0.00000000000E+00  0.00000000000E+00  0.45593999997E+02  0.45594000000E+02  0.51100000000E-03 0. -1.
         11   -1    0    0    0    0 -0.00000000000E+00 -0.00000000000E+00 -0.45593999997E+02  0.45594000000E+02  0.51100000000E-03 0.  1.
         23    2    1    2    0    0  0.00000000000E+00 -0.35527136788E-14  0.00000000000E+00  0.91188000000E+02  0.91188000000E+02 0.  0.
    9900012    2    3    3    0    0 -0.42240617302E+02  0.84261833671E+01 -0.53247176096E+01  0.47787274962E+02  0.20000017864E+02 0.  0.
         12    1    3    3    0    0  0.42240617302E+02 -0.84261833671E+01  0.53247176096E+01  0.43400725038E+02  0.00000000000E+00 0. -1.
         11    1    4    4    0    0 -0.31110795105E+01  0.38826375960E+01 -0.81518717422E+00  0.50416486205E+01  0.51100000000E-03 0. -1.
        -11    1    4    4    0    0  0.26314805630E+00 -0.22455023903E+01 -0.13825280966E+01  0.26500777505E+01  0.51100000000E-03 0.  1.
        -12    1    4    4    0    0 -0.39392685848E+02  0.67890481614E+01 -0.31270023387E+01  0.40095548591E+02  0.00000000000E+00 0.  1.
</event>
<event>
 8    1  0.4798632E-010  0.9118800E+02  0.7816164E-02  0.1184000E+00
        -11   -1    0    0    0    0  0.00000000000E+00  0.00000000000E+00  0.45593999997E+02  0.45594000000E+02  0.51100000000E-03 0. -1.
         11   -1    0    0    0    0 -0.00000000000E+00 -0.00000000000E+00 -0.45593999997E+02  0.45594000000E+02  0.51100000000E-03 0.  1.
         23    2    1    2    0    0  0.00000000000E+00 -0.88817841970E-15  0.00000000000E+00  0.91188000000E+02  0.91188000000E+02 0.  0.
    9900012    2    3    3    0    0 -0.62817105347E+01  0.49908507875E+01  0.42652723124E+02  0.47787271104E+02  0.20000000270E+02 0.  0.
        -12    1    3    3    0    0  0.62817105347E+01 -0.49908507875E+01 -0.42652723124E+02  0.43400728896E+02  0.00000000000E+00 0.  1.
         11    1    4    4    0    0 -0.62070511870E+01  0.99255450667E+01  0.13186303197E+02  0.17632995252E+02  0.51100000000E-03 0.  1.
        -11    1    4    4    0    0  0.44000749996E+00 -0.14245589023E+01  0.19822989907E+02  0.19878981458E+02  0.51100000000E-03 0. -1.
        -12    1    4    4    0    0 -0.51466684768E+00 -0.35101353769E+01  0.96434300200E+01  0.10275294394E+02  0.00000000000E+00 0.  1.
</event>
<event>
 8    1  0.4798632E-010  0.9118800E+02  0.7816164E-02  0.1184000E+00
        -11   -1    0    0    0    0  0.00000000000E+00  0.00000000000E+00  0.45593999997E+02  0.45594000000E+02  0.51100000000E-03 0. -1.
         11   -1    0    0    0    0 -0.00000000000E+00 -0.00000000000E+00 -0.45593999997E+02  0.45594000000E+02  0.51100000000E-03 0.  1.
         23    2    1    2    0    0  0.35527136788E-14  0.35527136788E-14 -0.35527136788E-14  0.91188000000E+02  0.91188000000E+02 0.  0.
    9900012    2    3    3    0    0 -0.19782472179E+02 -0.28760900098E+02  0.25789280156E+02  0.47787279374E+02  0.20000037976E+02 0.  0.
        -12    1    3    3    0    0  0.19782472179E+02  0.28760900098E+02 -0.25789280156E+02  0.43400720626E+02  0.00000000000E+00 0.  1.
         11    1    4    4    0    0 -0.13590083112E+02 -0.70254750711E+01  0.53997100416E+01  0.16223579376E+02  0.51100000000E-03 0. -1.
        -11    1    4    4    0    0 -0.75874048452E+01 -0.20822216308E+02  0.17542516961E+02  0.28264346903E+02  0.51100000000E-03 0.  1.
        -12    1    4    4    0    0  0.13950157785E+01 -0.91320871839E+00  0.28470531526E+01  0.32993530941E+01  0.00000000000E+00 0.  1.
</event>
<event>
 8    1  0.4798632E-010  0.9118800E+02  0.7816164E-02  0.1184000E+00
        -11   -1    0    0    0    0  0.00000000000E+00  0.00000000000E+00  0.45593999997E+02  0.45594000000E+02  0.51100000000E-03 0. -1.
         11   -1    0    0    0    0 -0.00000000000E+00 -0.00000000000E+00 -0.45593999997E+02  0.45594000000E+02  0.51100000000E-03 0.  1.
         23    2    1    2    0    0  0.71054273576E-14  0.44408920985E-15 -0.35527136788E-14  0.91188000000E+02  0.91188000000E+02 0.  0.
    9900012    2    3    3    0    0 -0.39061921132E+02 -0.34939206124E+01  0.18589839087E+02  0.47787270962E+02  0.19999999624E+02 0.  0.
        -12    1    3    3    0    0  0.39061921132E+02  0.34939206124E+01 -0.18589839087E+02  0.43400729038E+02  0.00000000000E+00 0.  1.
         11    1    4    4    0    0 -0.83465216652E+01 -0.63543921282E+01  0.12521980785E+02  0.16335321431E+02  0.51100000000E-03 0. -1.
        -11    1    4    4    0    0 -0.16963567509E+02  0.17877890861E+01  0.29574355206E+01  0.17311996926E+02  0.51100000000E-03 0.  1.
         12    1    4    4    0    0 -0.13751831958E+02  0.10726824297E+01  0.31104227817E+01  0.14139952605E+02  0.00000000000E+00 0. -1.
</event>
<event>
 8    1  0.4798632E-010  0.9118800E+02  0.7816164E-02  0.1184000E+00
        -11   -1    0    0    0    0  0.00000000000E+00  0.00000000000E+00  0.45593999997E+02  0.45594000000E+02  0.51100000000E-03 0.  1.
         11   -1    0    0    0    0 -0.00000000000E+00 -0.00000000000E+00 -0.45593999997E+02  0.45594000000E+02  0.51100000000E-03 0. -1.
         23    2    1    2    0    0  0.00000000000E+00  0.35527136788E-14  0.11102230246E-15  0.91188000000E+02  0.91188000000E+02 0.  0.
    9900012    2    3    3    0    0  0.37529672226E+02 -0.21787843789E+02  0.66069398130E+00  0.47787274765E+02  0.20000016964E+02 0.  0.
        -12    1    3    3    0    0 -0.37529672226E+02  0.21787843789E+02 -0.66069398130E+00  0.43400725235E+02  0.00000000000E+00 0.  1.
         11    1    4    4    0    0  0.70769231008E+01 -0.94792953599E+01  0.62931257593E+01  0.13399377343E+02  0.51100000000E-03 0. -1.
        -11    1    4    4    0    0  0.31021773749E+02 -0.11914371980E+02 -0.54998236677E+01  0.33683093190E+02  0.51100000000E-03 0.  1.
        -12    1    4    4    0    0 -0.56902462333E+00 -0.39417644929E+00 -0.13260811030E+00  0.70480423243E+00  0.00000000000E+00 0.  1.
</event>
<event>
 8    1  0.4798632E-010  0.9118800E+02  0.7816164E-02  0.1184000E+00
        -11   -1    0    0    0    0  0.00000000000E+00  0.00000000000E+00  0.45593999997E+02  0.45594000000E+02  0.51100000000E-03 0. -1.
         11   -1    0    0    0    0 -0.00000000000E+00 -0.00000000000E+00 -0.45593999997E+02  0.45594000000E+02  0.51100000000E-03 0.  1.
         23    2    1    2    0    0  0.88817841970E-15  0.17763568394E-14  0.00000000000E+00  0.91188000000E+02  0.91188000000E+02 0.  0.
    9900012    2    3    3    0    0  0.44653180184E+01 -0.59683262125E+01  0.42755859385E+02  0.47787268503E+02  0.19999988411E+02 0.  0.
        -12    1    3    3    0    0 -0.44653180184E+01  0.59683262125E+01 -0.42755859385E+02  0.43400731497E+02  0.00000000000E+00 0.  1.
         11    1    4    4    0    0 -0.18861109562E+01 -0.58106888162E+00  0.61714401095E+00  0.20678304030E+01  0.51100000000E-03 0.  1.
        -11    1    4    4    0    0  0.10519477289E+01 -0.10015212181E+02  0.30498692961E+02  0.32118240015E+02  0.51100000000E-03 0. -1.
        -12    1    4    4    0    0  0.52994812457E+01  0.46279548504E+01  0.11640022413E+02  0.13601198085E+02  0.00000000000E+00 0.  1.
</event>
<event>
 8    1  0.4798632E-010  0.9118800E+02  0.7816164E-02  0.1184000E+00
        -11   -1    0    0    0    0  0.00000000000E+00  0.00000000000E+00  0.45593999997E+02  0.45594000000E+02  0.51100000000E-03 0. -1.
         11   -1    0    0    0    0 -0.00000000000E+00 -0.00000000000E+00 -0.45593999997E+02  0.45594000000E+02  0.51100000000E-03 0.  1.
         23    2    1    2    0    0  0.00000000000E+00 -0.71054273576E-14  0.00000000000E+00  0.91188000000E+02  0.91188000000E+02 0.  0.
    9900012    2    3    3    0    0 -0.23440703780E+02 -0.36061052334E+02 -0.58101114218E+01  0.47787268625E+02  0.19999988969E+02 0.  0.
        -12    1    3    3    0    0  0.23440703780E+02  0.36061052334E+02  0.58101114218E+01  0.43400731375E+02  0.00000000000E+00 0.  1.
         11    1    4    4    0    0 -0.13717374084E+02 -0.78763442928E+01 -0.22747719018E+01  0.15980542502E+02  0.51100000000E-03 0. -1.
        -11    1    4    4    0    0  0.76330270644E+00 -0.71827375672E+01  0.23677993333E+01  0.76013698716E+01  0.51100000000E-03 0.  1.
         12    1    4    4    0    0 -0.10486632401E+02 -0.21001970475E+02 -0.59031388534E+01  0.24205356251E+02  0.00000000000E+00 0. -1.
</event>
<event>
 8    1  0.4798632E-010  0.9118800E+02  0.7816164E-02  0.1184000E+00
        -11   -1    0    0    0    0  0.00000000000E+00  0.00000000000E+00  0.45593999997E+02  0.45594000000E+02  0.51100000000E-03 0. -1.
         11   -1    0    0    0    0 -0.00000000000E+00 -0.00000000000E+00 -0.45593999997E+02  0.45594000000E+02  0.51100000000E-03 0.  1.
         23    2    1    2    0    0  0.00000000000E+00  0.00000000000E+00  0.71054273576E-14  0.91188000000E+02  0.91188000000E+02 0.  0.
    9900012    2    3    3    0    0  0.28919929708E+02  0.13210848860E+02 -0.29542072639E+02  0.47787275147E+02  0.20000018705E+02 0.  0.
         12    1    3    3    0    0 -0.28919929708E+02 -0.13210848860E+02  0.29542072639E+02  0.43400724853E+02  0.00000000000E+00 0. -1.
         11    1    4    4    0    0  0.19827766260E+00  0.17514956626E+01  0.20269468776E+01  0.26861803725E+01  0.51100000000E-03 0. -1.
        -11    1    4    4    0    0  0.20058015297E+02  0.11626831815E+02 -0.19814927830E+02  0.30498173075E+02  0.51100000000E-03 0.  1.
         12    1    4    4    0    0  0.86636367485E+01 -0.16747861696E+00 -0.11754091687E+02  0.14602921700E+02  0.00000000000E+00 0. -1.
</event>
<event>
 8    1  0.4798632E-010  0.9118800E+02  0.7816164E-02  0.1184000E+00
        -11   -1    0    0    0    0  0.00000000000E+00  0.00000000000E+00  0.45593999997E+02  0.45594000000E+02  0.51100000000E-03 0. -1.
         11   -1    0    0    0    0 -0.00000000000E+00 -0.00000000000E+00 -0.45593999997E+02  0.45594000000E+02  0.51100000000E-03 0.  1.
         23    2    1    2    0    0 -0.71054273576E-14 -0.35527136788E-14 -0.34694469520E-16  0.91188000000E+02  0.91188000000E+02 0.  0.
    9900012    2    3    3    0    0  0.37773473651E+02 -0.21372527974E+02  0.50968768118E-01  0.47787275796E+02  0.20000021663E+02 0.  0.
         12    1    3    3    0    0 -0.37773473651E+02  0.21372527974E+02 -0.50968768118E-01  0.43400724204E+02  0.00000000000E+00 0. -1.
         11    1    4    4    0    0  0.44140901254E+01  0.28165698438E+01 -0.12236413964E+01  0.53772256646E+01  0.51100000000E-03 0. -1.
        -11    1    4    4    0    0  0.20880819750E+02 -0.17128493360E+02 -0.36444627753E+01  0.27252082992E+02  0.51100000000E-03 0.  1.
        -12    1    4    4    0    0  0.12478563775E+02 -0.70606044574E+01  0.49190729398E+01  0.15157967139E+02  0.00000000000E+00 0.  1.
</event>
<event>
 8    1  0.4798632E-010  0.9118800E+02  0.7816164E-02  0.1184000E+00
        -11   -1    0    0    0    0  0.00000000000E+00  0.00000000000E+00  0.45593999997E+02  0.45594000000E+02  0.51100000000E-03 0. -1.
         11   -1    0    0    0    0 -0.00000000000E+00 -0.00000000000E+00 -0.45593999997E+02  0.45594000000E+02  0.51100000000E-03 0.  1.
         23    2    1    2    0    0 -0.71054273576E-14 -0.88817841970E-15  0.00000000000E+00  0.91188000000E+02  0.91188000000E+02 0.  0.
    9900012    2    3    3    0    0 -0.40566610671E+02  0.79010817994E+01 -0.13249368538E+02  0.47787276946E+02  0.20000026909E+02 0.  0.
         12    1    3    3    0    0  0.40566610671E+02 -0.79010817994E+01  0.13249368538E+02  0.43400723054E+02  0.00000000000E+00 0. -1.
         11    1    4    4    0    0 -0.21823969939E+02  0.88365701594E+01 -0.14016460841E+01  0.23586760017E+02  0.51100000000E-03 0. -1.
        -11    1    4    4    0    0 -0.15553726180E+02  0.63522729304E+00 -0.13187391806E+02  0.20401696368E+02  0.51100000000E-03 0.  1.
        -12    1    4    4    0    0 -0.31889145521E+01 -0.15707156531E+01  0.13396693524E+01  0.37988205613E+01  0.00000000000E+00 0.  1.
</event>
<event>
 8    1  0.4798632E-010  0.9118800E+02  0.7816164E-02  0.1184000E+00
        -11   -1    0    0    0    0  0.00000000000E+00  0.00000000000E+00  0.45593999997E+02  0.45594000000E+02  0.51100000000E-03 0. -1.
         11   -1    0    0    0    0 -0.00000000000E+00 -0.00000000000E+00 -0.45593999997E+02  0.45594000000E+02  0.51100000000E-03 0.  1.
         23    2    1    2    0    0  0.00000000000E+00  0.00000000000E+00  0.71054273576E-14  0.91188000000E+02  0.91188000000E+02 0.  0.
    9900012    2    3    3    0    0  0.17340758002E+02  0.19843944835E+02 -0.34483898788E+02  0.47787270625E+02  0.19999998088E+02 0.  0.
         12    1    3    3    0    0 -0.17340758002E+02 -0.19843944835E+02  0.34483898788E+02  0.43400729375E+02  0.00000000000E+00 0. -1.
         11    1    4    4    0    0  0.63590509805E+01  0.39928380961E+01 -0.12208104865E+02  0.14332414663E+02  0.51100000000E-03 0. -1.
        -11    1    4    4    0    0 -0.39835854463E+00  0.35548627793E+01 -0.14589565708E+02  0.15021689875E+02  0.51100000000E-03 0.  1.
        -12    1    4    4    0    0  0.11380065566E+02  0.12296243960E+02 -0.76862282151E+01  0.18433166086E+02  0.00000000000E+00 0.  1.
</event>
<event>
 8    1  0.4798632E-010  0.9118800E+02  0.7816164E-02  0.1184000E+00
        -11   -1    0    0    0    0  0.00000000000E+00  0.00000000000E+00  0.45593999997E+02  0.45594000000E+02  0.51100000000E-03 0.  1.
         11   -1    0    0    0    0 -0.00000000000E+00 -0.00000000000E+00 -0.45593999997E+02  0.45594000000E+02  0.51100000000E-03 0. -1.
         23    2    1    2    0    0  0.00000000000E+00  0.17763568394E-14  0.00000000000E+00  0.91188000000E+02  0.91188000000E+02 0.  0.
    9900012    2    3    3    0    0 -0.42747947961E+02 -0.87316949549E-01 -0.74985821811E+01  0.47787269432E+02  0.19999992648E+02 0.  0.
        -12    1    3    3    0    0  0.42747947961E+02  0.87316949549E-01  0.74985821811E+01  0.43400730568E+02  0.00000000000E+00 0.  1.
         11    1    4    4    0    0 -0.19535655996E+02  0.85620734962E+01 -0.16807882329E+01  0.21395700668E+02  0.51100000000E-03 0. -1.
        -11    1    4    4    0    0 -0.14743299635E+02 -0.78029627004E+01 -0.63859250042E+01  0.17861443095E+02  0.51100000000E-03 0.  1.
        -12    1    4    4    0    0 -0.84689923306E+01 -0.84642774532E+00  0.56813105596E+00  0.85301256685E+01  0.00000000000E+00 0.  1.
</event>
<event>
 8    1  0.4798632E-010  0.9118800E+02  0.7816164E-02  0.1184000E+00
        -11   -1    0    0    0    0  0.00000000000E+00  0.00000000000E+00  0.45593999997E+02  0.45594000000E+02  0.51100000000E-03 0. -1.
         11   -1    0    0    0    0 -0.00000000000E+00 -0.00000000000E+00 -0.45593999997E+02  0.45594000000E+02  0.51100000000E-03 0.  1.
         23    2    1    2    0    0  0.00000000000E+00  0.00000000000E+00 -0.35527136788E-14  0.91188000000E+02  0.91188000000E+02 0.  0.
    9900012    2    3    3    0    0  0.24168119779E+02 -0.23492182731E+02  0.27343053889E+02  0.47787271215E+02  0.20000000776E+02 0.  0.
        -12    1    3    3    0    0 -0.24168119779E+02  0.23492182731E+02 -0.27343053889E+02  0.43400728785E+02  0.00000000000E+00 0.  1.
         11    1    4    4    0    0  0.33078638595E+01 -0.47281493634E+01  0.11763818040E+01  0.58890775276E+01  0.51100000000E-03 0. -1.
        -11    1    4    4    0    0  0.13163742098E+02 -0.15721319106E+02  0.81379152877E+01  0.22060590335E+02  0.51100000000E-03 0.  1.
        -12    1    4    4    0    0  0.76965138213E+01 -0.30427142619E+01  0.18028756797E+02  0.19837603352E+02  0.00000000000E+00 0.  1.
</event>
<event>
 8    1  0.4798632E-010  0.9118800E+02  0.7816164E-02  0.1184000E+00
        -11   -1    0    0    0    0  0.00000000000E+00  0.00000000000E+00  0.45593999997E+02  0.45594000000E+02  0.51100000000E-03 0.  1.
         11   -1    0    0    0    0 -0.00000000000E+00 -0.00000000000E+00 -0.45593999997E+02  0.45594000000E+02  0.51100000000E-03 0. -1.
         23    2    1    2    0    0  0.00000000000E+00  0.00000000000E+00  0.00000000000E+00  0.91188000000E+02  0.91188000000E+02 0.  0.
    9900012    2    3    3    0    0 -0.35679334375E+02  0.21918625928E+02 -0.11409754245E+02  0.47787267795E+02  0.19999985183E+02 0.  0.
         12    1    3    3    0    0  0.35679334375E+02 -0.21918625928E+02  0.11409754245E+02  0.43400732205E+02  0.00000000000E+00 0. -1.
         11    1    4    4    0    0 -0.28387041302E+02  0.11059120768E+02 -0.40731431393E+01  0.30736277610E+02  0.51100000000E-03 0. -1.
        -11    1    4    4    0    0 -0.29391508069E+01  0.80039803874E+01 -0.61461118684E+00  0.85486874243E+01  0.51100000000E-03 0.  1.
         12    1    4    4    0    0 -0.43531422665E+01  0.28555247729E+01 -0.67219999188E+01  0.85023027604E+01  0.00000000000E+00 0. -1.
</event>
<event>
 8    1  0.4798632E-010  0.9118800E+02  0.7816164E-02  0.1184000E+00
        -11   -1    0    0    0    0  0.00000000000E+00  0.00000000000E+00  0.45593999997E+02  0.45594000000E+02  0.51100000000E-03 0. -1.
         11   -1    0    0    0    0 -0.00000000000E+00 -0.00000000000E+00 -0.45593999997E+02  0.45594000000E+02  0.51100000000E-03 0.  1.
         23    2    1    2    0    0  0.00000000000E+00 -0.35527136788E-14  0.35527136788E-14  0.91188000000E+02  0.91188000000E+02 0.  0.
    9900012    2    3    3    0    0 -0.32832751987E+01  0.29188928869E+02 -0.31950740893E+02  0.47787270650E+02  0.19999998201E+02 0.  0.
         12    1    3    3    0    0  0.32832751987E+01 -0.29188928869E+02  0.31950740893E+02  0.43400729350E+02  0.00000000000E+00 0. -1.
         11    1    4    4    0    0 -0.71342504429E+01  0.62284969362E+01 -0.29224500498E+01  0.99112268676E+01  0.51100000000E-03 0. -1.
        -11    1    4    4    0    0  0.48826746890E+01  0.10558571829E+02 -0.16754697707E+02  0.20397152907E+02  0.51100000000E-03 0.  1.
        -12    1    4    4    0    0 -0.10316994449E+01  0.12401860103E+02 -0.12273593136E+02  0.17478890875E+02  0.00000000000E+00 0.  1.
</event>
<event>
 8    1  0.4798632E-010  0.9118800E+02  0.7816164E-02  0.1184000E+00
        -11   -1    0    0    0    0  0.00000000000E+00  0.00000000000E+00  0.45593999997E+02  0.45594000000E+02  0.51100000000E-03 0.  1.
         11   -1    0    0    0    0 -0.00000000000E+00 -0.00000000000E+00 -0.45593999997E+02  0.45594000000E+02  0.51100000000E-03 0. -1.
         23    2    1    2    0    0  0.00000000000E+00 -0.36082248300E-15  0.00000000000E+00  0.91188000000E+02  0.91188000000E+02 0.  0.
    9900012    2    3    3    0    0  0.41470298839E+02  0.20206800698E+00  0.12798331435E+02  0.47787264927E+02  0.19999972110E+02 0.  0.
        -12    1    3    3    0    0 -0.41470298839E+02 -0.20206800698E+00 -0.12798331435E+02  0.43400735073E+02  0.00000000000E+00 0.  1.
         11    1    4    4    0    0  0.29147701630E+02  0.41561077886E+01  0.10487109932E+02  0.31254459158E+02  0.51100000000E-03 0. -1.
        -11    1    4    4    0    0  0.10729973415E+01 -0.39144672500E+01  0.33120464845E+01  0.52387049280E+01  0.51100000000E-03 0.  1.
        -12    1    4    4    0    0  0.11249599868E+02 -0.39572531675E-01 -0.10008249811E+01  0.11294100842E+02  0.00000000000E+00 0.  1.
</event>
<event>
 8    1  0.4798632E-010  0.9118800E+02  0.7816164E-02  0.1184000E+00
        -11   -1    0    0    0    0  0.00000000000E+00  0.00000000000E+00  0.45593999997E+02  0.45594000000E+02  0.51100000000E-03 0. -1.
         11   -1    0    0    0    0 -0.00000000000E+00 -0.00000000000E+00 -0.45593999997E+02  0.45594000000E+02  0.51100000000E-03 0.  1.
         23    2    1    2    0    0  0.44408920985E-15  0.17763568394E-14  0.00000000000E+00  0.91188000000E+02  0.91188000000E+02 0.  0.
    9900012    2    3    3    0    0  0.24508402001E+01 -0.15170689314E+02  0.40588995779E+02  0.47787274081E+02  0.20000013844E+02 0.  0.
        -12    1    3    3    0    0 -0.24508402001E+01  0.15170689314E+02 -0.40588995779E+02  0.43400725919E+02  0.00000000000E+00 0.  1.
         11    1    4    4    0    0  0.33092048157E+01  0.19981519206E+01  0.19609204440E+02  0.19986604180E+02  0.51100000000E-03 0. -1.
        -11    1    4    4    0    0 -0.98478636837E+00 -0.58686143088E+01  0.32632393310E+01  0.67866905992E+01  0.51100000000E-03 0.  1.
         12    1    4    4    0    0  0.12642175274E+00 -0.11300226926E+02  0.17716552009E+02  0.21013979302E+02  0.00000000000E+00 0. -1.
</event>
<event>
 8    1  0.4798632E-010  0.9118800E+02  0.7816164E-02  0.1184000E+00
        -11   -1    0    0    0    0  0.00000000000E+00  0.00000000000E+00  0.45593999997E+02  0.45594000000E+02  0.51100000000E-03 0. -1.
         11   -1    0    0    0    0 -0.00000000000E+00 -0.00000000000E+00 -0.45593999997E+02  0.45594000000E+02  0.51100000000E-03 0.  1.
         23    2    1    2    0    0  0.00000000000E+00  0.00000000000E+00  0.00000000000E+00  0.91188000000E+02  0.91188000000E+02 0.  0.
    9900012    2    3    3    0    0 -0.25929996795E+02 -0.28522359398E+02 -0.19943238509E+02  0.47787280171E+02  0.20000041612E+02 0.  0.
         12    1    3    3    0    0  0.25929996795E+02  0.28522359398E+02  0.19943238509E+02  0.43400719829E+02  0.00000000000E+00 0. -1.
         11    1    4    4    0    0 -0.13977612402E+02 -0.46967798924E+01 -0.13989834462E+02  0.20326063523E+02  0.51100000000E-03 0. -1.
        -11    1    4    4    0    0 -0.75485804742E+01 -0.12571088549E+02 -0.23531511507E+01  0.14850947952E+02  0.51100000000E-03 0.  1.
         12    1    4    4    0    0 -0.44038039185E+01 -0.11254490957E+02 -0.36002528966E+01  0.12610268695E+02  0.00000000000E+00 0. -1.
</event>
<event>
 8    1  0.4798632E-010  0.9118800E+02  0.7816164E-02  0.1184000E+00
        -11   -1    0    0    0    0  0.00000000000E+00  0.00000000000E+00  0.45593999997E+02  0.45594000000E+02  0.51100000000E-03 0. -1.
         11   -1    0    0    0    0 -0.00000000000E+00 -0.00000000000E+00 -0.45593999997E+02  0.45594000000E+02  0.51100000000E-03 0.  1.
         23    2    1    2    0    0  0.00000000000E+00  0.00000000000E+00 -0.88817841970E-15  0.91188000000E+02  0.91188000000E+02 0.  0.
    9900012    2    3    3    0    0 -0.22014728879E+02 -0.37216553371E+02 -0.37286571102E+01  0.47787274012E+02  0.20000013532E+02 0.  0.
        -12    1    3    3    0    0  0.22014728879E+02  0.37216553371E+02  0.37286571102E+01  0.43400725988E+02  0.00000000000E+00 0.  1.
         11    1    4    4    0    0 -0.10131981715E+02 -0.14017956101E+02 -0.39324573264E+01  0.17737653949E+02  0.51100000000E-03 0. -1.
        -11    1    4    4    0    0  0.10199953465E+01 -0.33222414552E+01  0.47849288356E+01  0.59138162819E+01  0.51100000000E-03 0.  1.
        -12    1    4    4    0    0 -0.12902742511E+02 -0.19876355814E+02 -0.45811286193E+01  0.24135803782E+02  0.00000000000E+00 0.  1.
</event>
<event>
 8    1  0.4798632E-010  0.9118800E+02  0.7816164E-02  0.1184000E+00
        -11   -1    0    0    0    0  0.00000000000E+00  0.00000000000E+00  0.45593999997E+02  0.45594000000E+02  0.51100000000E-03 0. -1.
         11   -1    0    0    0    0 -0.00000000000E+00 -0.00000000000E+00 -0.45593999997E+02  0.45594000000E+02  0.51100000000E-03 0.  1.
         23    2    1    2    0    0  0.00000000000E+00  0.00000000000E+00  0.00000000000E+00  0.91188000000E+02  0.91188000000E+02 0.  0.
    9900012    2    3    3    0    0 -0.48406932490E+01  0.12334906837E+02 -0.41328451645E+02  0.47787272435E+02  0.20000006338E+02 0.  0.
         12    1    3    3    0    0  0.48406932490E+01 -0.12334906837E+02  0.41328451645E+02  0.43400727565E+02  0.00000000000E+00 0. -1.
         11    1    4    4    0    0 -0.30717328719E+00  0.25081260292E+01 -0.23846360191E+01  0.34744122973E+01  0.51100000000E-03 0. -1.
        -11    1    4    4    0    0 -0.17415260166E+01  0.96197964637E+01 -0.64804763568E+01  0.11729022591E+02  0.51100000000E-03 0.  1.
        -12    1    4    4    0    0 -0.27919939453E+01  0.20698434407E+00 -0.32463339269E+02  0.32583837546E+02  0.00000000000E+00 0.  1.
</event>
<event>
 8    1  0.4798632E-010  0.9118800E+02  0.7816164E-02  0.1184000E+00
        -11   -1    0    0    0    0  0.00000000000E+00  0.00000000000E+00  0.45593999997E+02  0.45594000000E+02  0.51100000000E-03 0. -1.
         11   -1    0    0    0    0 -0.00000000000E+00 -0.00000000000E+00 -0.45593999997E+02  0.45594000000E+02  0.51100000000E-03 0.  1.
         23    2    1    2    0    0  0.00000000000E+00  0.00000000000E+00  0.71054273576E-14  0.91188000000E+02  0.91188000000E+02 0.  0.
    9900012    2    3    3    0    0  0.10456501511E+02 -0.10978521904E+02  0.40666411689E+02  0.47787269514E+02  0.19999993022E+02 0.  0.
        -12    1    3    3    0    0 -0.10456501511E+02  0.10978521904E+02 -0.40666411689E+02  0.43400730486E+02  0.00000000000E+00 0.  1.
         11    1    4    4    0    0  0.67187416350E+01 -0.16073745642E+02  0.35161658677E+02  0.39240910148E+02  0.51100000000E-03 0. -1.
        -11    1    4    4    0    0  0.24465971860E+01  0.44858772804E+01  0.42963647507E+01  0.66759031672E+01  0.51100000000E-03 0.  1.
         12    1    4    4    0    0  0.12911626897E+01  0.60934645827E+00  0.12083882621E+01  0.18704561982E+01  0.00000000000E+00 0. -1.
</event>
<event>
 8    1  0.4798632E-010  0.9118800E+02  0.7816164E-02  0.1184000E+00
        -11   -1    0    0    0    0  0.00000000000E+00  0.00000000000E+00  0.45593999997E+02  0.45594000000E+02  0.51100000000E-03 0. -1.
         11   -1    0    0    0    0 -0.00000000000E+00 -0.00000000000E+00 -0.45593999997E+02  0.45594000000E+02  0.51100000000E-03 0.  1.
         23    2    1    2    0    0 -0.35527136788E-14  0.00000000000E+00  0.71054273576E-14  0.91188000000E+02  0.91188000000E+02 0.  0.
    9900012    2    3    3    0    0 -0.28508690541E+02 -0.10628978952E+02 -0.30950006568E+02  0.47787268020E+02  0.19999986208E+02 0.  0.
         12    1    3    3    0    0  0.28508690541E+02  0.10628978952E+02  0.30950006568E+02  0.43400731980E+02  0.00000000000E+00 0. -1.
         11    1    4    4    0    0 -0.16593983521E+01 -0.31437000365E+00  0.25480404045E+01  0.30569497140E+01  0.51100000000E-03 0. -1.
        -11    1    4    4    0    0 -0.12406068054E+02 -0.11614825203E+01 -0.15786498380E+02  0.20111516540E+02  0.51100000000E-03 0.  1.
         12    1    4    4    0    0 -0.14443224135E+02 -0.91531264282E+01 -0.17711548592E+02  0.24618801765E+02  0.00000000000E+00 0. -1.
</event>
<event>
 8    1  0.4798632E-010  0.9118800E+02  0.7816164E-02  0.1184000E+00
        -11   -1    0    0    0    0  0.00000000000E+00  0.00000000000E+00  0.45593999997E+02  0.45594000000E+02  0.51100000000E-03 0. -1.
         11   -1    0    0    0    0 -0.00000000000E+00 -0.00000000000E+00 -0.45593999997E+02  0.45594000000E+02  0.51100000000E-03 0.  1.
         23    2    1    2    0    0 -0.35527136788E-14 -0.88817841970E-15  0.00000000000E+00  0.91188000000E+02  0.91188000000E+02 0.  0.
    9900012    2    3    3    0    0 -0.22884549290E+02 -0.22080507054E+01  0.36810947139E+02  0.47787263677E+02  0.19999966408E+02 0.  0.
        -12    1    3    3    0    0  0.22884549290E+02  0.22080507054E+01 -0.36810947139E+02  0.43400736323E+02  0.00000000000E+00 0.  1.
         11    1    4    4    0    0 -0.42405803441E+01  0.46801390569E+01  0.18409783760E+01  0.65784059535E+01  0.51100000000E-03 0. -1.
        -11    1    4    4    0    0 -0.10369697662E+02 -0.60844021993E+01  0.12944034499E+02  0.17666312832E+02  0.51100000000E-03 0.  1.
         12    1    4    4    0    0 -0.82742712844E+01 -0.80378756298E+00  0.22025934264E+02  0.23542544891E+02  0.00000000000E+00 0. -1.
</event>
<event>
 8    1  0.7103582E-010  0.9118800E+02  0.7816164E-02  0.1184000E+00
        -11   -1    0    0    0    0  0.00000000000E+00  0.00000000000E+00  0.45593999997E+02  0.45594000000E+02  0.51100000000E-03 0. -1.
         11   -1    0    0    0    0 -0.00000000000E+00 -0.00000000000E+00 -0.45593999997E+02  0.45594000000E+02  0.51100000000E-03 0.  1.
         23    2    1    2    0    0  0.00000000000E+00  0.00000000000E+00  0.00000000000E+00  0.91188000000E+02  0.91188000000E+02 0.  0.
    9900012    2    3    3    0    0 -0.21957670910E+02  0.21173957644E+02 -0.30873040351E+02  0.47787303985E+02  0.20000150189E+02 0.  0.
         12    1    3    3    0    0  0.21957670910E+02 -0.21173957644E+02  0.30873040351E+02  0.43400696015E+02  0.00000000000E+00 0. -1.
         11    1    4    4    0    0 -0.11681795091E+01  0.20800952922E+01  0.17737432008E+01  0.29728109583E+01  0.51100000000E-03 0. -1.
        -11    1    4    4    0    0 -0.16547472792E+02  0.17232793108E+02 -0.32291254727E+02  0.40168559176E+02  0.51100000000E-03 0.  1.
        -12    1    4    4    0    0 -0.42420186086E+01  0.18610692434E+01 -0.35552882420E+00  0.46459338512E+01  0.00000000000E+00 0.  1.
</event>
<event>
 8    1  0.4798632E-010  0.9118800E+02  0.7816164E-02  0.1184000E+00
        -11   -1    0    0    0    0  0.00000000000E+00  0.00000000000E+00  0.45593999997E+02  0.45594000000E+02  0.51100000000E-03 0. -1.
         11   -1    0    0    0    0 -0.00000000000E+00 -0.00000000000E+00 -0.45593999997E+02  0.45594000000E+02  0.51100000000E-03 0.  1.
         23    2    1    2    0    0 -0.76327832943E-16  0.71054273576E-14  0.00000000000E+00  0.91188000000E+02  0.91188000000E+02 0.  0.
    9900012    2    3    3    0    0 -0.21093909434E-01 -0.32770960706E+02  0.28454991621E+02  0.47787275828E+02  0.20000021809E+02 0.  0.
        -12    1    3    3    0    0  0.21093909434E-01  0.32770960706E+02 -0.28454991621E+02  0.43400724172E+02  0.00000000000E+00 0.  1.
         11    1    4    4    0    0 -0.31223680191E+01 -0.24311812024E+02  0.29416340260E+02  0.38290135290E+02  0.51100000000E-03 0. -1.
        -11    1    4    4    0    0  0.34634240292E+01 -0.65088214670E+01 -0.20990420724E+00  0.73759150573E+01  0.51100000000E-03 0.  1.
         12    1    4    4    0    0 -0.36214991949E+00 -0.19503272143E+01 -0.75144443151E+00  0.21212254809E+01  0.00000000000E+00 0. -1.
</event>
<event>
 8    1  0.4798632E-010  0.9118800E+02  0.7816164E-02  0.1184000E+00
        -11   -1    0    0    0    0  0.00000000000E+00  0.00000000000E+00  0.45593999997E+02  0.45594000000E+02  0.51100000000E-03 0. -1.
         11   -1    0    0    0    0 -0.00000000000E+00 -0.00000000000E+00 -0.45593999997E+02  0.45594000000E+02  0.51100000000E-03 0.  1.
         23    2    1    2    0    0 -0.17763568394E-14  0.17763568394E-14  0.71054273576E-14  0.91188000000E+02  0.91188000000E+02 0.  0.
    9900012    2    3    3    0    0  0.10314506943E+02 -0.84457722593E+01 -0.41302580510E+02  0.47787270981E+02  0.19999999712E+02 0.  0.
         12    1    3    3    0    0 -0.10314506943E+02  0.84457722593E+01  0.41302580510E+02  0.43400729019E+02  0.00000000000E+00 0. -1.
         11    1    4    4    0    0  0.46274234055E+01 -0.37770610863E-01 -0.41767234061E+01  0.62337382577E+01  0.51100000000E-03 0. -1.
        -11    1    4    4    0    0 -0.12449291771E+01  0.39564542963E+01 -0.12111188187E+02  0.12801728743E+02  0.51100000000E-03 0.  1.
        -12    1    4    4    0    0  0.69320127144E+01 -0.12364455945E+02 -0.25014668917E+02  0.28751803980E+02  0.00000000000E+00 0.  1.
</event>
<event>
 8    1  0.4798632E-010  0.9118800E+02  0.7816164E-02  0.1184000E+00
        -11   -1    0    0    0    0  0.00000000000E+00  0.00000000000E+00  0.45593999997E+02  0.45594000000E+02  0.51100000000E-03 0. -1.
         11   -1    0    0    0    0 -0.00000000000E+00 -0.00000000000E+00 -0.45593999997E+02  0.45594000000E+02  0.51100000000E-03 0.  1.
         23    2    1    2    0    0  0.17763568394E-14  0.00000000000E+00  0.00000000000E+00  0.91188000000E+02  0.91188000000E+02 0.  0.
    9900012    2    3    3    0    0  0.96922338178E+01  0.31195221043E+02 -0.28575202463E+02  0.47787269498E+02  0.19999992949E+02 0.  0.
         12    1    3    3    0    0 -0.96922338178E+01 -0.31195221043E+02  0.28575202463E+02  0.43400730502E+02  0.00000000000E+00 0. -1.
         11    1    4    4    0    0 -0.11328567626E+01  0.10283926048E+02 -0.11518079842E+02  0.15482527666E+02  0.51100000000E-03 0. -1.
        -11    1    4    4    0    0  0.93980148859E+01  0.64390389047E+01 -0.23702423908E+01  0.11636234574E+02  0.51100000000E-03 0.  1.
        -12    1    4    4    0    0  0.14270756946E+01  0.14472256090E+02 -0.14686880230E+02  0.20668507258E+02  0.00000000000E+00 0.  1.
</event>
<event>
 8    1  0.4798632E-010  0.9118800E+02  0.7816164E-02  0.1184000E+00
        -11   -1    0    0    0    0  0.00000000000E+00  0.00000000000E+00  0.45593999997E+02  0.45594000000E+02  0.51100000000E-03 0. -1.
         11   -1    0    0    0    0 -0.00000000000E+00 -0.00000000000E+00 -0.45593999997E+02  0.45594000000E+02  0.51100000000E-03 0.  1.
         23    2    1    2    0    0  0.71054273576E-14 -0.35527136788E-14 -0.35527136788E-14  0.91188000000E+02  0.91188000000E+02 0.  0.
    9900012    2    3    3    0    0  0.29537836850E+02 -0.10084173058E+02 -0.30157073521E+02  0.47787269184E+02  0.19999991516E+02 0.  0.
         12    1    3    3    0    0 -0.29537836850E+02  0.10084173058E+02  0.30157073521E+02  0.43400730816E+02  0.00000000000E+00 0. -1.
         11    1    4    4    0    0 -0.18679680099E+01  0.12209852467E+00 -0.44392978240E+01  0.48178395539E+01  0.51100000000E-03 0. -1.
        -11    1    4    4    0    0  0.14344729512E+02 -0.23733383357E+01 -0.59567695958E+01  0.15712641532E+02  0.51100000000E-03 0.  1.
         12    1    4    4    0    0  0.17061075348E+02 -0.78329332468E+01 -0.19761006101E+02  0.27256788098E+02  0.00000000000E+00 0. -1.
</event>
<event>
 8    1  0.4798632E-010  0.9118800E+02  0.7816164E-02  0.1184000E+00
        -11   -1    0    0    0    0  0.00000000000E+00  0.00000000000E+00  0.45593999997E+02  0.45594000000E+02  0.51100000000E-03 0. -1.
         11   -1    0    0    0    0 -0.00000000000E+00 -0.00000000000E+00 -0.45593999997E+02  0.45594000000E+02  0.51100000000E-03 0.  1.
         23    2    1    2    0    0 -0.11102230246E-15  0.00000000000E+00  0.00000000000E+00  0.91188000000E+02  0.91188000000E+02 0.  0.
    9900012    2    3    3    0    0  0.66112043384E+00  0.31254653979E+02 -0.30105362686E+02  0.47787270306E+02  0.19999996631E+02 0.  0.
         12    1    3    3    0    0 -0.66112043384E+00 -0.31254653979E+02  0.30105362686E+02  0.43400729694E+02  0.00000000000E+00 0. -1.
         11    1    4    4    0    0  0.79225619120E+00  0.19330689017E+01 -0.15051238381E+00  0.20945356263E+01  0.51100000000E-03 0. -1.
        -11    1    4    4    0    0  0.25325522986E+01  0.30491940410E+02 -0.29903124935E+02  0.42782813515E+02  0.51100000000E-03 0.  1.
        -12    1    4    4    0    0 -0.26636880560E+01 -0.11703553335E+01 -0.51725366894E-01  0.29099211639E+01  0.00000000000E+00 0.  1.
</event>
<event>
 8    1  0.4798632E-010  0.9118800E+02  0.7816164E-02  0.1184000E+00
        -11   -1    0    0    0    0  0.00000000000E+00  0.00000000000E+00  0.45593999997E+02  0.45594000000E+02  0.51100000000E-03 0.  1.
         11   -1    0    0    0    0 -0.00000000000E+00 -0.00000000000E+00 -0.45593999997E+02  0.45594000000E+02  0.51100000000E-03 0. -1.
         23    2    1    2    0    0  0.00000000000E+00  0.00000000000E+00  0.00000000000E+00  0.91188000000E+02  0.91188000000E+02 0.  0.
    9900012    2    3    3    0    0 -0.19835081973E+02 -0.33043914955E+02 -0.19957250951E+02  0.47787278140E+02  0.20000032354E+02 0.  0.
         12    1    3    3    0    0  0.19835081973E+02  0.33043914955E+02  0.19957250951E+02  0.43400721860E+02  0.00000000000E+00 0. -1.
         11    1    4    4    0    0  0.51997531029E+00 -0.29653367272E+01 -0.30864893091E+01  0.43116137055E+01  0.51100000000E-03 0. -1.
        -11    1    4    4    0    0 -0.78251809548E+00 -0.15530885294E+02 -0.82967225099E+01  0.17625445732E+02  0.51100000000E-03 0.  1.
        -12    1    4    4    0    0 -0.19572539188E+02 -0.14547692933E+02 -0.85740391319E+01  0.25850218703E+02  0.00000000000E+00 0.  1.
</event>
<event>
 8    1  0.4798632E-010  0.9118800E+02  0.7816164E-02  0.1184000E+00
        -11   -1    0    0    0    0  0.00000000000E+00  0.00000000000E+00  0.45593999997E+02  0.45594000000E+02  0.51100000000E-03 0. -1.
         11   -1    0    0    0    0 -0.00000000000E+00 -0.00000000000E+00 -0.45593999997E+02  0.45594000000E+02  0.51100000000E-03 0.  1.
         23    2    1    2    0    0 -0.71054273576E-14 -0.44408920985E-15 -0.35527136788E-14  0.91188000000E+02  0.91188000000E+02 0.  0.
    9900012    2    3    3    0    0  0.33736780483E+02  0.37530804983E+01  0.27043798983E+02  0.47787273808E+02  0.20000012600E+02 0.  0.
        -12    1    3    3    0    0 -0.33736780483E+02 -0.37530804983E+01 -0.27043798983E+02  0.43400726192E+02  0.00000000000E+00 0.  1.
         11    1    4    4    0    0  0.23524498482E+02 -0.44111833809E+01  0.14106118518E+02  0.27782065215E+02  0.51100000000E-03 0. -1.
        -11    1    4    4    0    0 -0.10181611035E+01  0.24600689591E+01  0.22303367224E+01  0.34731820385E+01  0.51100000000E-03 0.  1.
        -12    1    4    4    0    0  0.11230443104E+02  0.57041949201E+01  0.10707343743E+02  0.16532026555E+02  0.00000000000E+00 0.  1.
</event>
<event>
 8    1  0.4798632E-010  0.9118800E+02  0.7816164E-02  0.1184000E+00
        -11   -1    0    0    0    0  0.00000000000E+00  0.00000000000E+00  0.45593999997E+02  0.45594000000E+02  0.51100000000E-03 0. -1.
         11   -1    0    0    0    0 -0.00000000000E+00 -0.00000000000E+00 -0.45593999997E+02  0.45594000000E+02  0.51100000000E-03 0.  1.
         23    2    1    2    0    0  0.88817841970E-15  0.00000000000E+00  0.00000000000E+00  0.91188000000E+02  0.91188000000E+02 0.  0.
    9900012    2    3    3    0    0 -0.69813426958E+01 -0.34884347006E+02 -0.24858929677E+02  0.47787271935E+02  0.20000004059E+02 0.  0.
         12    1    3    3    0    0  0.69813426958E+01  0.34884347006E+02  0.24858929677E+02  0.43400728065E+02  0.00000000000E+00 0. -1.
         11    1    4    4    0    0 -0.41810548972E+01 -0.11816745314E+02  0.89430620052E+00  0.12566482153E+02  0.51100000000E-03 0. -1.
        -11    1    4    4    0    0  0.97807734887E+00 -0.15846648718E+02 -0.17007578296E+02  0.23266513075E+02  0.51100000000E-03 0.  1.
         12    1    4    4    0    0 -0.37783651475E+01 -0.72209529745E+01 -0.87456575816E+01  0.11954276707E+02  0.00000000000E+00 0. -1.
</event>
<event>
 8    1  0.4798632E-010  0.9118800E+02  0.7816164E-02  0.1184000E+00
        -11   -1    0    0    0    0  0.00000000000E+00  0.00000000000E+00  0.45593999997E+02  0.45594000000E+02  0.51100000000E-03 0. -1.
         11   -1    0    0    0    0 -0.00000000000E+00 -0.00000000000E+00 -0.45593999997E+02  0.45594000000E+02  0.51100000000E-03 0.  1.
         23    2    1    2    0    0 -0.35527136788E-14  0.00000000000E+00  0.00000000000E+00  0.91188000000E+02  0.91188000000E+02 0.  0.
    9900012    2    3    3    0    0  0.29315706130E+02  0.29206230639E+02  0.13084683496E+02  0.47787268713E+02  0.19999989370E+02 0.  0.
        -12    1    3    3    0    0 -0.29315706130E+02 -0.29206230639E+02 -0.13084683496E+02  0.43400731287E+02  0.00000000000E+00 0.  1.
         11    1    4    4    0    0  0.52114236149E+01  0.12198346920E+02  0.39530669881E+01  0.13841435711E+02  0.51100000000E-03 0. -1.
        -11    1    4    4    0    0  0.25173632294E+02  0.15256528000E+02  0.57529327125E+01  0.29992826552E+02  0.51100000000E-03 0.  1.
        -12    1    4    4    0    0 -0.10693497790E+01  0.17513557192E+01  0.33786837954E+01  0.39530064501E+01  0.00000000000E+00 0.  1.
</event>
<event>
 8    1  0.4798632E-010  0.9118800E+02  0.7816164E-02  0.1184000E+00
        -11   -1    0    0    0    0  0.00000000000E+00  0.00000000000E+00  0.45593999997E+02  0.45594000000E+02  0.51100000000E-03 0. -1.
         11   -1    0    0    0    0 -0.00000000000E+00 -0.00000000000E+00 -0.45593999997E+02  0.45594000000E+02  0.51100000000E-03 0.  1.
         23    2    1    2    0    0  0.00000000000E+00  0.00000000000E+00  0.00000000000E+00  0.91188000000E+02  0.91188000000E+02 0.  0.
    9900012    2    3    3    0    0  0.24000647708E+02 -0.23435754784E+02 -0.27538314055E+02  0.47787257682E+02  0.19999939077E+02 0.  0.
         12    1    3    3    0    0 -0.24000647708E+02  0.23435754784E+02  0.27538314055E+02  0.43400742318E+02  0.00000000000E+00 0. -1.
         11    1    4    4    0    0  0.11513391573E+02 -0.19363030988E+02 -0.22830670197E+02  0.32073737800E+02  0.51100000000E-03 0. -1.
        -11    1    4    4    0    0  0.67654172930E+01 -0.56105027936E+01 -0.42728437005E+01  0.97727072142E+01  0.51100000000E-03 0.  1.
         12    1    4    4    0    0  0.57218388423E+01  0.15377789976E+01 -0.43480015759E+00  0.59408126683E+01  0.00000000000E+00 0. -1.
</event>
<event>
 8    1  0.4798632E-010  0.9118800E+02  0.7816164E-02  0.1184000E+00
        -11   -1    0    0    0    0  0.00000000000E+00  0.00000000000E+00  0.45593999997E+02  0.45594000000E+02  0.51100000000E-03 0. -1.
         11   -1    0    0    0    0 -0.00000000000E+00 -0.00000000000E+00 -0.45593999997E+02  0.45594000000E+02  0.51100000000E-03 0.  1.
         23    2    1    2    0    0  0.00000000000E+00  0.13322676296E-14  0.00000000000E+00  0.91188000000E+02  0.91188000000E+02 0.  0.
    9900012    2    3    3    0    0  0.77056609432E+01 -0.35788341025E+01  0.42560997046E+02  0.47787265747E+02  0.19999975848E+02 0.  0.
        -12    1    3    3    0    0 -0.77056609432E+01  0.35788341025E+01 -0.42560997046E+02  0.43400734253E+02  0.00000000000E+00 0.  1.
         11    1    4    4    0    0  0.38251158744E+00 -0.97154977480E+01  0.30104612989E+02  0.31635817282E+02  0.51100000000E-03 0. -1.
        -11    1    4    4    0    0  0.36363770419E+01  0.47070527359E+01  0.95229627269E+01  0.11227929587E+02  0.51100000000E-03 0.  1.
        -12    1    4    4    0    0  0.36867723139E+01  0.14296109096E+01  0.29334213302E+01  0.49235188785E+01  0.00000000000E+00 0.  1.
</event>
<event>
 8    1  0.4798632E-010  0.9118800E+02  0.7816164E-02  0.1184000E+00
        -11   -1    0    0    0    0  0.00000000000E+00  0.00000000000E+00  0.45593999997E+02  0.45594000000E+02  0.51100000000E-03 0. -1.
         11   -1    0    0    0    0 -0.00000000000E+00 -0.00000000000E+00 -0.45593999997E+02  0.45594000000E+02  0.51100000000E-03 0.  1.
         23    2    1    2    0    0  0.00000000000E+00  0.00000000000E+00 -0.35527136788E-14  0.91188000000E+02  0.91188000000E+02 0.  0.
    9900012    2    3    3    0    0  0.14739426337E+02  0.28821138100E+02 -0.28908727255E+02  0.47787271877E+02  0.20000003795E+02 0.  0.
         12    1    3    3    0    0 -0.14739426337E+02 -0.28821138100E+02  0.28908727255E+02  0.43400728123E+02  0.00000000000E+00 0. -1.
         11    1    4    4    0    0  0.11969626910E+02  0.21377303313E+02 -0.21966639041E+02  0.32905839851E+02  0.51100000000E-03 0. -1.
        -11    1    4    4    0    0  0.47470343886E+01  0.43728487461E+01 -0.86962095866E+01  0.10829598473E+02  0.51100000000E-03 0.  1.
         12    1    4    4    0    0 -0.19772349610E+01  0.30709860406E+01  0.17541213724E+01  0.40518335531E+01  0.00000000000E+00 0. -1.
</event>
<event>
 8    1  0.4798632E-010  0.9118800E+02  0.7816164E-02  0.1184000E+00
        -11   -1    0    0    0    0  0.00000000000E+00  0.00000000000E+00  0.45593999997E+02  0.45594000000E+02  0.51100000000E-03 0. -1.
         11   -1    0    0    0    0 -0.00000000000E+00 -0.00000000000E+00 -0.45593999997E+02  0.45594000000E+02  0.51100000000E-03 0.  1.
         23    2    1    2    0    0  0.00000000000E+00 -0.71054273576E-14  0.00000000000E+00  0.91188000000E+02  0.91188000000E+02 0.  0.
    9900012    2    3    3    0    0 -0.12065577889E+02  0.39903842706E+02 -0.12071770373E+02  0.47787280277E+02  0.20000042096E+02 0.  0.
         12    1    3    3    0    0  0.12065577889E+02 -0.39903842706E+02  0.12071770373E+02  0.43400719723E+02  0.00000000000E+00 0. -1.
         11    1    4    4    0    0 -0.93945014800E+01  0.27319661765E+02 -0.35198692854E+01  0.29103437204E+02  0.51100000000E-03 0. -1.
        -11    1    4    4    0    0 -0.19309735966E+00  0.12791503117E+02 -0.95908604303E+01  0.15988884972E+02  0.51100000000E-03 0.  1.
         12    1    4    4    0    0 -0.24779790489E+01 -0.20732217627E+00  0.10389593431E+01  0.26949581014E+01  0.00000000000E+00 0. -1.
</event>
<event>
 8    1  0.4798632E-010  0.9118800E+02  0.7816164E-02  0.1184000E+00
        -11   -1    0    0    0    0  0.00000000000E+00  0.00000000000E+00  0.45593999997E+02  0.45594000000E+02  0.51100000000E-03 0. -1.
         11   -1    0    0    0    0 -0.00000000000E+00 -0.00000000000E+00 -0.45593999997E+02  0.45594000000E+02  0.51100000000E-03 0.  1.
         23    2    1    2    0    0  0.00000000000E+00  0.35527136788E-14  0.00000000000E+00  0.91188000000E+02  0.91188000000E+02 0.  0.
    9900012    2    3    3    0    0 -0.13430037279E+02  0.26138451918E+02 -0.31938048692E+02  0.47787268161E+02  0.19999986851E+02 0.  0.
         12    1    3    3    0    0  0.13430037279E+02 -0.26138451918E+02  0.31938048692E+02  0.43400731839E+02  0.00000000000E+00 0. -1.
         11    1    4    4    0    0  0.39098658560E+01  0.51275876704E+01 -0.17855162688E+01  0.66908351449E+01  0.51100000000E-03 0. -1.
        -11    1    4    4    0    0 -0.11606557400E+02  0.11955068953E+02 -0.22164360936E+02  0.27728951374E+02  0.51100000000E-03 0.  1.
         12    1    4    4    0    0 -0.57333457358E+01  0.90557952944E+01 -0.79881714866E+01  0.13367481642E+02  0.00000000000E+00 0. -1.
</event>
<event>
 8    1  0.4798632E-010  0.9118800E+02  0.7816164E-02  0.1184000E+00
        -11   -1    0    0    0    0  0.00000000000E+00  0.00000000000E+00  0.45593999997E+02  0.45594000000E+02  0.51100000000E-03 0.  1.
         11   -1    0    0    0    0 -0.00000000000E+00 -0.00000000000E+00 -0.45593999997E+02  0.45594000000E+02  0.51100000000E-03 0. -1.
         23    2    1    2    0    0  0.35527136788E-14 -0.71054273576E-14 -0.44408920985E-15  0.91188000000E+02  0.91188000000E+02 0.  0.
    9900012    2    3    3    0    0 -0.17335771242E+02  0.39645821257E+02  0.33620492655E+01  0.47787268636E+02  0.19999989017E+02 0.  0.
        -12    1    3    3    0    0  0.17335771242E+02 -0.39645821257E+02 -0.33620492655E+01  0.43400731364E+02  0.00000000000E+00 0.  1.
         11    1    4    4    0    0 -0.72372529615E+01  0.18340431729E+02 -0.49179072741E+01  0.20320804085E+02  0.51100000000E-03 0. -1.
        -11    1    4    4    0    0 -0.84537340228E+01  0.15120388711E+02  0.10991299291E+02  0.20515858112E+02  0.51100000000E-03 0.  1.
        -12    1    4    4    0    0 -0.16447842579E+01  0.61850008167E+01 -0.27113427509E+01  0.69506064391E+01  0.00000000000E+00 0.  1.
</event>
<event>
 8    1  0.4798632E-010  0.9118800E+02  0.7816164E-02  0.1184000E+00
        -11   -1    0    0    0    0  0.00000000000E+00  0.00000000000E+00  0.45593999997E+02  0.45594000000E+02  0.51100000000E-03 0. -1.
         11   -1    0    0    0    0 -0.00000000000E+00 -0.00000000000E+00 -0.45593999997E+02  0.45594000000E+02  0.51100000000E-03 0.  1.
         23    2    1    2    0    0 -0.44408920985E-15 -0.17763568394E-14  0.71054273576E-14  0.91188000000E+02  0.91188000000E+02 0.  0.
    9900012    2    3    3    0    0  0.38894940769E+01  0.14150038756E+02 -0.40844445665E+02  0.47787302971E+02  0.20000145564E+02 0.  0.
         12    1    3    3    0    0 -0.38894940769E+01 -0.14150038756E+02  0.40844445665E+02  0.43400697029E+02  0.00000000000E+00 0. -1.
         11    1    4    4    0    0 -0.19605485551E+01 -0.45557530935E+01 -0.82095201160E+01  0.95913949810E+01  0.51100000000E-03 0. -1.
        -11    1    4    4    0    0  0.60288440283E+01  0.16750033653E+02 -0.28249118608E+02  0.33390467054E+02  0.51100000000E-03 0.  1.
         12    1    4    4    0    0 -0.17880139627E+00  0.19557581971E+01 -0.43858069408E+01  0.48054409357E+01  0.00000000000E+00 0. -1.
</event>
<event>
 8    1  0.4798632E-010  0.9118800E+02  0.7816164E-02  0.1184000E+00
        -11   -1    0    0    0    0  0.00000000000E+00  0.00000000000E+00  0.45593999997E+02  0.45594000000E+02  0.51100000000E-03 0. -1.
         11   -1    0    0    0    0 -0.00000000000E+00 -0.00000000000E+00 -0.45593999997E+02  0.45594000000E+02  0.51100000000E-03 0.  1.
         23    2    1    2    0    0  0.35527136788E-14  0.17763568394E-14  0.35527136788E-14  0.91188000000E+02  0.91188000000E+02 0.  0.
    9900012    2    3    3    0    0 -0.28979045915E+02  0.10663768979E+02 -0.30497903123E+02  0.47787272289E+02  0.20000005673E+02 0.  0.
         12    1    3    3    0    0  0.28979045915E+02 -0.10663768979E+02  0.30497903123E+02  0.43400727711E+02  0.00000000000E+00 0. -1.
         11    1    4    4    0    0 -0.19498631580E+02 -0.28746674228E+01 -0.16123110922E+02  0.25463995216E+02  0.51100000000E-03 0. -1.
        -11    1    4    4    0    0 -0.73196209656E+01  0.80012238111E+01 -0.11179769057E+02  0.15575097752E+02  0.51100000000E-03 0.  1.
         12    1    4    4    0    0 -0.21607933697E+01  0.55372125908E+01 -0.31950231437E+01  0.67481793212E+01  0.00000000000E+00 0. -1.
</event>
<event>
 8    1  0.4798632E-010  0.9118800E+02  0.7816164E-02  0.1184000E+00
        -11   -1    0    0    0    0  0.00000000000E+00  0.00000000000E+00  0.45593999997E+02  0.45594000000E+02  0.51100000000E-03 0. -1.
         11   -1    0    0    0    0 -0.00000000000E+00 -0.00000000000E+00 -0.45593999997E+02  0.45594000000E+02  0.51100000000E-03 0.  1.
         23    2    1    2    0    0  0.00000000000E+00  0.00000000000E+00  0.00000000000E+00  0.91188000000E+02  0.91188000000E+02 0.  0.
    9900012    2    3    3    0    0  0.27298447736E+02 -0.23654809403E+02 -0.24059675539E+02  0.47787271392E+02  0.20000001584E+02 0.  0.
         12    1    3    3    0    0 -0.27298447736E+02  0.23654809403E+02  0.24059675539E+02  0.43400728608E+02  0.00000000000E+00 0. -1.
         11    1    4    4    0    0  0.19190913956E+02 -0.42943534636E+01 -0.11257934660E+02  0.22659959029E+02  0.51100000000E-03 0. -1.
        -11    1    4    4    0    0  0.86289937258E+01 -0.17624663282E+02 -0.10697208113E+02  0.22349911638E+02  0.51100000000E-03 0.  1.
         12    1    4    4    0    0 -0.52145994588E+00 -0.17357926572E+01 -0.21045327664E+01  0.27774007253E+01  0.00000000000E+00 0. -1.
</event>
<event>
 8    1  0.4798632E-010  0.9118800E+02  0.7816164E-02  0.1184000E+00
        -11   -1    0    0    0    0  0.00000000000E+00  0.00000000000E+00  0.45593999997E+02  0.45594000000E+02  0.51100000000E-03 0. -1.
         11   -1    0    0    0    0 -0.00000000000E+00 -0.00000000000E+00 -0.45593999997E+02  0.45594000000E+02  0.51100000000E-03 0.  1.
         23    2    1    2    0    0  0.17763568394E-14 -0.44408920985E-15 -0.71054273576E-14  0.91188000000E+02  0.91188000000E+02 0.  0.
    9900012    2    3    3    0    0 -0.52999660806E+01  0.21395360926E+01  0.43022740124E+02  0.47787269328E+02  0.19999992173E+02 0.  0.
        -12    1    3    3    0    0  0.52999660806E+01 -0.21395360926E+01 -0.43022740124E+02  0.43400730672E+02  0.00000000000E+00 0.  1.
         11    1    4    4    0    0 -0.10965229467E+02  0.15375432164E+01  0.33005354836E+02  0.34813126038E+02  0.51100000000E-03 0. -1.
        -11    1    4    4    0    0  0.37945493173E+01  0.69077021697E+00  0.13186763098E+01  0.40761103377E+01  0.51100000000E-03 0.  1.
        -12    1    4    4    0    0  0.18707140686E+01 -0.88777340732E-01  0.86987089775E+01  0.88980329522E+01  0.00000000000E+00 0.  1.
</event>
<event>
 8    1  0.4798632E-010  0.9118800E+02  0.7816164E-02  0.1184000E+00
        -11   -1    0    0    0    0  0.00000000000E+00  0.00000000000E+00  0.45593999997E+02  0.45594000000E+02  0.51100000000E-03 0.  1.
         11   -1    0    0    0    0 -0.00000000000E+00 -0.00000000000E+00 -0.45593999997E+02  0.45594000000E+02  0.51100000000E-03 0. -1.
         23    2    1    2    0    0  0.00000000000E+00  0.00000000000E+00 -0.17763568394E-14  0.91188000000E+02  0.91188000000E+02 0.  0.
    9900012    2    3    3    0    0 -0.39486772583E+02 -0.13834373082E+02 -0.11533771641E+02  0.47787274478E+02  0.20000015654E+02 0.  0.
        -12    1    3    3    0    0  0.39486772583E+02  0.13834373082E+02  0.11533771641E+02  0.43400725522E+02  0.00000000000E+00 0.  1.
         11    1    4    4    0    0 -0.13441363719E+02 -0.62406586702E+01 -0.66476455324E+01  0.16242144891E+02  0.51100000000E-03 0. -1.
        -11    1    4    4    0    0 -0.14535056702E+01  0.12817417376E+01  0.35742448486E+01  0.40658046085E+01  0.51100000000E-03 0.  1.
        -12    1    4    4    0    0 -0.24591903194E+02 -0.88754561495E+01 -0.84603709577E+01  0.27479324979E+02  0.00000000000E+00 0.  1.
</event>
<event>
 8    1  0.4798632E-010  0.9118800E+02  0.7816164E-02  0.1184000E+00
        -11   -1    0    0    0    0  0.00000000000E+00  0.00000000000E+00  0.45593999997E+02  0.45594000000E+02  0.51100000000E-03 0.  1.
         11   -1    0    0    0    0 -0.00000000000E+00 -0.00000000000E+00 -0.45593999997E+02  0.45594000000E+02  0.51100000000E-03 0. -1.
         23    2    1    2    0    0  0.00000000000E+00  0.00000000000E+00 -0.88817841970E-15  0.91188000000E+02  0.91188000000E+02 0.  0.
    9900012    2    3    3    0    0 -0.98337523656E+01  0.42209266392E+02  0.23018110339E+01  0.47787272023E+02  0.20000004460E+02 0.  0.
        -12    1    3    3    0    0  0.98337523656E+01 -0.42209266392E+02 -0.23018110339E+01  0.43400727977E+02  0.00000000000E+00 0.  1.
         11    1    4    4    0    0 -0.92372570912E+01  0.22612755648E+02  0.69976113623E+01  0.25409254251E+02  0.51100000000E-03 0. -1.
        -11    1    4    4    0    0 -0.36181081677E+01  0.97075630458E+01 -0.59741564203E+01  0.11959014683E+02  0.51100000000E-03 0.  1.
         12    1    4    4    0    0  0.30216128933E+01  0.98889476982E+01  0.12783560919E+01  0.10419003088E+02  0.00000000000E+00 0. -1.
</event>
<event>
 8    1  0.5659903E-010  0.9118800E+02  0.7816164E-02  0.1184000E+00
        -11   -1    0    0    0    0  0.00000000000E+00  0.00000000000E+00  0.45593999997E+02  0.45594000000E+02  0.51100000000E-03 0. -1.
         11   -1    0    0    0    0 -0.00000000000E+00 -0.00000000000E+00 -0.45593999997E+02  0.45594000000E+02  0.51100000000E-03 0.  1.
         23    2    1    2    0    0 -0.17763568394E-14 -0.11102230246E-15 -0.71054273576E-14  0.91188000000E+02  0.91188000000E+02 0.  0.
    9900012    2    3    3    0    0  0.13313024125E+02  0.91260736251E+00  0.41298350808E+02  0.47787271400E+02  0.20000001620E+02 0.  0.
        -12    1    3    3    0    0 -0.13313024125E+02 -0.91260736251E+00 -0.41298350808E+02  0.43400728600E+02  0.00000000000E+00 0.  1.
         11    1    4    4    0    0  0.27994192723E+01  0.51022696248E+00  0.24223945301E+02  0.24390502373E+02  0.51100000000E-03 0. -1.
        -11    1    4    4    0    0  0.73326919964E+01  0.36375556935E+01  0.31817086956E+01  0.87819960045E+01  0.51100000000E-03 0.  1.
        -12    1    4    4    0    0  0.31809128559E+01 -0.32351752935E+01  0.13892696812E+02  0.14614773022E+02  0.00000000000E+00 0.  1.
</event>
<event>
 8    1  0.4798632E-010  0.9118800E+02  0.7816164E-02  0.1184000E+00
        -11   -1    0    0    0    0  0.00000000000E+00  0.00000000000E+00  0.45593999997E+02  0.45594000000E+02  0.51100000000E-03 0. -1.
         11   -1    0    0    0    0 -0.00000000000E+00 -0.00000000000E+00 -0.45593999997E+02  0.45594000000E+02  0.51100000000E-03 0.  1.
         23    2    1    2    0    0  0.00000000000E+00  0.00000000000E+00  0.00000000000E+00  0.91188000000E+02  0.91188000000E+02 0.  0.
    9900012    2    3    3    0    0  0.21020910023E+02 -0.28097407942E+02  0.25539781881E+02  0.47787269018E+02  0.19999990759E+02 0.  0.
        -12    1    3    3    0    0 -0.21020910023E+02  0.28097407942E+02 -0.25539781881E+02  0.43400730982E+02  0.00000000000E+00 0.  1.
         11    1    4    4    0    0  0.70024587964E+01 -0.98258482445E+01 -0.13091071759E+01  0.12136535122E+02  0.51100000000E-03 0. -1.
        -11    1    4    4    0    0  0.12774634340E+01 -0.14102513200E+00  0.17143365960E+01  0.21426038221E+01  0.51100000000E-03 0.  1.
         12    1    4    4    0    0  0.12740987793E+02 -0.18130534566E+02  0.25134552461E+02  0.33508130073E+02  0.00000000000E+00 0. -1.
</event>
<event>
 8    1  0.9083323E-010  0.9118800E+02  0.7816164E-02  0.1184000E+00
        -11   -1    0    0    0    0  0.00000000000E+00  0.00000000000E+00  0.45593999997E+02  0.45594000000E+02  0.51100000000E-03 0. -1.
         11   -1    0    0    0    0 -0.00000000000E+00 -0.00000000000E+00 -0.45593999997E+02  0.45594000000E+02  0.51100000000E-03 0.  1.
         23    2    1    2    0    0  0.00000000000E+00  0.88817841970E-15  0.00000000000E+00  0.91188000000E+02  0.91188000000E+02 0.  0.
    9900012    2    3    3    0    0 -0.58458086297E+01  0.31203451582E+01 -0.42891872712E+02  0.47787276767E+02  0.20000026089E+02 0.  0.
         12    1    3    3    0    0  0.58458086297E+01 -0.31203451582E+01  0.42891872712E+02  0.43400723233E+02  0.00000000000E+00 0. -1.
         11    1    4    4    0    0 -0.33599270539E+01 -0.20073014107E+01 -0.14016347028E+01  0.41572766160E+01  0.51100000000E-03 0. -1.
        -11    1    4    4    0    0  0.17921812777E+01  0.80766314913E+01 -0.26802176646E+02  0.28049965476E+02  0.51100000000E-03 0.  1.
        -12    1    4    4    0    0 -0.42780628536E+01 -0.29489849224E+01 -0.14688061363E+02  0.15580034674E+02  0.00000000000E+00 0.  1.
</event>
<event>
 8    1  0.4798632E-010  0.9118800E+02  0.7816164E-02  0.1184000E+00
        -11   -1    0    0    0    0  0.00000000000E+00  0.00000000000E+00  0.45593999997E+02  0.45594000000E+02  0.51100000000E-03 0. -1.
         11   -1    0    0    0    0 -0.00000000000E+00 -0.00000000000E+00 -0.45593999997E+02  0.45594000000E+02  0.51100000000E-03 0.  1.
         23    2    1    2    0    0  0.00000000000E+00  0.00000000000E+00  0.00000000000E+00  0.91188000000E+02  0.91188000000E+02 0.  0.
    9900012    2    3    3    0    0  0.37764320243E+02  0.18078133987E+02  0.11430675545E+02  0.47787272410E+02  0.20000006227E+02 0.  0.
        -12    1    3    3    0    0 -0.37764320243E+02 -0.18078133987E+02 -0.11430675545E+02  0.43400727590E+02  0.00000000000E+00 0.  1.
         11    1    4    4    0    0  0.51081340366E+01  0.38214899526E+01  0.78977114567E+01  0.10152372398E+02  0.51100000000E-03 0. -1.
        -11    1    4    4    0    0 -0.80373646876E+00 -0.36405045881E+00 -0.26965509242E+00  0.92262623947E+00  0.51100000000E-03 0.  1.
         12    1    4    4    0    0  0.33459922676E+02  0.14620694493E+02  0.38026191811E+01  0.36712273773E+02  0.00000000000E+00 0. -1.
</event>
<event>
 8    1  0.4798632E-010  0.9118800E+02  0.7816164E-02  0.1184000E+00
        -11   -1    0    0    0    0  0.00000000000E+00  0.00000000000E+00  0.45593999997E+02  0.45594000000E+02  0.51100000000E-03 0. -1.
         11   -1    0    0    0    0 -0.00000000000E+00 -0.00000000000E+00 -0.45593999997E+02  0.45594000000E+02  0.51100000000E-03 0.  1.
         23    2    1    2    0    0  0.00000000000E+00 -0.44408920985E-15  0.00000000000E+00  0.91188000000E+02  0.91188000000E+02 0.  0.
    9900012    2    3    3    0    0 -0.20552128548E+01  0.20385353003E+01 -0.43304082923E+02  0.47787272773E+02  0.20000007882E+02 0.  0.
         12    1    3    3    0    0  0.20552128548E+01 -0.20385353003E+01  0.43304082923E+02  0.43400727227E+02  0.00000000000E+00 0. -1.
         11    1    4    4    0    0  0.32144900278E+01  0.75395279782E+01 -0.11954162474E+02  0.14494117048E+02  0.51100000000E-03 0. -1.
        -11    1    4    4    0    0 -0.11350796957E+01 -0.63954289455E+01 -0.23437361079E+02  0.24320769147E+02  0.51100000000E-03 0.  1.
         12    1    4    4    0    0 -0.41346231869E+01  0.89443626761E+00 -0.79125593693E+01  0.89723865781E+01  0.00000000000E+00 0. -1.
</event>
<event>
 8    1  0.4798632E-010  0.9118800E+02  0.7816164E-02  0.1184000E+00
        -11   -1    0    0    0    0  0.00000000000E+00  0.00000000000E+00  0.45593999997E+02  0.45594000000E+02  0.51100000000E-03 0. -1.
         11   -1    0    0    0    0 -0.00000000000E+00 -0.00000000000E+00 -0.45593999997E+02  0.45594000000E+02  0.51100000000E-03 0.  1.
         23    2    1    2    0    0  0.22204460493E-15 -0.71054273576E-14 -0.35527136788E-14  0.91188000000E+02  0.91188000000E+02 0.  0.
    9900012    2    3    3    0    0 -0.76872456172E+00  0.39455365367E+02  0.18063953801E+02  0.47787271658E+02  0.20000002800E+02 0.  0.
        -12    1    3    3    0    0  0.76872456172E+00 -0.39455365367E+02 -0.18063953801E+02  0.43400728342E+02  0.00000000000E+00 0.  1.
         11    1    4    4    0    0  0.48074814036E+01  0.22161664302E+02  0.88711489328E+01  0.24350534404E+02  0.51100000000E-03 0. -1.
        -11    1    4    4    0    0 -0.40149878320E+00  0.14763780068E+02  0.31752110969E+01  0.15106699472E+02  0.51100000000E-03 0.  1.
        -12    1    4    4    0    0 -0.51747071821E+01  0.25299209962E+01  0.60175937710E+01  0.83300377827E+01  0.00000000000E+00 0.  1.
</event>
<event>
 8    1  0.4798632E-010  0.9118800E+02  0.7816164E-02  0.1184000E+00
        -11   -1    0    0    0    0  0.00000000000E+00  0.00000000000E+00  0.45593999997E+02  0.45594000000E+02  0.51100000000E-03 0. -1.
         11   -1    0    0    0    0 -0.00000000000E+00 -0.00000000000E+00 -0.45593999997E+02  0.45594000000E+02  0.51100000000E-03 0.  1.
         23    2    1    2    0    0  0.00000000000E+00  0.88817841970E-15 -0.71054273576E-14  0.91188000000E+02  0.91188000000E+02 0.  0.
    9900012    2    3    3    0    0  0.21469051885E+02 -0.55344898963E+01  0.37310484251E+02  0.47787274173E+02  0.20000014266E+02 0.  0.
        -12    1    3    3    0    0 -0.21469051885E+02  0.55344898963E+01 -0.37310484251E+02  0.43400725827E+02  0.00000000000E+00 0.  1.
         11    1    4    4    0    0  0.84879133745E+01 -0.10907476780E+02  0.26061577925E+02  0.29499551986E+02  0.51100000000E-03 0. -1.
        -11    1    4    4    0    0  0.11330568397E+02  0.35717991655E+01  0.84867474447E+01  0.14600151092E+02  0.51100000000E-03 0.  1.
         12    1    4    4    0    0  0.16505701137E+01  0.18011877186E+01  0.27621588814E+01  0.36875710954E+01  0.00000000000E+00 0. -1.
</event>
<event>
 8    1  0.4798632E-010  0.9118800E+02  0.7816164E-02  0.1184000E+00
        -11   -1    0    0    0    0  0.00000000000E+00  0.00000000000E+00  0.45593999997E+02  0.45594000000E+02  0.51100000000E-03 0.  1.
         11   -1    0    0    0    0 -0.00000000000E+00 -0.00000000000E+00 -0.45593999997E+02  0.45594000000E+02  0.51100000000E-03 0. -1.
         23    2    1    2    0    0  0.00000000000E+00  0.00000000000E+00  0.00000000000E+00  0.91188000000E+02  0.91188000000E+02 0.  0.
    9900012    2    3    3    0    0  0.27890282679E+02  0.26834555602E+02  0.19638280612E+02  0.47787270655E+02  0.19999998225E+02 0.  0.
        -12    1    3    3    0    0 -0.27890282679E+02 -0.26834555602E+02 -0.19638280612E+02  0.43400729345E+02  0.00000000000E+00 0.  1.
         11    1    4    4    0    0  0.14440579547E+02  0.11801215446E+02 -0.12334313855E+01  0.18690114417E+02  0.51100000000E-03 0. -1.
        -11    1    4    4    0    0  0.30314113690E+01  0.38715047699E+01  0.62942234765E+01  0.79871930930E+01  0.51100000000E-03 0.  1.
         12    1    4    4    0    0  0.10418291763E+02  0.11161835386E+02  0.14577488521E+02  0.21109963146E+02  0.00000000000E+00 0. -1.
</event>
<event>
 8    1  0.4798632E-010  0.9118800E+02  0.7816164E-02  0.1184000E+00
        -11   -1    0    0    0    0  0.00000000000E+00  0.00000000000E+00  0.45593999997E+02  0.45594000000E+02  0.51100000000E-03 0. -1.
         11   -1    0    0    0    0 -0.00000000000E+00 -0.00000000000E+00 -0.45593999997E+02  0.45594000000E+02  0.51100000000E-03 0.  1.
         23    2    1    2    0    0 -0.35527136788E-14  0.00000000000E+00 -0.35527136788E-14  0.91188000000E+02  0.91188000000E+02 0.  0.
    9900012    2    3    3    0    0  0.28744450227E+02  0.22353947299E+02  0.23615240838E+02  0.47787285968E+02  0.20000068040E+02 0.  0.
        -12    1    3    3    0    0 -0.28744450227E+02 -0.22353947299E+02 -0.23615240838E+02  0.43400714032E+02  0.00000000000E+00 0.  1.
         11    1    4    4    0    0 -0.18934561397E+01  0.77326892468E+00  0.39565761731E+01  0.44539438992E+01  0.51100000000E-03 0. -1.
        -11    1    4    4    0    0  0.31043284820E+00  0.26126860317E+01  0.26704638254E+00  0.26445814196E+01  0.51100000000E-03 0.  1.
         12    1    4    4    0    0  0.30327473518E+02  0.18967992342E+02  0.19391618283E+02  0.40688760649E+02  0.00000000000E+00 0. -1.
</event>
<event>
 8    1  0.4798632E-010  0.9118800E+02  0.7816164E-02  0.1184000E+00
        -11   -1    0    0    0    0  0.00000000000E+00  0.00000000000E+00  0.45593999997E+02  0.45594000000E+02  0.51100000000E-03 0. -1.
         11   -1    0    0    0    0 -0.00000000000E+00 -0.00000000000E+00 -0.45593999997E+02  0.45594000000E+02  0.51100000000E-03 0.  1.
         23    2    1    2    0    0  0.00000000000E+00 -0.66613381478E-15  0.00000000000E+00  0.91188000000E+02  0.91188000000E+02 0.  0.
    9900012    2    3    3    0    0 -0.17836668448E+02 -0.10066100503E+01  0.39553283048E+02  0.47787283358E+02  0.20000056143E+02 0.  0.
        -12    1    3    3    0    0  0.17836668448E+02  0.10066100503E+01 -0.39553283048E+02  0.43400716642E+02  0.00000000000E+00 0.  1.
         11    1    4    4    0    0 -0.17935272247E+02 -0.44998749874E+01  0.35341673365E+02  0.39886799094E+02  0.51100000000E-03 0. -1.
        -11    1    4    4    0    0  0.22371097206E+01  0.27392654537E+01  0.52941676709E+00  0.35761036761E+01  0.51100000000E-03 0.  1.
         12    1    4    4    0    0 -0.21385059213E+01  0.75399948344E+00  0.36821929162E+01  0.43243805878E+01  0.00000000000E+00 0. -1.
</event>
<event>
 8    1  0.4798632E-010  0.9118800E+02  0.7816164E-02  0.1184000E+00
        -11   -1    0    0    0    0  0.00000000000E+00  0.00000000000E+00  0.45593999997E+02  0.45594000000E+02  0.51100000000E-03 0. -1.
         11   -1    0    0    0    0 -0.00000000000E+00 -0.00000000000E+00 -0.45593999997E+02  0.45594000000E+02  0.51100000000E-03 0.  1.
         23    2    1    2    0    0  0.71054273576E-14  0.88817841970E-15 -0.22204460493E-15  0.91188000000E+02  0.91188000000E+02 0.  0.
    9900012    2    3    3    0    0 -0.42657859692E+02  0.79013776128E+01 -0.12240925773E+01  0.47787272307E+02  0.20000005756E+02 0.  0.
        -12    1    3    3    0    0  0.42657859692E+02 -0.79013776128E+01  0.12240925773E+01  0.43400727693E+02  0.00000000000E+00 0.  1.
         11    1    4    4    0    0 -0.22143476736E+02  0.27641603821E+01 -0.23457069829E+01  0.22438281710E+02  0.51100000000E-03 0. -1.
        -11    1    4    4    0    0 -0.24243414711E+01  0.57233633550E+01 -0.28196633515E+01  0.68253074171E+01  0.51100000000E-03 0.  1.
        -12    1    4    4    0    0 -0.18090041484E+02 -0.58614612425E+00  0.39412777570E+01  0.18523683180E+02  0.00000000000E+00 0.  1.
</event>
<event>
 8    1  0.4798632E-010  0.9118800E+02  0.7816164E-02  0.1184000E+00
        -11   -1    0    0    0    0  0.00000000000E+00  0.00000000000E+00  0.45593999997E+02  0.45594000000E+02  0.51100000000E-03 0. -1.
         11   -1    0    0    0    0 -0.00000000000E+00 -0.00000000000E+00 -0.45593999997E+02  0.45594000000E+02  0.51100000000E-03 0.  1.
         23    2    1    2    0    0  0.00000000000E+00  0.00000000000E+00  0.00000000000E+00  0.91188000000E+02  0.91188000000E+02 0.  0.
    9900012    2    3    3    0    0 -0.11986071920E+01  0.21781072412E+02 -0.37520240868E+02  0.47787305888E+02  0.20000158866E+02 0.  0.
         12    1    3    3    0    0  0.11986071920E+01 -0.21781072412E+02  0.37520240868E+02  0.43400694112E+02  0.00000000000E+00 0. -1.
         11    1    4    4    0    0 -0.29193603333E+01  0.75923848996E+01 -0.82108844490E+01  0.11557923556E+02  0.51100000000E-03 0.  1.
        -11    1    4    4    0    0 -0.89399966077E+00  0.12042960700E+02 -0.76230215308E+01  0.14280847151E+02  0.51100000000E-03 0. -1.
        -12    1    4    4    0    0  0.26147528021E+01  0.21457268127E+01 -0.21686334888E+02  0.21948535182E+02  0.00000000000E+00 0.  1.
</event>
<event>
 8    1  0.4798632E-010  0.9118800E+02  0.7816164E-02  0.1184000E+00
        -11   -1    0    0    0    0  0.00000000000E+00  0.00000000000E+00  0.45593999997E+02  0.45594000000E+02  0.51100000000E-03 0. -1.
         11   -1    0    0    0    0 -0.00000000000E+00 -0.00000000000E+00 -0.45593999997E+02  0.45594000000E+02  0.51100000000E-03 0.  1.
         23    2    1    2    0    0 -0.71054273576E-14  0.00000000000E+00 -0.35527136788E-14  0.91188000000E+02  0.91188000000E+02 0.  0.
    9900012    2    3    3    0    0  0.33199169363E+02  0.88194407159E+01  0.26526510230E+02  0.47787272749E+02  0.20000007771E+02 0.  0.
        -12    1    3    3    0    0 -0.33199169363E+02 -0.88194407159E+01 -0.26526510230E+02  0.43400727251E+02  0.00000000000E+00 0.  1.
         11    1    4    4    0    0  0.95259848476E+01  0.26294447379E+01 -0.10321301337E+01  0.99359780505E+01  0.51100000000E-03 0. -1.
        -11    1    4    4    0    0  0.49889542355E+00  0.21818299198E+01  0.12517908855E+01  0.25644217915E+01  0.51100000000E-03 0.  1.
         12    1    4    4    0    0  0.23174289092E+02  0.40081660582E+01  0.26306849479E+02  0.35286872907E+02  0.00000000000E+00 0. -1.
</event>
<event>
 8    1  0.4798632E-010  0.9118800E+02  0.7816164E-02  0.1184000E+00
        -11   -1    0    0    0    0  0.00000000000E+00  0.00000000000E+00  0.45593999997E+02  0.45594000000E+02  0.51100000000E-03 0. -1.
         11   -1    0    0    0    0 -0.00000000000E+00 -0.00000000000E+00 -0.45593999997E+02  0.45594000000E+02  0.51100000000E-03 0.  1.
         23    2    1    2    0    0  0.00000000000E+00  0.00000000000E+00  0.00000000000E+00  0.91188000000E+02  0.91188000000E+02 0.  0.
    9900012    2    3    3    0    0 -0.28683068794E+02 -0.17013441888E+02 -0.27774962908E+02  0.47787260319E+02  0.19999951096E+02 0.  0.
         12    1    3    3    0    0  0.28683068794E+02  0.17013441888E+02  0.27774962908E+02  0.43400739681E+02  0.00000000000E+00 0. -1.
         11    1    4    4    0    0 -0.37737192086E+01  0.22311047389E+01  0.11843599955E+01  0.45410895038E+01  0.51100000000E-03 0. -1.
        -11    1    4    4    0    0 -0.22175067733E+02 -0.14509301905E+02 -0.25496197931E+02  0.36773762113E+02  0.51100000000E-03 0.  1.
         12    1    4    4    0    0 -0.27342818528E+01 -0.47352447221E+01 -0.34631249731E+01  0.64724087022E+01  0.00000000000E+00 0. -1.
</event>
<event>
 8    1  0.4798632E-010  0.9118800E+02  0.7816164E-02  0.1184000E+00
        -11   -1    0    0    0    0  0.00000000000E+00  0.00000000000E+00  0.45593999997E+02  0.45594000000E+02  0.51100000000E-03 0. -1.
         11   -1    0    0    0    0 -0.00000000000E+00 -0.00000000000E+00 -0.45593999997E+02  0.45594000000E+02  0.51100000000E-03 0.  1.
         23    2    1    2    0    0  0.71054273576E-14  0.00000000000E+00  0.00000000000E+00  0.91188000000E+02  0.91188000000E+02 0.  0.
    9900012    2    3    3    0    0 -0.34595311362E+02 -0.40731819291E+01 -0.25888158045E+02  0.47787272976E+02  0.20000008807E+02 0.  0.
         12    1    3    3    0    0  0.34595311362E+02  0.40731819291E+01  0.25888158045E+02  0.43400727024E+02  0.00000000000E+00 0. -1.
         11    1    4    4    0    0 -0.11378839362E+02 -0.36609761189E+01 -0.20045523251E+02  0.23338888877E+02  0.51100000000E-03 0. -1.
        -11    1    4    4    0    0 -0.22226478257E+02  0.60625459704E+00 -0.59702399963E+01  0.23022329296E+02  0.51100000000E-03 0.  1.
         12    1    4    4    0    0 -0.98999374342E+00 -0.10184604073E+01  0.12760520237E+00  0.14260548029E+01  0.00000000000E+00 0. -1.
</event>
<event>
 8    1  0.4798632E-010  0.9118800E+02  0.7816164E-02  0.1184000E+00
        -11   -1    0    0    0    0  0.00000000000E+00  0.00000000000E+00  0.45593999997E+02  0.45594000000E+02  0.51100000000E-03 0. -1.
         11   -1    0    0    0    0 -0.00000000000E+00 -0.00000000000E+00 -0.45593999997E+02  0.45594000000E+02  0.51100000000E-03 0.  1.
         23    2    1    2    0    0  0.35527136788E-14 -0.35527136788E-14  0.00000000000E+00  0.91188000000E+02  0.91188000000E+02 0.  0.
    9900012    2    3    3    0    0 -0.26278845876E+02  0.20780809803E+02  0.27589936583E+02  0.47787258102E+02  0.19999940990E+02 0.  0.
        -12    1    3    3    0    0  0.26278845876E+02 -0.20780809803E+02 -0.27589936583E+02  0.43400741898E+02  0.00000000000E+00 0.  1.
         11    1    4    4    0    0 -0.13282590183E+02  0.57189913219E+01  0.68331785749E+01  0.15994573873E+02  0.51100000000E-03 0.  1.
        -11    1    4    4    0    0 -0.65845736461E+01  0.61178919985E+01  0.18487313680E+02  0.20556409705E+02  0.51100000000E-03 0. -1.
        -12    1    4    4    0    0 -0.64116820474E+01  0.89439264828E+01  0.22694443283E+01  0.11236274523E+02  0.00000000000E+00 0.  1.
</event>
<event>
 8    1  0.4798632E-010  0.9118800E+02  0.7816164E-02  0.1184000E+00
        -11   -1    0    0    0    0  0.00000000000E+00  0.00000000000E+00  0.45593999997E+02  0.45594000000E+02  0.51100000000E-03 0. -1.
         11   -1    0    0    0    0 -0.00000000000E+00 -0.00000000000E+00 -0.45593999997E+02  0.45594000000E+02  0.51100000000E-03 0.  1.
         23    2    1    2    0    0  0.17763568394E-14  0.00000000000E+00  0.22204460493E-15  0.91188000000E+02  0.91188000000E+02 0.  0.
    9900012    2    3    3    0    0 -0.13540029299E+02  0.41232672694E+02  0.39852098085E+00  0.47787256805E+02  0.19999935078E+02 0.  0.
         12    1    3    3    0    0  0.13540029299E+02 -0.41232672694E+02 -0.39852098085E+00  0.43400743195E+02  0.00000000000E+00 0. -1.
         11    1    4    4    0    0 -0.14105562170E+02  0.31956638659E+02 -0.11043295531E+01  0.34948722188E+02  0.51100000000E-03 0. -1.
        -11    1    4    4    0    0 -0.30405128108E+01  0.35683547208E+01 -0.21553177336E+01  0.51597740609E+01  0.51100000000E-03 0.  1.
         12    1    4    4    0    0  0.36060456822E+01  0.57076793137E+01  0.36581682675E+01  0.76787605565E+01  0.00000000000E+00 0. -1.
</event>
<event>
 8    1  0.4798632E-010  0.9118800E+02  0.7816164E-02  0.1184000E+00
        -11   -1    0    0    0    0  0.00000000000E+00  0.00000000000E+00  0.45593999997E+02  0.45594000000E+02  0.51100000000E-03 0. -1.
         11   -1    0    0    0    0 -0.00000000000E+00 -0.00000000000E+00 -0.45593999997E+02  0.45594000000E+02  0.51100000000E-03 0.  1.
         23    2    1    2    0    0  0.00000000000E+00  0.00000000000E+00  0.00000000000E+00  0.91188000000E+02  0.91188000000E+02 0.  0.
    9900012    2    3    3    0    0  0.68910396574E+01 -0.29996183315E+02  0.30600115670E+02  0.47787256688E+02  0.19999934544E+02 0.  0.
        -12    1    3    3    0    0 -0.68910396574E+01  0.29996183315E+02 -0.30600115670E+02  0.43400743312E+02  0.00000000000E+00 0.  1.
         11    1    4    4    0    0  0.58786292223E+01 -0.21019962575E+02  0.18889440128E+02  0.28865343525E+02  0.51100000000E-03 0. -1.
        -11    1    4    4    0    0 -0.50695229382E+01 -0.57227973068E+01  0.41936274353E+01  0.87199187590E+01  0.51100000000E-03 0.  1.
         12    1    4    4    0    0  0.60819333733E+01 -0.32534234329E+01  0.75170481060E+01  0.10201994404E+02  0.00000000000E+00 0. -1.
</event>
<event>
 8    1  0.4798632E-010  0.9118800E+02  0.7816164E-02  0.1184000E+00
        -11   -1    0    0    0    0  0.00000000000E+00  0.00000000000E+00  0.45593999997E+02  0.45594000000E+02  0.51100000000E-03 0. -1.
         11   -1    0    0    0    0 -0.00000000000E+00 -0.00000000000E+00 -0.45593999997E+02  0.45594000000E+02  0.51100000000E-03 0.  1.
         23    2    1    2    0    0  0.00000000000E+00  0.00000000000E+00  0.00000000000E+00  0.91188000000E+02  0.91188000000E+02 0.  0.
    9900012    2    3    3    0    0  0.35829735066E+02 -0.19992804905E+02  0.14147116201E+02  0.47787273512E+02  0.20000011250E+02 0.  0.
         12    1    3    3    0    0 -0.35829735066E+02  0.19992804905E+02 -0.14147116201E+02  0.43400726488E+02  0.00000000000E+00 0. -1.
         11    1    4    4    0    0  0.13047454692E+02  0.76260611422E+00 -0.85815095395E+00  0.13097864916E+02  0.51100000000E-03 0. -1.
        -11    1    4    4    0    0  0.15134628490E+02 -0.15622153699E+02  0.82333623248E+01  0.23257190741E+02  0.51100000000E-03 0.  1.
         12    1    4    4    0    0  0.76476518837E+01 -0.51332573197E+01  0.67719048307E+01  0.11432217855E+02  0.00000000000E+00 0. -1.
</event>
<event>
 8    1  0.6343407E-010  0.9118800E+02  0.7816164E-02  0.1184000E+00
        -11   -1    0    0    0    0  0.00000000000E+00  0.00000000000E+00  0.45593999997E+02  0.45594000000E+02  0.51100000000E-03 0. -1.
         11   -1    0    0    0    0 -0.00000000000E+00 -0.00000000000E+00 -0.45593999997E+02  0.45594000000E+02  0.51100000000E-03 0.  1.
         23    2    1    2    0    0  0.00000000000E+00  0.17763568394E-14 -0.71054273576E-14  0.91188000000E+02  0.91188000000E+02 0.  0.
    9900012    2    3    3    0    0  0.64064881419E+01  0.53093964212E+01 -0.42595670308E+02  0.47787263720E+02  0.19999966606E+02 0.  0.
         12    1    3    3    0    0 -0.64064881419E+01 -0.53093964212E+01  0.42595670308E+02  0.43400736280E+02  0.00000000000E+00 0. -1.
         11    1    4    4    0    0  0.37856801528E+00 -0.33696147936E+00  0.68022402689E+00  0.84826986782E+00  0.51100000000E-03 0. -1.
        -11    1    4    4    0    0  0.16134364283E+01 -0.54042220240E+01 -0.20240047063E+02  0.21011146998E+02  0.51100000000E-03 0.  1.
        -12    1    4    4    0    0  0.44144836984E+01  0.11050579925E+02 -0.23035847271E+02  0.25927846854E+02  0.00000000000E+00 0.  1.
</event>
<event>
 8    1  0.4798632E-010  0.9118800E+02  0.7816164E-02  0.1184000E+00
        -11   -1    0    0    0    0  0.00000000000E+00  0.00000000000E+00  0.45593999997E+02  0.45594000000E+02  0.51100000000E-03 0. -1.
         11   -1    0    0    0    0 -0.00000000000E+00 -0.00000000000E+00 -0.45593999997E+02  0.45594000000E+02  0.51100000000E-03 0.  1.
         23    2    1    2    0    0 -0.35527136788E-14  0.00000000000E+00  0.00000000000E+00  0.91188000000E+02  0.91188000000E+02 0.  0.
    9900012    2    3    3    0    0 -0.19431881759E+02 -0.12334919477E+02  0.36795037793E+02  0.47787273354E+02  0.20000010531E+02 0.  0.
        -12    1    3    3    0    0  0.19431881759E+02  0.12334919477E+02 -0.36795037793E+02  0.43400726646E+02  0.00000000000E+00 0.  1.
         11    1    4    4    0    0 -0.11888128657E+02 -0.11919246208E+02  0.22280723234E+02  0.27925376653E+02  0.51100000000E-03 0. -1.
        -11    1    4    4    0    0 -0.15254705844E+01  0.44931772650E+01  0.94952418361E+01  0.10614863175E+02  0.51100000000E-03 0.  1.
         12    1    4    4    0    0 -0.60182825178E+01 -0.49088505345E+01  0.50190727229E+01  0.92470335261E+01  0.00000000000E+00 0. -1.
</event>
<event>
 8    1  0.4798632E-010  0.9118800E+02  0.7816164E-02  0.1184000E+00
        -11   -1    0    0    0    0  0.00000000000E+00  0.00000000000E+00  0.45593999997E+02  0.45594000000E+02  0.51100000000E-03 0. -1.
         11   -1    0    0    0    0 -0.00000000000E+00 -0.00000000000E+00 -0.45593999997E+02  0.45594000000E+02  0.51100000000E-03 0.  1.
         23    2    1    2    0    0  0.00000000000E+00  0.00000000000E+00  0.17763568394E-14  0.91188000000E+02  0.91188000000E+02 0.  0.
    9900012    2    3    3    0    0 -0.32784515318E+02  0.23785793246E+02 -0.15589562251E+02  0.47787275856E+02  0.20000021939E+02 0.  0.
         12    1    3    3    0    0  0.32784515318E+02 -0.23785793246E+02  0.15589562251E+02  0.43400724144E+02  0.00000000000E+00 0. -1.
         11    1    4    4    0    0  0.56164271923E+00  0.20753356576E+01 -0.63627397027E+01  0.67161683586E+01  0.51100000000E-03 0. -1.
        -11    1    4    4    0    0 -0.13601233445E+02  0.10887952547E+02 -0.27208326738E+01  0.17633604072E+02  0.51100000000E-03 0.  1.
         12    1    4    4    0    0 -0.19744924593E+02  0.10822505041E+02 -0.65059898749E+01  0.23437503425E+02  0.00000000000E+00 0. -1.
</event>
<event>
 8    1  0.4798632E-010  0.9118800E+02  0.7816164E-02  0.1184000E+00
        -11   -1    0    0    0    0  0.00000000000E+00  0.00000000000E+00  0.45593999997E+02  0.45594000000E+02  0.51100000000E-03 0. -1.
         11   -1    0    0    0    0 -0.00000000000E+00 -0.00000000000E+00 -0.45593999997E+02  0.45594000000E+02  0.51100000000E-03 0.  1.
         23    2    1    2    0    0  0.00000000000E+00  0.00000000000E+00 -0.71054273576E-14  0.91188000000E+02  0.91188000000E+02 0.  0.
    9900012    2    3    3    0    0  0.25789798755E+02  0.11218465924E+02  0.33055340554E+02  0.47787271474E+02  0.20000001956E+02 0.  0.
        -12    1    3    3    0    0 -0.25789798755E+02 -0.11218465924E+02 -0.33055340554E+02  0.43400728526E+02  0.00000000000E+00 0.  1.
         11    1    4    4    0    0  0.17370514137E+02  0.14720905715E+02  0.15383513627E+02  0.27478943179E+02  0.51100000000E-03 0. -1.
        -11    1    4    4    0    0  0.51942988126E+01 -0.30553980768E+01  0.74597038085E+01  0.95897538412E+01  0.51100000000E-03 0.  1.
         12    1    4    4    0    0  0.32249858053E+01 -0.44704171379E+00  0.10212123118E+02  0.10718574453E+02  0.00000000000E+00 0. -1.
</event>
<event>
 8    1  0.4798632E-010  0.9118800E+02  0.7816164E-02  0.1184000E+00
        -11   -1    0    0    0    0  0.00000000000E+00  0.00000000000E+00  0.45593999997E+02  0.45594000000E+02  0.51100000000E-03 0. -1.
         11   -1    0    0    0    0 -0.00000000000E+00 -0.00000000000E+00 -0.45593999997E+02  0.45594000000E+02  0.51100000000E-03 0.  1.
         23    2    1    2    0    0  0.00000000000E+00  0.00000000000E+00 -0.35527136788E-14  0.91188000000E+02  0.91188000000E+02 0.  0.
    9900012    2    3    3    0    0  0.19656597985E+02  0.24875454772E+02 -0.29638708521E+02  0.47787272619E+02  0.20000007179E+02 0.  0.
         12    1    3    3    0    0 -0.19656597985E+02 -0.24875454772E+02  0.29638708521E+02  0.43400727381E+02  0.00000000000E+00 0. -1.
         11    1    4    4    0    0  0.13523215355E+02  0.11108513847E+02 -0.46247248194E+01  0.18101505830E+02  0.51100000000E-03 0. -1.
        -11    1    4    4    0    0  0.55142122133E+01  0.13331913033E+02 -0.20260107040E+02  0.24872040105E+02  0.51100000000E-03 0.  1.
         12    1    4    4    0    0  0.61917041707E+00  0.43502789159E+00 -0.47538766614E+01  0.48137266836E+01  0.00000000000E+00 0. -1.
</event>
<event>
 8    1  0.4798632E-010  0.9118800E+02  0.7816164E-02  0.1184000E+00
        -11   -1    0    0    0    0  0.00000000000E+00  0.00000000000E+00  0.45593999997E+02  0.45594000000E+02  0.51100000000E-03 0. -1.
         11   -1    0    0    0    0 -0.00000000000E+00 -0.00000000000E+00 -0.45593999997E+02  0.45594000000E+02  0.51100000000E-03 0.  1.
         23    2    1    2    0    0  0.17763568394E-14 -0.35527136788E-14  0.00000000000E+00  0.91188000000E+02  0.91188000000E+02 0.  0.
    9900012    2    3    3    0    0  0.93395327584E+01 -0.20690504319E+02 -0.36990531044E+02  0.47787271572E+02  0.20000002406E+02 0.  0.
         12    1    3    3    0    0 -0.93395327584E+01  0.20690504319E+02  0.36990531044E+02  0.43400728428E+02  0.00000000000E+00 0. -1.
         11    1    4    4    0    0 -0.41355723217E+01 -0.16323003960E+01 -0.12427324780E+02  0.13198703136E+02  0.51100000000E-03 0. -1.
        -11    1    4    4    0    0  0.12439966126E+02 -0.17604792367E+02 -0.18960459862E+02  0.28708544198E+02  0.51100000000E-03 0.  1.
         12    1    4    4    0    0  0.10351389538E+01 -0.14534115567E+01 -0.56027464020E+01  0.58800242391E+01  0.00000000000E+00 0. -1.
</event>
<event>
 8    1  0.4798632E-010  0.9118800E+02  0.7816164E-02  0.1184000E+00
        -11   -1    0    0    0    0  0.00000000000E+00  0.00000000000E+00  0.45593999997E+02  0.45594000000E+02  0.51100000000E-03 0.  1.
         11   -1    0    0    0    0 -0.00000000000E+00 -0.00000000000E+00 -0.45593999997E+02  0.45594000000E+02  0.51100000000E-03 0. -1.
         23    2    1    2    0    0  0.00000000000E+00  0.00000000000E+00  0.00000000000E+00  0.91188000000E+02  0.91188000000E+02 0.  0.
    9900012    2    3    3    0    0  0.28599561187E+02 -0.30056431229E+02 -0.12739657646E+02  0.47787276098E+02  0.20000023039E+02 0.  0.
         12    1    3    3    0    0 -0.28599561187E+02  0.30056431229E+02  0.12739657646E+02  0.43400723902E+02  0.00000000000E+00 0. -1.
         11    1    4    4    0    0  0.11602126935E+02 -0.38026567477E+01 -0.48801089485E+01  0.13148574500E+02  0.51100000000E-03 0. -1.
        -11    1    4    4    0    0  0.12040105280E+02 -0.22247658574E+02 -0.10599217314E+01  0.25318883892E+02  0.51100000000E-03 0.  1.
        -12    1    4    4    0    0  0.49573289713E+01 -0.40061159071E+01 -0.67996269661E+01  0.93198177058E+01  0.00000000000E+00 0.  1.
</event>
<event>
 8    1  0.4798632E-010  0.9118800E+02  0.7816164E-02  0.1184000E+00
        -11   -1    0    0    0    0  0.00000000000E+00  0.00000000000E+00  0.45593999997E+02  0.45594000000E+02  0.51100000000E-03 0. -1.
         11   -1    0    0    0    0 -0.00000000000E+00 -0.00000000000E+00 -0.45593999997E+02  0.45594000000E+02  0.51100000000E-03 0.  1.
         23    2    1    2    0    0  0.00000000000E+00  0.00000000000E+00  0.00000000000E+00  0.91188000000E+02  0.91188000000E+02 0.  0.
    9900012    2    3    3    0    0  0.39453289985E+02  0.12944770098E+02  0.12629052264E+02  0.47787284284E+02  0.20000060366E+02 0.  0.
        -12    1    3    3    0    0 -0.39453289985E+02 -0.12944770098E+02 -0.12629052264E+02  0.43400715716E+02  0.00000000000E+00 0.  1.
         11    1    4    4    0    0  0.28921044581E+02  0.63401375805E+01  0.14998701355E+02  0.33190137192E+02  0.51100000000E-03 0. -1.
        -11    1    4    4    0    0  0.53389867405E+01  0.74108688040E+01 -0.11905743054E+01  0.92110381219E+01  0.51100000000E-03 0.  1.
         12    1    4    4    0    0  0.51932586635E+01 -0.80623628645E+00 -0.11790747855E+01  0.53861089708E+01  0.00000000000E+00 0. -1.
</event>
<event>
 8    1  0.4798632E-010  0.9118800E+02  0.7816164E-02  0.1184000E+00
        -11   -1    0    0    0    0  0.00000000000E+00  0.00000000000E+00  0.45593999997E+02  0.45594000000E+02  0.51100000000E-03 0.  1.
         11   -1    0    0    0    0 -0.00000000000E+00 -0.00000000000E+00 -0.45593999997E+02  0.45594000000E+02  0.51100000000E-03 0. -1.
         23    2    1    2    0    0  0.00000000000E+00  0.35527136788E-14 -0.17763568394E-14  0.91188000000E+02  0.91188000000E+02 0.  0.
    9900012    2    3    3    0    0 -0.33312256535E+02 -0.23089150571E+02 -0.15517989970E+02  0.47787270487E+02  0.19999997459E+02 0.  0.
         12    1    3    3    0    0  0.33312256535E+02  0.23089150571E+02  0.15517989970E+02  0.43400729513E+02  0.00000000000E+00 0. -1.
         11    1    4    4    0    0 -0.10918649226E+01 -0.10299564716E+01 -0.70509592696E+01  0.72089531990E+01  0.51100000000E-03 0. -1.
        -11    1    4    4    0    0 -0.15480159887E+02 -0.11899765069E+02 -0.77769067866E+00  0.19540843429E+02  0.51100000000E-03 0.  1.
        -12    1    4    4    0    0 -0.16740231725E+02 -0.10159429030E+02 -0.76893400219E+01  0.21037473859E+02  0.00000000000E+00 0.  1.
</event>
<event>
 8    1  0.4798632E-010  0.9118800E+02  0.7816164E-02  0.1184000E+00
        -11   -1    0    0    0    0  0.00000000000E+00  0.00000000000E+00  0.45593999997E+02  0.45594000000E+02  0.51100000000E-03 0. -1.
         11   -1    0    0    0    0 -0.00000000000E+00 -0.00000000000E+00 -0.45593999997E+02  0.45594000000E+02  0.51100000000E-03 0.  1.
         23    2    1    2    0    0  0.00000000000E+00  0.88817841970E-15  0.00000000000E+00  0.91188000000E+02  0.91188000000E+02 0.  0.
    9900012    2    3    3    0    0  0.97873395953E+01 -0.52196993017E+01 -0.41959337732E+02  0.47787270743E+02  0.19999998625E+02 0.  0.
         12    1    3    3    0    0 -0.97873395953E+01  0.52196993017E+01  0.41959337732E+02  0.43400729257E+02  0.00000000000E+00 0. -1.
         11    1    4    4    0    0  0.83547458239E+01 -0.66751472668E+01 -0.32728959142E+02  0.34431731522E+02  0.51100000000E-03 0. -1.
        -11    1    4    4    0    0  0.45797599426E+01  0.41410402093E+00 -0.13285297296E+01  0.47865096652E+01  0.51100000000E-03 0.  1.
         12    1    4    4    0    0 -0.31471661712E+01  0.10413439442E+01 -0.79018488603E+01  0.85690295559E+01  0.00000000000E+00 0. -1.
</event>
<event>
 8    1  0.4798632E-010  0.9118800E+02  0.7816164E-02  0.1184000E+00
        -11   -1    0    0    0    0  0.00000000000E+00  0.00000000000E+00  0.45593999997E+02  0.45594000000E+02  0.51100000000E-03 0.  1.
         11   -1    0    0    0    0 -0.00000000000E+00 -0.00000000000E+00 -0.45593999997E+02  0.45594000000E+02  0.51100000000E-03 0. -1.
         23    2    1    2    0    0  0.00000000000E+00  0.00000000000E+00  0.00000000000E+00  0.91188000000E+02  0.91188000000E+02 0.  0.
    9900012    2    3    3    0    0 -0.27511365553E+02  0.21667104712E+02 -0.25637547033E+02  0.47787280201E+02  0.20000041748E+02 0.  0.
         12    1    3    3    0    0  0.27511365553E+02 -0.21667104712E+02  0.25637547033E+02  0.43400719799E+02  0.00000000000E+00 0. -1.
         11    1    4    4    0    0  0.51437759803E+00 -0.13406477585E+01  0.24594819299E+00  0.14568498552E+01  0.51100000000E-03 0. -1.
        -11    1    4    4    0    0 -0.27614542307E+02  0.24293441245E+02 -0.23670237002E+02  0.43738019552E+02  0.51100000000E-03 0.  1.
        -12    1    4    4    0    0 -0.41120084454E+00 -0.12856887741E+01 -0.22132582235E+01  0.25924107935E+01  0.00000000000E+00 0.  1.
</event>
<event>
 8    1  0.4798632E-010  0.9118800E+02  0.7816164E-02  0.1184000E+00
        -11   -1    0    0    0    0  0.00000000000E+00  0.00000000000E+00  0.45593999997E+02  0.45594000000E+02  0.51100000000E-03 0. -1.
         11   -1    0    0    0    0 -0.00000000000E+00 -0.00000000000E+00 -0.45593999997E+02  0.45594000000E+02  0.51100000000E-03 0.  1.
         23    2    1    2    0    0 -0.35527136788E-14  0.00000000000E+00  0.00000000000E+00  0.91188000000E+02  0.91188000000E+02 0.  0.
    9900012    2    3    3    0    0  0.19734154189E+02  0.37324016547E+01  0.38474089471E+02  0.47787271616E+02  0.20000002607E+02 0.  0.
        -12    1    3    3    0    0 -0.19734154189E+02 -0.37324016547E+01 -0.38474089471E+02  0.43400728384E+02  0.00000000000E+00 0.  1.
         11    1    4    4    0    0  0.18209115386E+02  0.62603122986E+01  0.16094872534E+02  0.25095982056E+02  0.51100000000E-03 0. -1.
        -11    1    4    4    0    0  0.16987284692E+01 -0.18153733509E+01  0.10535201383E+02  0.10824589011E+02  0.51100000000E-03 0.  1.
         12    1    4    4    0    0 -0.17368966617E+00 -0.71253729296E+00  0.11844015554E+02  0.11866700549E+02  0.00000000000E+00 0. -1.
</event>
<event>
 8    1  0.4798632E-010  0.9118800E+02  0.7816164E-02  0.1184000E+00
        -11   -1    0    0    0    0  0.00000000000E+00  0.00000000000E+00  0.45593999997E+02  0.45594000000E+02  0.51100000000E-03 0. -1.
         11   -1    0    0    0    0 -0.00000000000E+00 -0.00000000000E+00 -0.45593999997E+02  0.45594000000E+02  0.51100000000E-03 0.  1.
         23    2    1    2    0    0  0.00000000000E+00  0.00000000000E+00 -0.88817841970E-15  0.91188000000E+02  0.91188000000E+02 0.  0.
    9900012    2    3    3    0    0 -0.18738090248E+02  0.39006739342E+02 -0.33138573904E+01  0.47787269694E+02  0.19999993843E+02 0.  0.
         12    1    3    3    0    0  0.18738090248E+02 -0.39006739342E+02  0.33138573904E+01  0.43400730306E+02  0.00000000000E+00 0. -1.
         11    1    4    4    0    0 -0.15114219627E+02  0.24310279349E+02 -0.13967414735E+01  0.28659731401E+02  0.51100000000E-03 0.  1.
        -11    1    4    4    0    0 -0.11725109605E+01  0.99572634919E+00  0.37856422329E+01  0.40862379142E+01  0.51100000000E-03 0. -1.
         12    1    4    4    0    0 -0.24513596604E+01  0.13700733644E+02 -0.57027581497E+01  0.15041300379E+02  0.00000000000E+00 0. -1.
</event>
<event>
 8    1  0.4798632E-010  0.9118800E+02  0.7816164E-02  0.1184000E+00
        -11   -1    0    0    0    0  0.00000000000E+00  0.00000000000E+00  0.45593999997E+02  0.45594000000E+02  0.51100000000E-03 0. -1.
         11   -1    0    0    0    0 -0.00000000000E+00 -0.00000000000E+00 -0.45593999997E+02  0.45594000000E+02  0.51100000000E-03 0.  1.
         23    2    1    2    0    0  0.35527136788E-14  0.00000000000E+00  0.71054273576E-14  0.91188000000E+02  0.91188000000E+02 0.  0.
    9900012    2    3    3    0    0 -0.27774170322E+02 -0.50002695078E+01 -0.32972951144E+02  0.47787277202E+02  0.20000028077E+02 0.  0.
         12    1    3    3    0    0  0.27774170322E+02  0.50002695078E+01  0.32972951144E+02  0.43400722798E+02  0.00000000000E+00 0. -1.
         11    1    4    4    0    0 -0.13362712512E+02  0.34468414747E+01 -0.98138645893E+01  0.16933834187E+02  0.51100000000E-03 0. -1.
        -11    1    4    4    0    0 -0.10269446537E+02 -0.78293818148E+01 -0.23326308363E+02  0.26662284483E+02  0.51100000000E-03 0.  1.
        -12    1    4    4    0    0 -0.41420112727E+01 -0.61772916757E+00  0.16722180801E+00  0.41911585321E+01  0.00000000000E+00 0.  1.
</event>
<event>
 8    1  0.4798632E-010  0.9118800E+02  0.7816164E-02  0.1184000E+00
        -11   -1    0    0    0    0  0.00000000000E+00  0.00000000000E+00  0.45593999997E+02  0.45594000000E+02  0.51100000000E-03 0. -1.
         11   -1    0    0    0    0 -0.00000000000E+00 -0.00000000000E+00 -0.45593999997E+02  0.45594000000E+02  0.51100000000E-03 0.  1.
         23    2    1    2    0    0  0.35527136788E-14  0.00000000000E+00  0.35527136788E-14  0.91188000000E+02  0.91188000000E+02 0.  0.
    9900012    2    3    3    0    0  0.27176408711E+02 -0.19781632843E+02  0.27454559567E+02  0.47787273861E+02  0.20000012843E+02 0.  0.
        -12    1    3    3    0    0 -0.27176408711E+02  0.19781632843E+02 -0.27454559567E+02  0.43400726139E+02  0.00000000000E+00 0.  1.
         11    1    4    4    0    0  0.22280769106E+02 -0.18689550811E+02  0.24069410195E+02  0.37750079323E+02  0.51100000000E-03 0. -1.
        -11    1    4    4    0    0  0.45840091526E+01  0.23083475278E+01  0.40751398826E+01  0.65535008617E+01  0.51100000000E-03 0.  1.
         12    1    4    4    0    0  0.31163045240E+00 -0.34004295598E+01 -0.68999051060E+00  0.34836936769E+01  0.00000000000E+00 0. -1.
</event>
<event>
 8    1  0.4798632E-010  0.9118800E+02  0.7816164E-02  0.1184000E+00
        -11   -1    0    0    0    0  0.00000000000E+00  0.00000000000E+00  0.45593999997E+02  0.45594000000E+02  0.51100000000E-03 0. -1.
         11   -1    0    0    0    0 -0.00000000000E+00 -0.00000000000E+00 -0.45593999997E+02  0.45594000000E+02  0.51100000000E-03 0.  1.
         23    2    1    2    0    0  0.00000000000E+00 -0.17763568394E-14  0.71054273576E-14  0.91188000000E+02  0.91188000000E+02 0.  0.
    9900012    2    3    3    0    0 -0.19718023556E+02  0.11838441893E+02 -0.36805898860E+02  0.47787270164E+02  0.19999995985E+02 0.  0.
         12    1    3    3    0    0  0.19718023556E+02 -0.11838441893E+02  0.36805898860E+02  0.43400729836E+02  0.00000000000E+00 0. -1.
         11    1    4    4    0    0 -0.17974289474E+02  0.86494910265E+01 -0.21388531106E+02  0.29246504753E+02  0.51100000000E-03 0. -1.
        -11    1    4    4    0    0 -0.46622415538E+01  0.13347937494E+01 -0.13978167547E+02  0.14795517527E+02  0.51100000000E-03 0.  1.
         12    1    4    4    0    0  0.29185074715E+01  0.18541571167E+01 -0.14392002064E+01  0.37452478835E+01  0.00000000000E+00 0. -1.
</event>
<event>
 8    1  0.4798632E-010  0.9118800E+02  0.7816164E-02  0.1184000E+00
        -11   -1    0    0    0    0  0.00000000000E+00  0.00000000000E+00  0.45593999997E+02  0.45594000000E+02  0.51100000000E-03 0. -1.
         11   -1    0    0    0    0 -0.00000000000E+00 -0.00000000000E+00 -0.45593999997E+02  0.45594000000E+02  0.51100000000E-03 0.  1.
         23    2    1    2    0    0  0.44408920985E-15  0.71054273576E-14  0.35527136788E-14  0.91188000000E+02  0.91188000000E+02 0.  0.
    9900012    2    3    3    0    0 -0.25333162820E+01 -0.32220976182E+02 -0.28965753457E+02  0.47787264167E+02  0.19999968644E+02 0.  0.
         12    1    3    3    0    0  0.25333162820E+01  0.32220976182E+02  0.28965753457E+02  0.43400735833E+02  0.00000000000E+00 0. -1.
         11    1    4    4    0    0  0.48118558983E+01 -0.15128775407E+02 -0.18255082406E+02  0.24192598794E+02  0.51100000000E-03 0. -1.
        -11    1    4    4    0    0 -0.45165618293E+01 -0.28487238647E+01  0.33371511937E+00  0.53503200332E+01  0.51100000000E-03 0.  1.
        -12    1    4    4    0    0 -0.28286103509E+01 -0.14243476910E+02 -0.11044386170E+02  0.18244345340E+02  0.00000000000E+00 0.  1.
</event>
<event>
 8    1  0.4798632E-010  0.9118800E+02  0.7816164E-02  0.1184000E+00
        -11   -1    0    0    0    0  0.00000000000E+00  0.00000000000E+00  0.45593999997E+02  0.45594000000E+02  0.51100000000E-03 0.  1.
         11   -1    0    0    0    0 -0.00000000000E+00 -0.00000000000E+00 -0.45593999997E+02  0.45594000000E+02  0.51100000000E-03 0. -1.
         23    2    1    2    0    0  0.00000000000E+00  0.00000000000E+00  0.00000000000E+00  0.91188000000E+02  0.91188000000E+02 0.  0.
    9900012    2    3    3    0    0  0.19316372607E+02 -0.36135034215E+02 -0.14309448180E+02  0.47787271255E+02  0.20000000958E+02 0.  0.
         12    1    3    3    0    0 -0.19316372607E+02  0.36135034215E+02  0.14309448180E+02  0.43400728745E+02  0.00000000000E+00 0. -1.
         11    1    4    4    0    0  0.82652374424E+01 -0.97448279358E+01  0.43709557506E+01  0.13504853791E+02  0.51100000000E-03 0. -1.
        -11    1    4    4    0    0  0.81270752680E+01 -0.21993826688E+02 -0.14761981037E+02  0.27707288737E+02  0.51100000000E-03 0.  1.
         12    1    4    4    0    0  0.29240598963E+01 -0.43963795917E+01 -0.39184228941E+01  0.65751287264E+01  0.00000000000E+00 0. -1.
</event>
<event>
 8    1  0.4798632E-010  0.9118800E+02  0.7816164E-02  0.1184000E+00
        -11   -1    0    0    0    0  0.00000000000E+00  0.00000000000E+00  0.45593999997E+02  0.45594000000E+02  0.51100000000E-03 0. -1.
         11   -1    0    0    0    0 -0.00000000000E+00 -0.00000000000E+00 -0.45593999997E+02  0.45594000000E+02  0.51100000000E-03 0.  1.
         23    2    1    2    0    0  0.00000000000E+00  0.35527136788E-14  0.00000000000E+00  0.91188000000E+02  0.91188000000E+02 0.  0.
    9900012    2    3    3    0    0 -0.35885123708E+02  0.14413414128E+02 -0.19701154447E+02  0.47787261563E+02  0.19999956771E+02 0.  0.
         12    1    3    3    0    0  0.35885123708E+02 -0.14413414128E+02  0.19701154447E+02  0.43400738437E+02  0.00000000000E+00 0. -1.
         11    1    4    4    0    0 -0.82211462619E+01  0.22349549732E+00 -0.19951255489E+01  0.84627254661E+01  0.51100000000E-03 0. -1.
        -11    1    4    4    0    0 -0.24115130945E+01  0.50389686697E+01 -0.98771192645E+01  0.11347426399E+02  0.51100000000E-03 0.  1.
        -12    1    4    4    0    0 -0.25252464351E+02  0.91509499605E+01 -0.78289096335E+01  0.27977109698E+02  0.00000000000E+00 0.  1.
</event>
<event>
 8    1  0.4798632E-010  0.9118800E+02  0.7816164E-02  0.1184000E+00
        -11   -1    0    0    0    0  0.00000000000E+00  0.00000000000E+00  0.45593999997E+02  0.45594000000E+02  0.51100000000E-03 0. -1.
         11   -1    0    0    0    0 -0.00000000000E+00 -0.00000000000E+00 -0.45593999997E+02  0.45594000000E+02  0.51100000000E-03 0.  1.
         23    2    1    2    0    0  0.00000000000E+00  0.71054273576E-14  0.00000000000E+00  0.91188000000E+02  0.91188000000E+02 0.  0.
    9900012    2    3    3    0    0 -0.10578363944E+02 -0.41568134645E+02  0.66191885619E+01  0.47787248177E+02  0.19999895739E+02 0.  0.
        -12    1    3    3    0    0  0.10578363944E+02  0.41568134645E+02 -0.66191885619E+01  0.43400751823E+02  0.00000000000E+00 0.  1.
         11    1    4    4    0    0 -0.12617313617E+02 -0.24111926247E+02  0.99132806860E+01  0.28962988873E+02  0.51100000000E-03 0. -1.
        -11    1    4    4    0    0  0.24575708256E+01 -0.47902022268E+01 -0.29666906181E+01  0.61471086879E+01  0.51100000000E-03 0.  1.
         12    1    4    4    0    0 -0.41862115222E+00 -0.12666006171E+02 -0.32740150606E+00  0.12677150616E+02  0.00000000000E+00 0. -1.
</event>
<event>
 8    1  0.4798632E-010  0.9118800E+02  0.7816164E-02  0.1184000E+00
        -11   -1    0    0    0    0  0.00000000000E+00  0.00000000000E+00  0.45593999997E+02  0.45594000000E+02  0.51100000000E-03 0. -1.
         11   -1    0    0    0    0 -0.00000000000E+00 -0.00000000000E+00 -0.45593999997E+02  0.45594000000E+02  0.51100000000E-03 0.  1.
         23    2    1    2    0    0  0.88817841970E-15  0.00000000000E+00  0.71054273576E-14  0.91188000000E+02  0.91188000000E+02 0.  0.
    9900012    2    3    3    0    0 -0.62594960255E+01 -0.11943314549E+02  0.41252868594E+02  0.47787271663E+02  0.20000002823E+02 0.  0.
        -12    1    3    3    0    0  0.62594960255E+01  0.11943314549E+02 -0.41252868594E+02  0.43400728337E+02  0.00000000000E+00 0.  1.
         11    1    4    4    0    0 -0.59041007259E+00  0.26738017487E+01  0.14048560712E+02  0.14312926262E+02  0.51100000000E-03 0. -1.
        -11    1    4    4    0    0 -0.33531599037E+01 -0.12176663516E+02  0.10470513252E+02  0.16405683885E+02  0.51100000000E-03 0.  1.
         12    1    4    4    0    0 -0.23159260492E+01 -0.24404527818E+01  0.16733794630E+02  0.17068661517E+02  0.00000000000E+00 0. -1.
</event>
<event>
 8    1  0.4798632E-010  0.9118800E+02  0.7816164E-02  0.1184000E+00
        -11   -1    0    0    0    0  0.00000000000E+00  0.00000000000E+00  0.45593999997E+02  0.45594000000E+02  0.51100000000E-03 0. -1.
         11   -1    0    0    0    0 -0.00000000000E+00 -0.00000000000E+00 -0.45593999997E+02  0.45594000000E+02  0.51100000000E-03 0.  1.
         23    2    1    2    0    0  0.66613381478E-15  0.00000000000E+00  0.00000000000E+00  0.91188000000E+02  0.91188000000E+02 0.  0.
    9900012    2    3    3    0    0 -0.67101703475E+00  0.25431613749E+01  0.43320964921E+02  0.47787263425E+02  0.19999965258E+02 0.  0.
        -12    1    3    3    0    0  0.67101703475E+00 -0.25431613749E+01 -0.43320964921E+02  0.43400736575E+02  0.00000000000E+00 0.  1.
         11    1    4    4    0    0 -0.28047599322E+01  0.53258108610E+01  0.80015383634E+01  0.10012769649E+02  0.51100000000E-03 0. -1.
        -11    1    4    4    0    0  0.49014189958E-01 -0.78831979611E+01  0.21140936885E+02  0.22562943627E+02  0.51100000000E-03 0.  1.
         12    1    4    4    0    0  0.20847287075E+01  0.51005484750E+01  0.14178489672E+02  0.15211550148E+02  0.00000000000E+00 0. -1.
</event>
<event>
 8    1  0.4798632E-010  0.9118800E+02  0.7816164E-02  0.1184000E+00
        -11   -1    0    0    0    0  0.00000000000E+00  0.00000000000E+00  0.45593999997E+02  0.45594000000E+02  0.51100000000E-03 0. -1.
         11   -1    0    0    0    0 -0.00000000000E+00 -0.00000000000E+00 -0.45593999997E+02  0.45594000000E+02  0.51100000000E-03 0.  1.
         23    2    1    2    0    0  0.00000000000E+00  0.17763568394E-14 -0.17763568394E-14  0.91188000000E+02  0.91188000000E+02 0.  0.
    9900012    2    3    3    0    0 -0.38796516256E+02 -0.14951569738E+02 -0.12446043569E+02  0.47787272912E+02  0.20000008516E+02 0.  0.
         12    1    3    3    0    0  0.38796516256E+02  0.14951569738E+02  0.12446043569E+02  0.43400727088E+02  0.00000000000E+00 0. -1.
         11    1    4    4    0    0  0.19181530529E+00 -0.29524406415E+01  0.19959046085E+01  0.35689402237E+01  0.51100000000E-03 0. -1.
        -11    1    4    4    0    0 -0.36172791678E+02 -0.10730307544E+02 -0.10411745501E+02  0.39140960673E+02  0.51100000000E-03 0.  1.
        -12    1    4    4    0    0 -0.28155398829E+01 -0.12688215526E+01 -0.40302026768E+01  0.50773720152E+01  0.00000000000E+00 0.  1.
</event>
<event>
 8    1  0.4798632E-010  0.9118800E+02  0.7816164E-02  0.1184000E+00
        -11   -1    0    0    0    0  0.00000000000E+00  0.00000000000E+00  0.45593999997E+02  0.45594000000E+02  0.51100000000E-03 0. -1.
         11   -1    0    0    0    0 -0.00000000000E+00 -0.00000000000E+00 -0.45593999997E+02  0.45594000000E+02  0.51100000000E-03 0.  1.
         23    2    1    2    0    0  0.35527136788E-14  0.00000000000E+00  0.00000000000E+00  0.91188000000E+02  0.91188000000E+02 0.  0.
    9900012    2    3    3    0    0 -0.29122237235E+02  0.12167533379E+02 -0.29790424165E+02  0.47787274867E+02  0.20000017430E+02 0.  0.
         12    1    3    3    0    0  0.29122237235E+02 -0.12167533379E+02  0.29790424165E+02  0.43400725133E+02  0.00000000000E+00 0. -1.
         11    1    4    4    0    0 -0.21545901929E+02  0.99498438737E+01 -0.18676184405E+02  0.30199754092E+02  0.51100000000E-03 0. -1.
        -11    1    4    4    0    0 -0.39609361621E+01 -0.35289608607E+01 -0.98844123581E+00  0.53962576268E+01  0.51100000000E-03 0.  1.
        -12    1    4    4    0    0 -0.36153991441E+01  0.57466503662E+01 -0.10125798524E+02  0.12191263148E+02  0.00000000000E+00 0.  1.
</event>
<event>
 8    1  0.4798632E-010  0.9118800E+02  0.7816164E-02  0.1184000E+00
        -11   -1    0    0    0    0  0.00000000000E+00  0.00000000000E+00  0.45593999997E+02  0.45594000000E+02  0.51100000000E-03 0. -1.
         11   -1    0    0    0    0 -0.00000000000E+00 -0.00000000000E+00 -0.45593999997E+02  0.45594000000E+02  0.51100000000E-03 0.  1.
         23    2    1    2    0    0  0.00000000000E+00  0.00000000000E+00  0.00000000000E+00  0.91188000000E+02  0.91188000000E+02 0.  0.
    9900012    2    3    3    0    0  0.26811194938E+02  0.21430628868E+01 -0.34061569602E+02  0.47787269404E+02  0.19999992520E+02 0.  0.
         12    1    3    3    0    0 -0.26811194938E+02 -0.21430628868E+01  0.34061569602E+02  0.43400730596E+02  0.00000000000E+00 0. -1.
         11    1    4    4    0    0  0.23994829707E+01 -0.62256528984E+01 -0.82479435219E+01  0.10608715527E+02  0.51100000000E-03 0. -1.
        -11    1    4    4    0    0  0.12631870205E+02  0.50975276038E+01 -0.87593861194E+01  0.16194930627E+02  0.51100000000E-03 0.  1.
        -12    1    4    4    0    0  0.11779841762E+02  0.32711881813E+01 -0.17054239960E+02  0.20983623250E+02  0.00000000000E+00 0.  1.
</event>
<event>
 8    1  0.4798632E-010  0.9118800E+02  0.7816164E-02  0.1184000E+00
        -11   -1    0    0    0    0  0.00000000000E+00  0.00000000000E+00  0.45593999997E+02  0.45594000000E+02  0.51100000000E-03 0. -1.
         11   -1    0    0    0    0 -0.00000000000E+00 -0.00000000000E+00 -0.45593999997E+02  0.45594000000E+02  0.51100000000E-03 0.  1.
         23    2    1    2    0    0  0.88817841970E-15  0.00000000000E+00  0.00000000000E+00  0.91188000000E+02  0.91188000000E+02 0.  0.
    9900012    2    3    3    0    0 -0.67853175125E+01  0.26318194889E+02  0.33836890684E+02  0.47787273196E+02  0.20000009812E+02 0.  0.
        -12    1    3    3    0    0  0.67853175125E+01 -0.26318194889E+02 -0.33836890684E+02  0.43400726804E+02  0.00000000000E+00 0.  1.
         11    1    4    4    0    0 -0.95619443065E+01  0.49968115138E+01  0.14120409135E+02  0.17770336480E+02  0.51100000000E-03 0. -1.
        -11    1    4    4    0    0  0.19823271959E+01  0.19413406249E+02  0.14222953686E+02  0.24147512814E+02  0.51100000000E-03 0.  1.
        -12    1    4    4    0    0  0.79429959816E+00  0.19079771261E+01  0.54935278627E+01  0.58694239021E+01  0.00000000000E+00 0.  1.
</event>
<event>
 8    1  0.4798632E-010  0.9118800E+02  0.7816164E-02  0.1184000E+00
        -11   -1    0    0    0    0  0.00000000000E+00  0.00000000000E+00  0.45593999997E+02  0.45594000000E+02  0.51100000000E-03 0. -1.
         11   -1    0    0    0    0 -0.00000000000E+00 -0.00000000000E+00 -0.45593999997E+02  0.45594000000E+02  0.51100000000E-03 0.  1.
         23    2    1    2    0    0 -0.44408920985E-15  0.17763568394E-14  0.00000000000E+00  0.91188000000E+02  0.91188000000E+02 0.  0.
    9900012    2    3    3    0    0  0.25236807010E+01  0.10103212260E+02 -0.42132877996E+02  0.47787271084E+02  0.20000000179E+02 0.  0.
         12    1    3    3    0    0 -0.25236807010E+01 -0.10103212260E+02  0.42132877996E+02  0.43400728916E+02  0.00000000000E+00 0. -1.
         11    1    4    4    0    0  0.36163881817E+01 -0.60862494075E+00 -0.37731012228E+00  0.36866042625E+01  0.51100000000E-03 0. -1.
        -11    1    4    4    0    0 -0.32967752285E+01  0.90391554701E+01 -0.20269722070E+02  0.22437394937E+02  0.51100000000E-03 0.  1.
         12    1    4    4    0    0  0.22040677478E+01  0.16726817311E+01 -0.21485845804E+02  0.21663271884E+02  0.00000000000E+00 0. -1.
</event>
<event>
 8    1  0.4798632E-010  0.9118800E+02  0.7816164E-02  0.1184000E+00
        -11   -1    0    0    0    0  0.00000000000E+00  0.00000000000E+00  0.45593999997E+02  0.45594000000E+02  0.51100000000E-03 0. -1.
         11   -1    0    0    0    0 -0.00000000000E+00 -0.00000000000E+00 -0.45593999997E+02  0.45594000000E+02  0.51100000000E-03 0.  1.
         23    2    1    2    0    0 -0.35527136788E-14 -0.35527136788E-14  0.00000000000E+00  0.91188000000E+02  0.91188000000E+02 0.  0.
    9900012    2    3    3    0    0 -0.19856594926E+02 -0.19812736779E+02  0.33117887623E+02  0.47787269807E+02  0.19999994356E+02 0.  0.
        -12    1    3    3    0    0  0.19856594926E+02  0.19812736779E+02 -0.33117887623E+02  0.43400730193E+02  0.00000000000E+00 0.  1.
         11    1    4    4    0    0 -0.23096476015E+02 -0.19750047122E+02  0.28601510585E+02  0.41731977831E+02  0.51100000000E-03 0. -1.
        -11    1    4    4    0    0  0.19952332354E+01 -0.96159706727E+00  0.15132079339E+01  0.26824285817E+01  0.51100000000E-03 0.  1.
         12    1    4    4    0    0  0.12446478537E+01  0.89890741007E+00  0.30031691036E+01  0.33728633943E+01  0.00000000000E+00 0. -1.
</event>
<event>
 8    1  0.4798632E-010  0.9118800E+02  0.7816164E-02  0.1184000E+00
        -11   -1    0    0    0    0  0.00000000000E+00  0.00000000000E+00  0.45593999997E+02  0.45594000000E+02  0.51100000000E-03 0. -1.
         11   -1    0    0    0    0 -0.00000000000E+00 -0.00000000000E+00 -0.45593999997E+02  0.45594000000E+02  0.51100000000E-03 0.  1.
         23    2    1    2    0    0  0.00000000000E+00  0.00000000000E+00  0.00000000000E+00  0.91188000000E+02  0.91188000000E+02 0.  0.
    9900012    2    3    3    0    0  0.69825427186E+01 -0.13098274257E+02  0.40783607536E+02  0.47787270340E+02  0.19999996790E+02 0.  0.
        -12    1    3    3    0    0 -0.69825427186E+01  0.13098274257E+02 -0.40783607536E+02  0.43400729660E+02  0.00000000000E+00 0.  1.
         11    1    4    4    0    0  0.12922266153E+02 -0.85550825944E+01  0.32863608726E+02  0.36334435175E+02  0.51100000000E-03 0. -1.
        -11    1    4    4    0    0 -0.29711739464E+01 -0.12028440199E+01  0.12853235111E+01  0.34535148972E+01  0.51100000000E-03 0.  1.
         12    1    4    4    0    0 -0.29685494878E+01 -0.33403476428E+01  0.66346752987E+01  0.79993202683E+01  0.00000000000E+00 0. -1.
</event>
<event>
 8    1  0.4798632E-010  0.9118800E+02  0.7816164E-02  0.1184000E+00
        -11   -1    0    0    0    0  0.00000000000E+00  0.00000000000E+00  0.45593999997E+02  0.45594000000E+02  0.51100000000E-03 0. -1.
         11   -1    0    0    0    0 -0.00000000000E+00 -0.00000000000E+00 -0.45593999997E+02  0.45594000000E+02  0.51100000000E-03 0.  1.
         23    2    1    2    0    0  0.71054273576E-14 -0.44408920985E-15  0.35527136788E-14  0.91188000000E+02  0.91188000000E+02 0.  0.
    9900012    2    3    3    0    0 -0.36588376222E+02 -0.33755288555E+01 -0.23098047317E+02  0.47787271210E+02  0.20000000755E+02 0.  0.
         12    1    3    3    0    0  0.36588376222E+02  0.33755288555E+01  0.23098047317E+02  0.43400728790E+02  0.00000000000E+00 0. -1.
         11    1    4    4    0    0 -0.11795154570E+02 -0.47531591160E+00  0.92136036486E+00  0.11840629279E+02  0.51100000000E-03 0. -1.
        -11    1    4    4    0    0 -0.54077823164E+01 -0.44260876827E+01 -0.40650906920E+01  0.80845113861E+01  0.51100000000E-03 0.  1.
         12    1    4    4    0    0 -0.19385439336E+02  0.15258747388E+01 -0.19954316990E+02  0.27862130545E+02  0.00000000000E+00 0. -1.
</event>
<event>
 8    1  0.4798632E-010  0.9118800E+02  0.7816164E-02  0.1184000E+00
        -11   -1    0    0    0    0  0.00000000000E+00  0.00000000000E+00  0.45593999997E+02  0.45594000000E+02  0.51100000000E-03 0.  1.
         11   -1    0    0    0    0 -0.00000000000E+00 -0.00000000000E+00 -0.45593999997E+02  0.45594000000E+02  0.51100000000E-03 0. -1.
         23    2    1    2    0    0  0.00000000000E+00  0.00000000000E+00 -0.44408920985E-15  0.91188000000E+02  0.91188000000E+02 0.  0.
    9900012    2    3    3    0    0  0.42298931667E+02 -0.91209533835E+01  0.33513519963E+01  0.47787274534E+02  0.20000015909E+02 0.  0.
         12    1    3    3    0    0 -0.42298931667E+02  0.91209533835E+01 -0.33513519963E+01  0.43400725466E+02  0.00000000000E+00 0. -1.
         11    1    4    4    0    0  0.12269221267E+01 -0.14726309309E+01  0.30491627830E+01  0.36015793344E+01  0.51100000000E-03 0. -1.
        -11    1    4    4    0    0  0.36996282022E+02 -0.63734453432E+01 -0.44413511431E+01  0.37803059258E+02  0.51100000000E-03 0.  1.
        -12    1    4    4    0    0  0.40757275181E+01 -0.12748771095E+01  0.47435403564E+01  0.63826359413E+01  0.00000000000E+00 0.  1.
</event>
<event>
 8    1  0.4798632E-010  0.9118800E+02  0.7816164E-02  0.1184000E+00
        -11   -1    0    0    0    0  0.00000000000E+00  0.00000000000E+00  0.45593999997E+02  0.45594000000E+02  0.51100000000E-03 0. -1.
         11   -1    0    0    0    0 -0.00000000000E+00 -0.00000000000E+00 -0.45593999997E+02  0.45594000000E+02  0.51100000000E-03 0.  1.
         23    2    1    2    0    0  0.00000000000E+00  0.26645352591E-14  0.00000000000E+00  0.91188000000E+02  0.91188000000E+02 0.  0.
    9900012    2    3    3    0    0 -0.11049100647E+02  0.24108447707E+01 -0.41901413161E+02  0.47787271636E+02  0.20000002696E+02 0.  0.
         12    1    3    3    0    0  0.11049100647E+02 -0.24108447707E+01  0.41901413161E+02  0.43400728364E+02  0.00000000000E+00 0. -1.
         11    1    4    4    0    0 -0.71376733718E+01 -0.68566768519E+01 -0.91131932740E+01  0.13454021351E+02  0.51100000000E-03 0. -1.
        -11    1    4    4    0    0 -0.14938805011E+01  0.40218151945E+01 -0.16599807447E+02  0.17145270017E+02  0.51100000000E-03 0.  1.
         12    1    4    4    0    0 -0.24175467740E+01  0.52457064282E+01 -0.16188412440E+02  0.17187980267E+02  0.00000000000E+00 0. -1.
</event>
<event>
 8    1  0.4798632E-010  0.9118800E+02  0.7816164E-02  0.1184000E+00
        -11   -1    0    0    0    0  0.00000000000E+00  0.00000000000E+00  0.45593999997E+02  0.45594000000E+02  0.51100000000E-03 0. -1.
         11   -1    0    0    0    0 -0.00000000000E+00 -0.00000000000E+00 -0.45593999997E+02  0.45594000000E+02  0.51100000000E-03 0.  1.
         23    2    1    2    0    0  0.35527136788E-14  0.17763568394E-14  0.00000000000E+00  0.91188000000E+02  0.91188000000E+02 0.  0.
    9900012    2    3    3    0    0  0.21095556912E+02  0.10293189790E+02  0.36505443465E+02  0.47787312447E+02  0.20000188770E+02 0.  0.
        -12    1    3    3    0    0 -0.21095556912E+02 -0.10293189790E+02 -0.36505443465E+02  0.43400687553E+02  0.00000000000E+00 0.  1.
         11    1    4    4    0    0  0.55229637458E+01  0.98988382668E+01  0.85944702819E+01  0.14225155439E+02  0.51100000000E-03 0.  1.
        -11    1    4    4    0    0  0.26959183863E+01 -0.17985074811E+01  0.14436298819E+02  0.14795584779E+02  0.51100000000E-03 0. -1.
         12    1    4    4    0    0  0.12876674780E+02  0.21928590045E+01  0.13474674364E+02  0.18766572229E+02  0.00000000000E+00 0. -1.
</event>
<event>
 8    1  0.4798632E-010  0.9118800E+02  0.7816164E-02  0.1184000E+00
        -11   -1    0    0    0    0  0.00000000000E+00  0.00000000000E+00  0.45593999997E+02  0.45594000000E+02  0.51100000000E-03 0. -1.
         11   -1    0    0    0    0 -0.00000000000E+00 -0.00000000000E+00 -0.45593999997E+02  0.45594000000E+02  0.51100000000E-03 0.  1.
         23    2    1    2    0    0 -0.35527136788E-14 -0.35527136788E-14  0.00000000000E+00  0.91188000000E+02  0.91188000000E+02 0.  0.
    9900012    2    3    3    0    0  0.30849785370E+02  0.16410774470E+02  0.25741010102E+02  0.47787281375E+02  0.20000047102E+02 0.  0.
        -12    1    3    3    0    0 -0.30849785370E+02 -0.16410774470E+02 -0.25741010102E+02  0.43400718625E+02  0.00000000000E+00 0.  1.
         11    1    4    4    0    0  0.84347545924E+01  0.96495507326E+01  0.26736421632E+01  0.13092260196E+02  0.51100000000E-03 0. -1.
        -11    1    4    4    0    0  0.13021930020E+02 -0.18668810437E+01  0.12102616628E+02  0.17875380717E+02  0.51100000000E-03 0.  1.
        -12    1    4    4    0    0  0.93931007580E+01  0.86281047808E+01  0.10964751311E+02  0.16819640462E+02  0.00000000000E+00 0.  1.
</event>
<event>
 8    1  0.4798632E-010  0.9118800E+02  0.7816164E-02  0.1184000E+00
        -11   -1    0    0    0    0  0.00000000000E+00  0.00000000000E+00  0.45593999997E+02  0.45594000000E+02  0.51100000000E-03 0. -1.
         11   -1    0    0    0    0 -0.00000000000E+00 -0.00000000000E+00 -0.45593999997E+02  0.45594000000E+02  0.51100000000E-03 0.  1.
         23    2    1    2    0    0  0.00000000000E+00  0.00000000000E+00  0.00000000000E+00  0.91188000000E+02  0.91188000000E+02 0.  0.
    9900012    2    3    3    0    0 -0.25597029632E+01  0.32304225294E+02 -0.28870534256E+02  0.47787276511E+02  0.20000024926E+02 0.  0.
         12    1    3    3    0    0  0.25597029632E+01 -0.32304225294E+02  0.28870534256E+02  0.43400723489E+02  0.00000000000E+00 0. -1.
         11    1    4    4    0    0 -0.95053708048E+00  0.11024526412E+01  0.40911591930E+00  0.15120511446E+01  0.51100000000E-03 0. -1.
        -11    1    4    4    0    0 -0.49753752694E+01  0.91038434184E+00 -0.64417672424E+01  0.81902090443E+01  0.51100000000E-03 0.  1.
        -12    1    4    4    0    0  0.33662093868E+01  0.30291388311E+02 -0.22837882933E+02  0.38085016323E+02  0.00000000000E+00 0.  1.
</event>
<event>
 8    1  0.4798632E-010  0.9118800E+02  0.7816164E-02  0.1184000E+00
        -11   -1    0    0    0    0  0.00000000000E+00  0.00000000000E+00  0.45593999997E+02  0.45594000000E+02  0.51100000000E-03 0. -1.
         11   -1    0    0    0    0 -0.00000000000E+00 -0.00000000000E+00 -0.45593999997E+02  0.45594000000E+02  0.51100000000E-03 0.  1.
         23    2    1    2    0    0  0.00000000000E+00  0.00000000000E+00  0.35527136788E-14  0.91188000000E+02  0.91188000000E+02 0.  0.
    9900012    2    3    3    0    0 -0.26025812311E+02 -0.14227696410E+02 -0.31683641708E+02  0.47787269552E+02  0.19999993195E+02 0.  0.
         12    1    3    3    0    0  0.26025812311E+02  0.14227696410E+02  0.31683641708E+02  0.43400730448E+02  0.00000000000E+00 0. -1.
         11    1    4    4    0    0 -0.18363527436E+02 -0.48561394124E+01 -0.24358156494E+02  0.30888849411E+02  0.51100000000E-03 0. -1.
        -11    1    4    4    0    0 -0.65012256877E+01 -0.11068275936E+02 -0.49523776700E+01  0.13758586864E+02  0.51100000000E-03 0.  1.
         12    1    4    4    0    0 -0.11610591869E+01  0.16967189386E+01 -0.23731075434E+01  0.31398332765E+01  0.00000000000E+00 0. -1.
</event>
<event>
 8    1  0.4798632E-010  0.9118800E+02  0.7816164E-02  0.1184000E+00
        -11   -1    0    0    0    0  0.00000000000E+00  0.00000000000E+00  0.45593999997E+02  0.45594000000E+02  0.51100000000E-03 0. -1.
         11   -1    0    0    0    0 -0.00000000000E+00 -0.00000000000E+00 -0.45593999997E+02  0.45594000000E+02  0.51100000000E-03 0.  1.
         23    2    1    2    0    0  0.00000000000E+00  0.00000000000E+00  0.00000000000E+00  0.91188000000E+02  0.91188000000E+02 0.  0.
    9900012    2    3    3    0    0  0.31744421162E+02 -0.20471707242E+01  0.29524976221E+02  0.47787269548E+02  0.19999993179E+02 0.  0.
        -12    1    3    3    0    0 -0.31744421162E+02  0.20471707242E+01 -0.29524976221E+02  0.43400730452E+02  0.00000000000E+00 0.  1.
         11    1    4    4    0    0  0.25038912461E+02  0.19614626782E+01  0.21875883634E+02  0.33306887547E+02  0.51100000000E-03 0. -1.
        -11    1    4    4    0    0 -0.12770131543E+00 -0.23454671150E+01  0.70397947236E+01  0.74213363774E+01  0.51100000000E-03 0.  1.
        -12    1    4    4    0    0  0.68332100166E+01 -0.16631662874E+01  0.60929786305E+00  0.70590456236E+01  0.00000000000E+00 0.  1.
</event>
<event>
 8    1  0.4798632E-010  0.9118800E+02  0.7816164E-02  0.1184000E+00
        -11   -1    0    0    0    0  0.00000000000E+00  0.00000000000E+00  0.45593999997E+02  0.45594000000E+02  0.51100000000E-03 0. -1.
         11   -1    0    0    0    0 -0.00000000000E+00 -0.00000000000E+00 -0.45593999997E+02  0.45594000000E+02  0.51100000000E-03 0.  1.
         23    2    1    2    0    0  0.00000000000E+00  0.44408920985E-15  0.00000000000E+00  0.91188000000E+02  0.91188000000E+02 0.  0.
    9900012    2    3    3    0    0  0.16409510527E+02  0.30289644044E+01  0.40064653879E+02  0.47787272454E+02  0.20000006426E+02 0.  0.
        -12    1    3    3    0    0 -0.16409510527E+02 -0.30289644044E+01 -0.40064653879E+02  0.43400727546E+02  0.00000000000E+00 0.  1.
         11    1    4    4    0    0  0.59050725221E+01 -0.11138568520E+01  0.73188134903E+01  0.94697196234E+01  0.51100000000E-03 0. -1.
        -11    1    4    4    0    0  0.36654195286E+01  0.46697360309E+01  0.12282674777E+01  0.60622088530E+01  0.51100000000E-03 0.  1.
        -12    1    4    4    0    0  0.68390184761E+01 -0.52691477451E+00  0.31517572911E+02  0.32255343977E+02  0.00000000000E+00 0.  1.
</event>
<event>
 8    1  0.4798632E-010  0.9118800E+02  0.7816164E-02  0.1184000E+00
        -11   -1    0    0    0    0  0.00000000000E+00  0.00000000000E+00  0.45593999997E+02  0.45594000000E+02  0.51100000000E-03 0. -1.
         11   -1    0    0    0    0 -0.00000000000E+00 -0.00000000000E+00 -0.45593999997E+02  0.45594000000E+02  0.51100000000E-03 0.  1.
         23    2    1    2    0    0  0.00000000000E+00  0.00000000000E+00 -0.71054273576E-14  0.91188000000E+02  0.91188000000E+02 0.  0.
    9900012    2    3    3    0    0 -0.80095567831E+01  0.12248861567E+02  0.40858734813E+02  0.47787264752E+02  0.19999971309E+02 0.  0.
        -12    1    3    3    0    0  0.80095567831E+01 -0.12248861567E+02 -0.40858734813E+02  0.43400735248E+02  0.00000000000E+00 0.  1.
         11    1    4    4    0    0 -0.56726117387E+01  0.15153541847E+02  0.31870679250E+02  0.35742811173E+02  0.51100000000E-03 0. -1.
        -11    1    4    4    0    0 -0.47528816474E+01 -0.20966820963E+01  0.74040862844E+01  0.90446920199E+01  0.51100000000E-03 0.  1.
         12    1    4    4    0    0  0.24159366030E+01 -0.80799818293E+00  0.15839692783E+01  0.29997615585E+01  0.00000000000E+00 0. -1.
</event>
<event>
 8    1  0.4798632E-010  0.9118800E+02  0.7816164E-02  0.1184000E+00
        -11   -1    0    0    0    0  0.00000000000E+00  0.00000000000E+00  0.45593999997E+02  0.45594000000E+02  0.51100000000E-03 0. -1.
         11   -1    0    0    0    0 -0.00000000000E+00 -0.00000000000E+00 -0.45593999997E+02  0.45594000000E+02  0.51100000000E-03 0.  1.
         23    2    1    2    0    0  0.35527136788E-14  0.00000000000E+00  0.00000000000E+00  0.91188000000E+02  0.91188000000E+02 0.  0.
    9900012    2    3    3    0    0  0.17250095535E+02 -0.32912554573E+02  0.22423661085E+02  0.47787278567E+02  0.20000034298E+02 0.  0.
        -12    1    3    3    0    0 -0.17250095535E+02  0.32912554573E+02 -0.22423661085E+02  0.43400721433E+02  0.00000000000E+00 0.  1.
         11    1    4    4    0    0  0.13128938703E+02 -0.19478675788E+02  0.21925115354E+02  0.32132515082E+02  0.51100000000E-03 0. -1.
        -11    1    4    4    0    0 -0.49204482116E-01 -0.20088389340E+01 -0.24215934447E+01  0.31467395851E+01  0.51100000000E-03 0.  1.
         12    1    4    4    0    0  0.41703613137E+01 -0.11425039851E+02  0.29201391752E+01  0.12508023900E+02  0.00000000000E+00 0. -1.
</event>
<event>
 8    1  0.4798632E-010  0.9118800E+02  0.7816164E-02  0.1184000E+00
        -11   -1    0    0    0    0  0.00000000000E+00  0.00000000000E+00  0.45593999997E+02  0.45594000000E+02  0.51100000000E-03 0. -1.
         11   -1    0    0    0    0 -0.00000000000E+00 -0.00000000000E+00 -0.45593999997E+02  0.45594000000E+02  0.51100000000E-03 0.  1.
         23    2    1    2    0    0  0.00000000000E+00  0.17763568394E-14 -0.71054273576E-14  0.91188000000E+02  0.91188000000E+02 0.  0.
    9900012    2    3    3    0    0  0.13657291357E+01  0.13176048783E+02 -0.41329768326E+02  0.47787271579E+02  0.20000002436E+02 0.  0.
         12    1    3    3    0    0 -0.13657291357E+01 -0.13176048783E+02  0.41329768326E+02  0.43400728421E+02  0.00000000000E+00 0. -1.
         11    1    4    4    0    0 -0.67110729201E+01 -0.21870006367E+00 -0.10674442287E+02  0.12610711632E+02  0.51100000000E-03 0. -1.
        -11    1    4    4    0    0  0.35753128794E+01  0.10630334356E+01 -0.10306244453E+02  0.10960455157E+02  0.51100000000E-03 0.  1.
         12    1    4    4    0    0  0.45014891764E+01  0.12331715411E+02 -0.20349081586E+02  0.24216104790E+02  0.00000000000E+00 0. -1.
</event>
<event>
 8    1  0.4798632E-010  0.9118800E+02  0.7816164E-02  0.1184000E+00
        -11   -1    0    0    0    0  0.00000000000E+00  0.00000000000E+00  0.45593999997E+02  0.45594000000E+02  0.51100000000E-03 0. -1.
         11   -1    0    0    0    0 -0.00000000000E+00 -0.00000000000E+00 -0.45593999997E+02  0.45594000000E+02  0.51100000000E-03 0.  1.
         23    2    1    2    0    0  0.00000000000E+00  0.00000000000E+00  0.00000000000E+00  0.91188000000E+02  0.91188000000E+02 0.  0.
    9900012    2    3    3    0    0 -0.22059288518E+02 -0.35945518272E+02 -0.10243567689E+02  0.47787272209E+02  0.20000005310E+02 0.  0.
         12    1    3    3    0    0  0.22059288518E+02  0.35945518272E+02  0.10243567689E+02  0.43400727791E+02  0.00000000000E+00 0. -1.
         11    1    4    4    0    0 -0.43806347458E+01 -0.21408018905E+01 -0.64019492440E+01  0.80472323126E+01  0.51100000000E-03 0. -1.
        -11    1    4    4    0    0 -0.54766088900E+01 -0.21630432325E+02 -0.24567851622E+01  0.22447820408E+02  0.51100000000E-03 0.  1.
        -12    1    4    4    0    0 -0.12202044883E+02 -0.12174284057E+02 -0.13848332833E+01  0.17292219488E+02  0.00000000000E+00 0.  1.
</event>
<event>
 8    1  0.4798632E-010  0.9118800E+02  0.7816164E-02  0.1184000E+00
        -11   -1    0    0    0    0  0.00000000000E+00  0.00000000000E+00  0.45593999997E+02  0.45594000000E+02  0.51100000000E-03 0. -1.
         11   -1    0    0    0    0 -0.00000000000E+00 -0.00000000000E+00 -0.45593999997E+02  0.45594000000E+02  0.51100000000E-03 0.  1.
         23    2    1    2    0    0  0.00000000000E+00  0.17763568394E-14  0.00000000000E+00  0.91188000000E+02  0.91188000000E+02 0.  0.
    9900012    2    3    3    0    0  0.21826424306E+02 -0.14811855655E+02 -0.34465022075E+02  0.47787290184E+02  0.20000087263E+02 0.  0.
         12    1    3    3    0    0 -0.21826424306E+02  0.14811855655E+02  0.34465022075E+02  0.43400709816E+02  0.00000000000E+00 0. -1.
         11    1    4    4    0    0  0.63340104442E+01  0.25357845276E+01 -0.17605610779E+01  0.70462377939E+01  0.51100000000E-03 0. -1.
        -11    1    4    4    0    0  0.96313706822E+01 -0.13506071060E+02 -0.18157690185E+02  0.24594287341E+02  0.51100000000E-03 0.  1.
        -12    1    4    4    0    0  0.58610431799E+01 -0.38415691227E+01 -0.14546770812E+02  0.16146765048E+02  0.00000000000E+00 0.  1.
</event>
<event>
 8    1  0.4798632E-010  0.9118800E+02  0.7816164E-02  0.1184000E+00
        -11   -1    0    0    0    0  0.00000000000E+00  0.00000000000E+00  0.45593999997E+02  0.45594000000E+02  0.51100000000E-03 0. -1.
         11   -1    0    0    0    0 -0.00000000000E+00 -0.00000000000E+00 -0.45593999997E+02  0.45594000000E+02  0.51100000000E-03 0.  1.
         23    2    1    2    0    0  0.00000000000E+00  0.88817841970E-15  0.00000000000E+00  0.91188000000E+02  0.91188000000E+02 0.  0.
    9900012    2    3    3    0    0 -0.18609726655E+02  0.53218139054E+01  0.38845585351E+02  0.47787272694E+02  0.20000007521E+02 0.  0.
        -12    1    3    3    0    0  0.18609726655E+02 -0.53218139054E+01 -0.38845585351E+02  0.43400727306E+02  0.00000000000E+00 0.  1.
         11    1    4    4    0    0 -0.46150419960E+01  0.93485225632E+01  0.17103904067E+02  0.20030901660E+02  0.51100000000E-03 0. -1.
        -11    1    4    4    0    0 -0.13305747985E+02 -0.33140919284E+01  0.12794142345E+02  0.18754098575E+02  0.51100000000E-03 0.  1.
         12    1    4    4    0    0 -0.68893667350E+00 -0.71261672941E+00  0.89475389397E+01  0.90022724587E+01  0.00000000000E+00 0. -1.
</event>
<event>
 8    1  0.4798632E-010  0.9118800E+02  0.7816164E-02  0.1184000E+00
        -11   -1    0    0    0    0  0.00000000000E+00  0.00000000000E+00  0.45593999997E+02  0.45594000000E+02  0.51100000000E-03 0. -1.
         11   -1    0    0    0    0 -0.00000000000E+00 -0.00000000000E+00 -0.45593999997E+02  0.45594000000E+02  0.51100000000E-03 0.  1.
         23    2    1    2    0    0  0.00000000000E+00  0.00000000000E+00  0.00000000000E+00  0.91188000000E+02  0.91188000000E+02 0.  0.
    9900012    2    3    3    0    0  0.42649168789E+02  0.74980112270E+01 -0.29071375650E+01  0.47787271670E+02  0.20000002852E+02 0.  0.
        -12    1    3    3    0    0 -0.42649168789E+02 -0.74980112270E+01  0.29071375650E+01  0.43400728330E+02  0.00000000000E+00 0.  1.
         11    1    4    4    0    0  0.34861829013E+02  0.69937867883E+01 -0.24148224551E+01  0.35638343725E+02  0.51100000000E-03 0. -1.
        -11    1    4    4    0    0  0.99055199842E+01 -0.16783800211E+00 -0.21328398684E+00  0.99092374113E+01  0.51100000000E-03 0.  1.
         12    1    4    4    0    0 -0.21181802077E+01  0.67206244084E+00 -0.27903112300E+00  0.22396905332E+01  0.00000000000E+00 0. -1.
</event>
<event>
 8    1  0.4798632E-010  0.9118800E+02  0.7816164E-02  0.1184000E+00
        -11   -1    0    0    0    0  0.00000000000E+00  0.00000000000E+00  0.45593999997E+02  0.45594000000E+02  0.51100000000E-03 0. -1.
         11   -1    0    0    0    0 -0.00000000000E+00 -0.00000000000E+00 -0.45593999997E+02  0.45594000000E+02  0.51100000000E-03 0.  1.
         23    2    1    2    0    0  0.00000000000E+00 -0.17763568394E-14  0.00000000000E+00  0.91188000000E+02  0.91188000000E+02 0.  0.
    9900012    2    3    3    0    0 -0.26215462662E+02  0.83653840932E+01  0.33561783167E+02  0.47787269327E+02  0.19999992169E+02 0.  0.
        -12    1    3    3    0    0  0.26215462662E+02 -0.83653840932E+01 -0.33561783167E+02  0.43400730673E+02  0.00000000000E+00 0.  1.
         11    1    4    4    0    0 -0.70037707909E+01 -0.25869178276E+00  0.37912001676E+01  0.79682448320E+01  0.51100000000E-03 0. -1.
        -11    1    4    4    0    0 -0.26688552526E+01 -0.44978587474E+01  0.73487684062E+01  0.90198624724E+01  0.51100000000E-03 0.  1.
        -12    1    4    4    0    0 -0.16542836618E+02  0.13121934623E+02  0.22421814593E+02  0.30799162023E+02  0.00000000000E+00 0.  1.
</event>
<event>
 8    1  0.4798632E-010  0.9118800E+02  0.7816164E-02  0.1184000E+00
        -11   -1    0    0    0    0  0.00000000000E+00  0.00000000000E+00  0.45593999997E+02  0.45594000000E+02  0.51100000000E-03 0.  1.
         11   -1    0    0    0    0 -0.00000000000E+00 -0.00000000000E+00 -0.45593999997E+02  0.45594000000E+02  0.51100000000E-03 0. -1.
         23    2    1    2    0    0  0.00000000000E+00  0.00000000000E+00 -0.44408920985E-15  0.91188000000E+02  0.91188000000E+02 0.  0.
    9900012    2    3    3    0    0 -0.42829835104E+02  0.68216717389E+01  0.16411925272E+01  0.47787268517E+02  0.19999988477E+02 0.  0.
        -12    1    3    3    0    0  0.42829835104E+02 -0.68216717389E+01 -0.16411925272E+01  0.43400731483E+02  0.00000000000E+00 0.  1.
         11    1    4    4    0    0 -0.67772974780E+00 -0.11545365036E+01 -0.93707698214E+00  0.16341314760E+01  0.51100000000E-03 0. -1.
        -11    1    4    4    0    0 -0.17846222504E+02 -0.12981487269E+01  0.79650813903E+01  0.19586101440E+02  0.51100000000E-03 0.  1.
        -12    1    4    4    0    0 -0.24305882852E+02  0.92743569694E+01 -0.53868118809E+01  0.26567035601E+02  0.00000000000E+00 0.  1.
</event>
<event>
 8    1  0.4798632E-010  0.9118800E+02  0.7816164E-02  0.1184000E+00
        -11   -1    0    0    0    0  0.00000000000E+00  0.00000000000E+00  0.45593999997E+02  0.45594000000E+02  0.51100000000E-03 0.  1.
         11   -1    0    0    0    0 -0.00000000000E+00 -0.00000000000E+00 -0.45593999997E+02  0.45594000000E+02  0.51100000000E-03 0. -1.
         23    2    1    2    0    0 -0.71054273576E-14  0.00000000000E+00  0.00000000000E+00  0.91188000000E+02  0.91188000000E+02 0.  0.
    9900012    2    3    3    0    0  0.32120421041E+02 -0.27065008524E+02  0.10926453156E+02  0.47787268292E+02  0.19999987451E+02 0.  0.
         12    1    3    3    0    0 -0.32120421041E+02  0.27065008524E+02 -0.10926453156E+02  0.43400731708E+02  0.00000000000E+00 0. -1.
         11    1    4    4    0    0  0.15382202977E+02 -0.43235631789E+01  0.10380771779E+02  0.19054285344E+02  0.51100000000E-03 0. -1.
        -11    1    4    4    0    0  0.16324210838E+02 -0.22983623078E+02  0.29645162452E+00  0.28192457735E+02  0.51100000000E-03 0.  1.
        -12    1    4    4    0    0  0.41400722543E+00  0.24217773299E+00  0.24922975244E+00  0.54052521363E+00  0.00000000000E+00 0.  1.
</event>
<event>
 8    1  0.4798632E-010  0.9118800E+02  0.7816164E-02  0.1184000E+00
        -11   -1    0    0    0    0  0.00000000000E+00  0.00000000000E+00  0.45593999997E+02  0.45594000000E+02  0.51100000000E-03 0. -1.
         11   -1    0    0    0    0 -0.00000000000E+00 -0.00000000000E+00 -0.45593999997E+02  0.45594000000E+02  0.51100000000E-03 0.  1.
         23    2    1    2    0    0  0.71054273576E-14 -0.17763568394E-14  0.00000000000E+00  0.91188000000E+02  0.91188000000E+02 0.  0.
    9900012    2    3    3    0    0  0.20058286595E+02 -0.15971156907E+02 -0.35017290796E+02  0.47787269951E+02  0.19999995016E+02 0.  0.
         12    1    3    3    0    0 -0.20058286595E+02  0.15971156907E+02  0.35017290796E+02  0.43400730049E+02  0.00000000000E+00 0. -1.
         11    1    4    4    0    0  0.35611279625E+01 -0.61681992405E+01 -0.16006183696E+02  0.17519310232E+02  0.51100000000E-03 0.  1.
        -11    1    4    4    0    0  0.81509768351E+01  0.17633968789E+01 -0.30933945120E+01  0.88947783439E+01  0.51100000000E-03 0. -1.
         12    1    4    4    0    0  0.83461817973E+01 -0.11566354546E+02 -0.15917712588E+02  0.21373181375E+02  0.00000000000E+00 0. -1.
</event>
<event>
 8    1  0.4798632E-010  0.9118800E+02  0.7816164E-02  0.1184000E+00
        -11   -1    0    0    0    0  0.00000000000E+00  0.00000000000E+00  0.45593999997E+02  0.45594000000E+02  0.51100000000E-03 0. -1.
         11   -1    0    0    0    0 -0.00000000000E+00 -0.00000000000E+00 -0.45593999997E+02  0.45594000000E+02  0.51100000000E-03 0.  1.
         23    2    1    2    0    0  0.00000000000E+00  0.17763568394E-14  0.35527136788E-14  0.91188000000E+02  0.91188000000E+02 0.  0.
    9900012    2    3    3    0    0  0.32338975006E+02 -0.14848772334E+02  0.24846132002E+02  0.47787244019E+02  0.19999876781E+02 0.  0.
        -12    1    3    3    0    0 -0.32338975006E+02  0.14848772334E+02 -0.24846132002E+02  0.43400755981E+02  0.00000000000E+00 0.  1.
         11    1    4    4    0    0  0.15194008365E+02 -0.37128109006E+01  0.11710653217E+02  0.19539249064E+02  0.51100000000E-03 0. -1.
        -11    1    4    4    0    0  0.35966218718E+01 -0.21353506749E+01 -0.31459616673E+01  0.52337831887E+01  0.51100000000E-03 0.  1.
        -12    1    4    4    0    0  0.13548344769E+02 -0.90006107587E+01  0.16281440452E+02  0.23014211766E+02  0.00000000000E+00 0.  1.
</event>
<event>
 8    1  0.4798632E-010  0.9118800E+02  0.7816164E-02  0.1184000E+00
        -11   -1    0    0    0    0  0.00000000000E+00  0.00000000000E+00  0.45593999997E+02  0.45594000000E+02  0.51100000000E-03 0. -1.
         11   -1    0    0    0    0 -0.00000000000E+00 -0.00000000000E+00 -0.45593999997E+02  0.45594000000E+02  0.51100000000E-03 0.  1.
         23    2    1    2    0    0  0.00000000000E+00  0.00000000000E+00  0.00000000000E+00  0.91188000000E+02  0.91188000000E+02 0.  0.
    9900012    2    3    3    0    0 -0.14065692520E+02 -0.17006240904E+02 -0.37370668544E+02  0.47787276467E+02  0.20000024725E+02 0.  0.
         12    1    3    3    0    0  0.14065692520E+02  0.17006240904E+02  0.37370668544E+02  0.43400723533E+02  0.00000000000E+00 0. -1.
         11    1    4    4    0    0 -0.71308714798E+01 -0.99638476526E+01 -0.58543736890E+01  0.13579443275E+02  0.51100000000E-03 0. -1.
        -11    1    4    4    0    0 -0.60251278097E+00 -0.23443405297E+01 -0.20600179036E+02  0.20741897954E+02  0.51100000000E-03 0.  1.
        -12    1    4    4    0    0 -0.63323082587E+01 -0.46980527212E+01 -0.10916115819E+02  0.13465935238E+02  0.00000000000E+00 0.  1.
</event>
<event>
 8    1  0.4798632E-010  0.9118800E+02  0.7816164E-02  0.1184000E+00
        -11   -1    0    0    0    0  0.00000000000E+00  0.00000000000E+00  0.45593999997E+02  0.45594000000E+02  0.51100000000E-03 0.  1.
         11   -1    0    0    0    0 -0.00000000000E+00 -0.00000000000E+00 -0.45593999997E+02  0.45594000000E+02  0.51100000000E-03 0. -1.
         23    2    1    2    0    0  0.35527136788E-14  0.00000000000E+00  0.17763568394E-14  0.91188000000E+02  0.91188000000E+02 0.  0.
    9900012    2    3    3    0    0 -0.21966631713E+02  0.34528011918E+02  0.14453597142E+02  0.47787274359E+02  0.20000015112E+02 0.  0.
        -12    1    3    3    0    0  0.21966631713E+02 -0.34528011918E+02 -0.14453597142E+02  0.43400725641E+02  0.00000000000E+00 0.  1.
         11    1    4    4    0    0 -0.11571605376E+02  0.55968932009E+01  0.19391044606E+01  0.12999515024E+02  0.51100000000E-03 0. -1.
        -11    1    4    4    0    0 -0.26802378081E+01  0.43243843882E+00  0.22623765889E+01  0.35339815793E+01  0.51100000000E-03 0.  1.
         12    1    4    4    0    0 -0.77147885288E+01  0.28498680278E+02  0.10252116092E+02  0.31253777756E+02  0.00000000000E+00 0. -1.
</event>
<event>
 8    1  0.4798632E-010  0.9118800E+02  0.7816164E-02  0.1184000E+00
        -11   -1    0    0    0    0  0.00000000000E+00  0.00000000000E+00  0.45593999997E+02  0.45594000000E+02  0.51100000000E-03 0. -1.
         11   -1    0    0    0    0 -0.00000000000E+00 -0.00000000000E+00 -0.45593999997E+02  0.45594000000E+02  0.51100000000E-03 0.  1.
         23    2    1    2    0    0 -0.35527136788E-14  0.00000000000E+00 -0.35527136788E-14  0.91188000000E+02  0.91188000000E+02 0.  0.
    9900012    2    3    3    0    0 -0.19737228336E+02  0.30827310778E+02 -0.23318274835E+02  0.47787271740E+02  0.20000003172E+02 0.  0.
         12    1    3    3    0    0  0.19737228336E+02 -0.30827310778E+02  0.23318274835E+02  0.43400728260E+02  0.00000000000E+00 0. -1.
         11    1    4    4    0    0 -0.86622335367E+01  0.24906397815E+02 -0.12552590978E+02  0.29204973592E+02  0.51100000000E-03 0. -1.
        -11    1    4    4    0    0 -0.70340967433E+01  0.44029739839E+01 -0.16004072716E+01  0.84513904532E+01  0.51100000000E-03 0.  1.
         12    1    4    4    0    0 -0.40408980560E+01  0.15179389790E+01 -0.91652765852E+01  0.10130907695E+02  0.00000000000E+00 0. -1.
</event>
<event>
 8    1  0.4798632E-010  0.9118800E+02  0.7816164E-02  0.1184000E+00
        -11   -1    0    0    0    0  0.00000000000E+00  0.00000000000E+00  0.45593999997E+02  0.45594000000E+02  0.51100000000E-03 0.  1.
         11   -1    0    0    0    0 -0.00000000000E+00 -0.00000000000E+00 -0.45593999997E+02  0.45594000000E+02  0.51100000000E-03 0. -1.
         23    2    1    2    0    0  0.35527136788E-14  0.00000000000E+00 -0.71054273576E-14  0.91188000000E+02  0.91188000000E+02 0.  0.
    9900012    2    3    3    0    0  0.17590696489E+02 -0.22128234348E+02 -0.32932238591E+02  0.47787266170E+02  0.19999977778E+02 0.  0.
         12    1    3    3    0    0 -0.17590696489E+02  0.22128234348E+02  0.32932238591E+02  0.43400733830E+02  0.00000000000E+00 0. -1.
         11    1    4    4    0    0  0.67700702503E+01 -0.95164253013E-01 -0.42240204536E+01  0.79803042851E+01  0.51100000000E-03 0. -1.
        -11    1    4    4    0    0  0.12083892104E+01 -0.15622588089E+02 -0.19607528709E+02  0.25099415241E+02  0.51100000000E-03 0.  1.
        -12    1    4    4    0    0  0.96122370286E+01 -0.64104820064E+01 -0.91006894279E+01  0.14707546645E+02  0.00000000000E+00 0.  1.
</event>
<event>
 8    1  0.4798632E-010  0.9118800E+02  0.7816164E-02  0.1184000E+00
        -11   -1    0    0    0    0  0.00000000000E+00  0.00000000000E+00  0.45593999997E+02  0.45594000000E+02  0.51100000000E-03 0. -1.
         11   -1    0    0    0    0 -0.00000000000E+00 -0.00000000000E+00 -0.45593999997E+02  0.45594000000E+02  0.51100000000E-03 0.  1.
         23    2    1    2    0    0  0.00000000000E+00 -0.35527136788E-14  0.71054273576E-14  0.91188000000E+02  0.91188000000E+02 0.  0.
    9900012    2    3    3    0    0 -0.13163648047E+02 -0.18573216494E+02  0.36951021355E+02  0.47787262909E+02  0.19999962908E+02 0.  0.
        -12    1    3    3    0    0  0.13163648047E+02  0.18573216494E+02 -0.36951021355E+02  0.43400737091E+02  0.00000000000E+00 0.  1.
         11    1    4    4    0    0  0.15487876299E+01 -0.95097080743E+01  0.17754793376E+02  0.20200643031E+02  0.51100000000E-03 0. -1.
        -11    1    4    4    0    0 -0.13211148106E+02 -0.98267172556E+01  0.19841219347E+02  0.25783188161E+02  0.51100000000E-03 0.  1.
        -12    1    4    4    0    0 -0.15012875706E+01  0.76320883581E+00 -0.64499136711E+00  0.18034317176E+01  0.00000000000E+00 0.  1.
</event>
<event>
 8    1  0.4798632E-010  0.9118800E+02  0.7816164E-02  0.1184000E+00
        -11   -1    0    0    0    0  0.00000000000E+00  0.00000000000E+00  0.45593999997E+02  0.45594000000E+02  0.51100000000E-03 0. -1.
         11   -1    0    0    0    0 -0.00000000000E+00 -0.00000000000E+00 -0.45593999997E+02  0.45594000000E+02  0.51100000000E-03 0.  1.
         23    2    1    2    0    0  0.88817841970E-15  0.00000000000E+00 -0.71054273576E-14  0.91188000000E+02  0.91188000000E+02 0.  0.
    9900012    2    3    3    0    0  0.45175899890E+01 -0.23542251660E+02 -0.36179786295E+02  0.47787272254E+02  0.20000005514E+02 0.  0.
         12    1    3    3    0    0 -0.45175899890E+01  0.23542251660E+02  0.36179786295E+02  0.43400727746E+02  0.00000000000E+00 0. -1.
         11    1    4    4    0    0 -0.14071428889E+01  0.26747472788E+01 -0.35573217725E+01  0.46678541718E+01  0.51100000000E-03 0. -1.
        -11    1    4    4    0    0  0.78692485872E+01 -0.16464007800E+02 -0.20772443011E+02  0.27649285978E+02  0.51100000000E-03 0.  1.
        -12    1    4    4    0    0 -0.19445157094E+01 -0.97529911390E+01 -0.11850021512E+02  0.15470132104E+02  0.00000000000E+00 0.  1.
</event>
<event>
 8    1  0.4798632E-010  0.9118800E+02  0.7816164E-02  0.1184000E+00
        -11   -1    0    0    0    0  0.00000000000E+00  0.00000000000E+00  0.45593999997E+02  0.45594000000E+02  0.51100000000E-03 0. -1.
         11   -1    0    0    0    0 -0.00000000000E+00 -0.00000000000E+00 -0.45593999997E+02  0.45594000000E+02  0.51100000000E-03 0.  1.
         23    2    1    2    0    0  0.00000000000E+00 -0.88817841970E-15  0.00000000000E+00  0.91188000000E+02  0.91188000000E+02 0.  0.
    9900012    2    3    3    0    0  0.53791415346E+01 -0.54977753969E+01 -0.42713728436E+02  0.47787270803E+02  0.19999998898E+02 0.  0.
         12    1    3    3    0    0 -0.53791415346E+01  0.54977753969E+01  0.42713728436E+02  0.43400729197E+02  0.00000000000E+00 0. -1.
         11    1    4    4    0    0 -0.76581066430E+00 -0.77883040103E+01 -0.11568426832E+02  0.13966840909E+02  0.51100000000E-03 0. -1.
        -11    1    4    4    0    0  0.40351734193E+01  0.66558443046E+01 -0.23611563548E+02  0.24861392185E+02  0.51100000000E-03 0.  1.
        -12    1    4    4    0    0  0.21097787796E+01 -0.43653156913E+01 -0.75337380557E+01  0.89590377093E+01  0.00000000000E+00 0.  1.
</event>
<event>
 8    1  0.4798632E-010  0.9118800E+02  0.7816164E-02  0.1184000E+00
        -11   -1    0    0    0    0  0.00000000000E+00  0.00000000000E+00  0.45593999997E+02  0.45594000000E+02  0.51100000000E-03 0. -1.
         11   -1    0    0    0    0 -0.00000000000E+00 -0.00000000000E+00 -0.45593999997E+02  0.45594000000E+02  0.51100000000E-03 0.  1.
         23    2    1    2    0    0  0.11102230246E-14  0.00000000000E+00  0.00000000000E+00  0.91188000000E+02  0.91188000000E+02 0.  0.
    9900012    2    3    3    0    0 -0.15812252989E+01 -0.50235232157E+01 -0.43080012097E+02  0.47787268426E+02  0.19999988060E+02 0.  0.
         12    1    3    3    0    0  0.15812252989E+01  0.50235232157E+01  0.43080012097E+02  0.43400731574E+02  0.00000000000E+00 0. -1.
         11    1    4    4    0    0  0.72684780824E+01  0.21311928677E+01 -0.18671957062E+02  0.20149807381E+02  0.51100000000E-03 0. -1.
        -11    1    4    4    0    0 -0.66045897821E+01 -0.26890430261E+01 -0.92694011718E+01  0.11695014191E+02  0.51100000000E-03 0.  1.
         12    1    4    4    0    0 -0.22451135992E+01 -0.44656730573E+01 -0.15138653862E+02  0.15942446854E+02  0.00000000000E+00 0. -1.
</event>
<event>
 8    1  0.4798632E-010  0.9118800E+02  0.7816164E-02  0.1184000E+00
        -11   -1    0    0    0    0  0.00000000000E+00  0.00000000000E+00  0.45593999997E+02  0.45594000000E+02  0.51100000000E-03 0. -1.
         11   -1    0    0    0    0 -0.00000000000E+00 -0.00000000000E+00 -0.45593999997E+02  0.45594000000E+02  0.51100000000E-03 0.  1.
         23    2    1    2    0    0  0.00000000000E+00  0.00000000000E+00 -0.71054273576E-14  0.91188000000E+02  0.91188000000E+02 0.  0.
    9900012    2    3    3    0    0 -0.50107007414E+01 -0.24733520059E+02  0.35309619432E+02  0.47787270042E+02  0.19999995428E+02 0.  0.
        -12    1    3    3    0    0  0.50107007414E+01  0.24733520059E+02 -0.35309619432E+02  0.43400729958E+02  0.00000000000E+00 0.  1.
         11    1    4    4    0    0 -0.63708690947E+00 -0.57582442163E+01  0.63235698107E+01  0.85761758143E+01  0.51100000000E-03 0. -1.
        -11    1    4    4    0    0 -0.49426982141E+01  0.43776467802E-01  0.51845809144E+00  0.49700081558E+01  0.51100000000E-03 0.  1.
        -12    1    4    4    0    0  0.56908438215E+00 -0.19019052311E+02  0.28467591530E+02  0.34241086072E+02  0.00000000000E+00 0.  1.
</event>
<event>
 8    1  0.4798632E-010  0.9118800E+02  0.7816164E-02  0.1184000E+00
        -11   -1    0    0    0    0  0.00000000000E+00  0.00000000000E+00  0.45593999997E+02  0.45594000000E+02  0.51100000000E-03 0. -1.
         11   -1    0    0    0    0 -0.00000000000E+00 -0.00000000000E+00 -0.45593999997E+02  0.45594000000E+02  0.51100000000E-03 0.  1.
         23    2    1    2    0    0  0.35527136788E-14 -0.44408920985E-15  0.71054273576E-14  0.91188000000E+02  0.91188000000E+02 0.  0.
    9900012    2    3    3    0    0 -0.17146497721E+02  0.29344199505E+01 -0.39761914828E+02  0.47787273331E+02  0.20000010427E+02 0.  0.
         12    1    3    3    0    0  0.17146497721E+02 -0.29344199505E+01  0.39761914828E+02  0.43400726669E+02  0.00000000000E+00 0. -1.
         11    1    4    4    0    0 -0.13069299491E+02  0.86550647347E+00 -0.36324281904E+02  0.38613587592E+02  0.51100000000E-03 0. -1.
        -11    1    4    4    0    0 -0.41966616371E+01 -0.11438805521E+01 -0.40005962952E+01  0.59097548674E+01  0.51100000000E-03 0.  1.
         12    1    4    4    0    0  0.11946340724E+00  0.32127940291E+01  0.56296337072E+00  0.32639308718E+01  0.00000000000E+00 0. -1.
</event>
<event>
 8    1  0.4798632E-010  0.9118800E+02  0.7816164E-02  0.1184000E+00
        -11   -1    0    0    0    0  0.00000000000E+00  0.00000000000E+00  0.45593999997E+02  0.45594000000E+02  0.51100000000E-03 0. -1.
         11   -1    0    0    0    0 -0.00000000000E+00 -0.00000000000E+00 -0.45593999997E+02  0.45594000000E+02  0.51100000000E-03 0.  1.
         23    2    1    2    0    0  0.00000000000E+00  0.00000000000E+00  0.00000000000E+00  0.91188000000E+02  0.91188000000E+02 0.  0.
    9900012    2    3    3    0    0 -0.29872022018E+00  0.18270737335E+02  0.39366409489E+02  0.47787271059E+02  0.20000000068E+02 0.  0.
        -12    1    3    3    0    0  0.29872022018E+00 -0.18270737335E+02 -0.39366409489E+02  0.43400728941E+02  0.00000000000E+00 0.  1.
         11    1    4    4    0    0  0.27163824923E+01  0.11518435444E+02  0.12688429308E+02  0.17350773109E+02  0.51100000000E-03 0. -1.
        -11    1    4    4    0    0 -0.44742177650E+01  0.78375338525E+00  0.22623539152E+02  0.23075038851E+02  0.51100000000E-03 0.  1.
        -12    1    4    4    0    0  0.14591150526E+01  0.59685485058E+01  0.40544410291E+01  0.73614590987E+01  0.00000000000E+00 0.  1.
</event>
<event>
 8    1  0.4798632E-010  0.9118800E+02  0.7816164E-02  0.1184000E+00
        -11   -1    0    0    0    0  0.00000000000E+00  0.00000000000E+00  0.45593999997E+02  0.45594000000E+02  0.51100000000E-03 0.  1.
         11   -1    0    0    0    0 -0.00000000000E+00 -0.00000000000E+00 -0.45593999997E+02  0.45594000000E+02  0.51100000000E-03 0. -1.
         23    2    1    2    0    0  0.00000000000E+00  0.00000000000E+00  0.35527136788E-14  0.91188000000E+02  0.91188000000E+02 0.  0.
    9900012    2    3    3    0    0  0.33371171518E+02  0.22083408468E+02 -0.16802145330E+02  0.47787261461E+02  0.19999956305E+02 0.  0.
         12    1    3    3    0    0 -0.33371171518E+02 -0.22083408468E+02  0.16802145330E+02  0.43400738539E+02  0.00000000000E+00 0. -1.
         11    1    4    4    0    0  0.30489575293E+01  0.14952172636E+01 -0.87737935065E+01  0.94080428058E+01  0.51100000000E-03 0. -1.
        -11    1    4    4    0    0  0.23824219413E+02  0.16567129073E+02 -0.96245117113E+01  0.30572772565E+02  0.51100000000E-03 0.  1.
        -12    1    4    4    0    0  0.64979945757E+01  0.40210621320E+01  0.15961598882E+01  0.78064460905E+01  0.00000000000E+00 0.  1.
</event>
<event>
 8    1  0.4798632E-010  0.9118800E+02  0.7816164E-02  0.1184000E+00
        -11   -1    0    0    0    0  0.00000000000E+00  0.00000000000E+00  0.45593999997E+02  0.45594000000E+02  0.51100000000E-03 0. -1.
         11   -1    0    0    0    0 -0.00000000000E+00 -0.00000000000E+00 -0.45593999997E+02  0.45594000000E+02  0.51100000000E-03 0.  1.
         23    2    1    2    0    0  0.00000000000E+00  0.00000000000E+00  0.71054273576E-14  0.91188000000E+02  0.91188000000E+02 0.  0.
    9900012    2    3    3    0    0 -0.13502837783E+02 -0.30133330486E+01  0.41136553907E+02  0.47787275679E+02  0.20000021129E+02 0.  0.
        -12    1    3    3    0    0  0.13502837783E+02  0.30133330486E+01 -0.41136553907E+02  0.43400724321E+02  0.00000000000E+00 0.  1.
         11    1    4    4    0    0  0.21546707202E+01  0.25019398161E+01  0.18923294991E+00  0.33072825894E+01  0.51100000000E-03 0. -1.
        -11    1    4    4    0    0 -0.10525314501E+02 -0.45274395310E+01  0.21742808361E+02  0.24577015070E+02  0.51100000000E-03 0.  1.
         12    1    4    4    0    0 -0.51321940015E+01 -0.98783333363E+00  0.19204512597E+02  0.19902978020E+02  0.00000000000E+00 0. -1.
</event>
<event>
 8    1  0.4798632E-010  0.9118800E+02  0.7816164E-02  0.1184000E+00
        -11   -1    0    0    0    0  0.00000000000E+00  0.00000000000E+00  0.45593999997E+02  0.45594000000E+02  0.51100000000E-03 0.  1.
         11   -1    0    0    0    0 -0.00000000000E+00 -0.00000000000E+00 -0.45593999997E+02  0.45594000000E+02  0.51100000000E-03 0. -1.
         23    2    1    2    0    0  0.17763568394E-14 -0.35527136788E-14  0.00000000000E+00  0.91188000000E+02  0.91188000000E+02 0.  0.
    9900012    2    3    3    0    0 -0.87817540035E+01 -0.28293358284E+02  0.31717340697E+02  0.47787273885E+02  0.20000012953E+02 0.  0.
        -12    1    3    3    0    0  0.87817540035E+01  0.28293358284E+02 -0.31717340697E+02  0.43400726115E+02  0.00000000000E+00 0.  1.
         11    1    4    4    0    0 -0.76630757267E+01 -0.19202654839E+02  0.22771402570E+02  0.30757136696E+02  0.51100000000E-03 0. -1.
        -11    1    4    4    0    0 -0.15845790432E+01 -0.71558833552E+01 -0.52915125324E+00  0.73483031135E+01  0.51100000000E-03 0.  1.
        -12    1    4    4    0    0  0.46590076645E+00 -0.19348200895E+01  0.94750893807E+01  0.96818340760E+01  0.00000000000E+00 0.  1.
</event>
<event>
 8    1  0.4798632E-010  0.9118800E+02  0.7816164E-02  0.1184000E+00
        -11   -1    0    0    0    0  0.00000000000E+00  0.00000000000E+00  0.45593999997E+02  0.45594000000E+02  0.51100000000E-03 0. -1.
         11   -1    0    0    0    0 -0.00000000000E+00 -0.00000000000E+00 -0.45593999997E+02  0.45594000000E+02  0.51100000000E-03 0.  1.
         23    2    1    2    0    0 -0.35527136788E-14  0.00000000000E+00  0.00000000000E+00  0.91188000000E+02  0.91188000000E+02 0.  0.
    9900012    2    3    3    0    0  0.19083358111E+02  0.32714146309E+02 -0.21195118599E+02  0.47787274453E+02  0.20000015543E+02 0.  0.
         12    1    3    3    0    0 -0.19083358111E+02 -0.32714146309E+02  0.21195118599E+02  0.43400725547E+02  0.00000000000E+00 0. -1.
         11    1    4    4    0    0  0.12567233947E+02  0.62773822940E+01 -0.11777850841E+02  0.18331903017E+02  0.51100000000E-03 0. -1.
        -11    1    4    4    0    0  0.60195296761E+01  0.20371590089E+02 -0.97239399322E+01  0.23362179443E+02  0.51100000000E-03 0.  1.
         12    1    4    4    0    0  0.49659448798E+00  0.60651739260E+01  0.30667217388E+00  0.60931919928E+01  0.00000000000E+00 0. -1.
</event>
<event>
 8    1  0.4798632E-010  0.9118800E+02  0.7816164E-02  0.1184000E+00
        -11   -1    0    0    0    0  0.00000000000E+00  0.00000000000E+00  0.45593999997E+02  0.45594000000E+02  0.51100000000E-03 0. -1.
         11   -1    0    0    0    0 -0.00000000000E+00 -0.00000000000E+00 -0.45593999997E+02  0.45594000000E+02  0.51100000000E-03 0.  1.
         23    2    1    2    0    0  0.00000000000E+00  0.88817841970E-15  0.00000000000E+00  0.91188000000E+02  0.91188000000E+02 0.  0.
    9900012    2    3    3    0    0  0.11839168318E+02  0.35867043374E+01  0.41600395335E+02  0.47787271360E+02  0.20000001438E+02 0.  0.
        -12    1    3    3    0    0 -0.11839168318E+02 -0.35867043374E+01 -0.41600395335E+02  0.43400728640E+02  0.00000000000E+00 0.  1.
         11    1    4    4    0    0  0.45950543444E+01 -0.63752669514E+01  0.22253266239E+02  0.23600135840E+02  0.51100000000E-03 0. -1.
        -11    1    4    4    0    0  0.26518680871E+01  0.34448423291E+01  0.14303272130E+01  0.45765903488E+01  0.51100000000E-03 0.  1.
         12    1    4    4    0    0  0.45922458860E+01  0.65171289597E+01  0.17916801884E+02  0.19610545171E+02  0.00000000000E+00 0. -1.
</event>
<event>
 8    1  0.4798632E-010  0.9118800E+02  0.7816164E-02  0.1184000E+00
        -11   -1    0    0    0    0  0.00000000000E+00  0.00000000000E+00  0.45593999997E+02  0.45594000000E+02  0.51100000000E-03 0. -1.
         11   -1    0    0    0    0 -0.00000000000E+00 -0.00000000000E+00 -0.45593999997E+02  0.45594000000E+02  0.51100000000E-03 0.  1.
         23    2    1    2    0    0  0.00000000000E+00  0.00000000000E+00 -0.17763568394E-14  0.91188000000E+02  0.91188000000E+02 0.  0.
    9900012    2    3    3    0    0 -0.29145915138E+02  0.29513641061E+02 -0.12770428327E+02  0.47787271693E+02  0.20000002958E+02 0.  0.
         12    1    3    3    0    0  0.29145915138E+02 -0.29513641061E+02  0.12770428327E+02  0.43400728307E+02  0.00000000000E+00 0. -1.
         11    1    4    4    0    0 -0.11789136303E+02  0.19237875916E+02 -0.14637443739E+02  0.26894876167E+02  0.51100000000E-03 0. -1.
        -11    1    4    4    0    0 -0.17692826327E+02  0.98901035647E+01  0.16492035185E+01  0.20336423591E+02  0.51100000000E-03 0.  1.
        -12    1    4    4    0    0  0.33604749315E+00  0.38566157980E+00  0.21781189344E+00  0.55597193518E+00  0.00000000000E+00 0.  1.
</event>
<event>
 8    1  0.6261645E-010  0.9118800E+02  0.7816164E-02  0.1184000E+00
        -11   -1    0    0    0    0  0.00000000000E+00  0.00000000000E+00  0.45593999997E+02  0.45594000000E+02  0.51100000000E-03 0. -1.
         11   -1    0    0    0    0 -0.00000000000E+00 -0.00000000000E+00 -0.45593999997E+02  0.45594000000E+02  0.51100000000E-03 0.  1.
         23    2    1    2    0    0  0.00000000000E+00  0.00000000000E+00  0.00000000000E+00  0.91188000000E+02  0.91188000000E+02 0.  0.
    9900012    2    3    3    0    0 -0.55412444914E+01  0.22813884577E+02  0.36502650917E+02  0.47787282910E+02  0.20000054099E+02 0.  0.
        -12    1    3    3    0    0  0.55412444914E+01 -0.22813884577E+02 -0.36502650917E+02  0.43400717090E+02  0.00000000000E+00 0.  1.
         11    1    4    4    0    0  0.38949240499E+00  0.88353089750E+01  0.17930349414E+02  0.19992794186E+02  0.51100000000E-03 0. -1.
        -11    1    4    4    0    0 -0.92074304983E+01  0.14675747646E+02  0.15370587581E+02  0.23160511829E+02  0.51100000000E-03 0.  1.
        -12    1    4    4    0    0  0.32766936019E+01 -0.69717204385E+00  0.32017139222E+01  0.46339768946E+01  0.00000000000E+00 0.  1.
</event>
<event>
 8    1  0.4798632E-010  0.9118800E+02  0.7816164E-02  0.1184000E+00
        -11   -1    0    0    0    0  0.00000000000E+00  0.00000000000E+00  0.45593999997E+02  0.45594000000E+02  0.51100000000E-03 0. -1.
         11   -1    0    0    0    0 -0.00000000000E+00 -0.00000000000E+00 -0.45593999997E+02  0.45594000000E+02  0.51100000000E-03 0.  1.
         23    2    1    2    0    0  0.11102230246E-14 -0.11102230246E-15  0.71054273576E-14  0.91188000000E+02  0.91188000000E+02 0.  0.
    9900012    2    3    3    0    0  0.19196819332E+01  0.49608364228E+00  0.43355426856E+02  0.47787259044E+02  0.19999945284E+02 0.  0.
        -12    1    3    3    0    0 -0.19196819332E+01 -0.49608364228E+00 -0.43355426856E+02  0.43400740956E+02  0.00000000000E+00 0.  1.
         11    1    4    4    0    0 -0.44717501881E+01  0.10792779279E+01  0.32538534363E+02  0.32862099893E+02  0.51100000000E-03 0. -1.
        -11    1    4    4    0    0  0.40637515781E+01 -0.15411575988E+01  0.58161760159E+00  0.43849199455E+01  0.51100000000E-03 0.  1.
         12    1    4    4    0    0  0.23276805433E+01  0.95796331313E+00  0.10235274891E+02  0.10540239206E+02  0.00000000000E+00 0. -1.
</event>
<event>
 8    1  0.4798632E-010  0.9118800E+02  0.7816164E-02  0.1184000E+00
        -11   -1    0    0    0    0  0.00000000000E+00  0.00000000000E+00  0.45593999997E+02  0.45594000000E+02  0.51100000000E-03 0.  1.
         11   -1    0    0    0    0 -0.00000000000E+00 -0.00000000000E+00 -0.45593999997E+02  0.45594000000E+02  0.51100000000E-03 0. -1.
         23    2    1    2    0    0 -0.88817841970E-15  0.00000000000E+00  0.00000000000E+00  0.91188000000E+02  0.91188000000E+02 0.  0.
    9900012    2    3    3    0    0  0.79073425274E+01  0.37801670913E+02 -0.19802312473E+02  0.47787263037E+02  0.19999963489E+02 0.  0.
         12    1    3    3    0    0 -0.79073425274E+01 -0.37801670913E+02  0.19802312473E+02  0.43400736963E+02  0.00000000000E+00 0. -1.
         11    1    4    4    0    0 -0.23321422417E+01  0.13285123220E+02 -0.11804326495E+01  0.13539823038E+02  0.51100000000E-03 0. -1.
        -11    1    4    4    0    0  0.96390593980E+01  0.16405352872E+02 -0.17829367314E+02  0.26075532746E+02  0.51100000000E-03 0.  1.
        -12    1    4    4    0    0  0.60042537114E+00  0.81111948216E+01 -0.79251250963E+00  0.81719072522E+01  0.00000000000E+00 0.  1.
</event>
<event>
 8    1  0.4798632E-010  0.9118800E+02  0.7816164E-02  0.1184000E+00
        -11   -1    0    0    0    0  0.00000000000E+00  0.00000000000E+00  0.45593999997E+02  0.45594000000E+02  0.51100000000E-03 0. -1.
         11   -1    0    0    0    0 -0.00000000000E+00 -0.00000000000E+00 -0.45593999997E+02  0.45594000000E+02  0.51100000000E-03 0.  1.
         23    2    1    2    0    0  0.00000000000E+00  0.00000000000E+00  0.00000000000E+00  0.91188000000E+02  0.91188000000E+02 0.  0.
    9900012    2    3    3    0    0 -0.26978622526E+02 -0.11412856666E+02 -0.32023814933E+02  0.47787261601E+02  0.19999956944E+02 0.  0.
         12    1    3    3    0    0  0.26978622526E+02  0.11412856666E+02  0.32023814933E+02  0.43400738399E+02  0.00000000000E+00 0. -1.
         11    1    4    4    0    0 -0.41161758316E+01  0.55899821584E+00 -0.24097155501E+01  0.48023027576E+01  0.51100000000E-03 0. -1.
        -11    1    4    4    0    0 -0.16063377390E+02 -0.23780012404E+01 -0.26052060799E+02  0.30698482946E+02  0.51100000000E-03 0.  1.
        -12    1    4    4    0    0 -0.67990693050E+01 -0.95938536413E+01 -0.35620385845E+01  0.12286475898E+02  0.00000000000E+00 0.  1.
</event>
<event>
 8    1  0.4798632E-010  0.9118800E+02  0.7816164E-02  0.1184000E+00
        -11   -1    0    0    0    0  0.00000000000E+00  0.00000000000E+00  0.45593999997E+02  0.45594000000E+02  0.51100000000E-03 0. -1.
         11   -1    0    0    0    0 -0.00000000000E+00 -0.00000000000E+00 -0.45593999997E+02  0.45594000000E+02  0.51100000000E-03 0.  1.
         23    2    1    2    0    0 -0.88817841970E-15 -0.17763568394E-14  0.00000000000E+00  0.91188000000E+02  0.91188000000E+02 0.  0.
    9900012    2    3    3    0    0 -0.65526875059E+01 -0.31702028402E+01  0.42785923949E+02  0.47787272036E+02  0.20000004522E+02 0.  0.
        -12    1    3    3    0    0  0.65526875059E+01  0.31702028402E+01 -0.42785923949E+02  0.43400727964E+02  0.00000000000E+00 0.  1.
         11    1    4    4    0    0 -0.41445446219E+01 -0.49811022178E+01  0.25409347349E+02  0.26222577341E+02  0.51100000000E-03 0. -1.
        -11    1    4    4    0    0 -0.11170493791E+01  0.52231188700E+01  0.19081332628E+01  0.56718376965E+01  0.51100000000E-03 0.  1.
        -12    1    4    4    0    0 -0.12910935049E+01 -0.34122194924E+01  0.15468443338E+02  0.15892856999E+02  0.00000000000E+00 0.  1.
</event>
<event>
 8    1  0.4798632E-010  0.9118800E+02  0.7816164E-02  0.1184000E+00
        -11   -1    0    0    0    0  0.00000000000E+00  0.00000000000E+00  0.45593999997E+02  0.45594000000E+02  0.51100000000E-03 0. -1.
         11   -1    0    0    0    0 -0.00000000000E+00 -0.00000000000E+00 -0.45593999997E+02  0.45594000000E+02  0.51100000000E-03 0.  1.
         23    2    1    2    0    0  0.17763568394E-14  0.00000000000E+00  0.00000000000E+00  0.91188000000E+02  0.91188000000E+02 0.  0.
    9900012    2    3    3    0    0 -0.10536902003E+02 -0.34046604991E+02 -0.24767432327E+02  0.47787270521E+02  0.19999997614E+02 0.  0.
         12    1    3    3    0    0  0.10536902003E+02  0.34046604991E+02  0.24767432327E+02  0.43400729479E+02  0.00000000000E+00 0. -1.
         11    1    4    4    0    0 -0.44512387569E+01 -0.17413490683E+02 -0.20710844271E+01  0.18092334708E+02  0.51100000000E-03 0. -1.
        -11    1    4    4    0    0 -0.46485960566E+01 -0.15898029490E+02 -0.16842375685E+02  0.23622497877E+02  0.51100000000E-03 0.  1.
         12    1    4    4    0    0 -0.14370671893E+01 -0.73508481820E+00 -0.58539722144E+01  0.60724379357E+01  0.00000000000E+00 0. -1.
</event>
<event>
 8    1  0.4798632E-010  0.9118800E+02  0.7816164E-02  0.1184000E+00
        -11   -1    0    0    0    0  0.00000000000E+00  0.00000000000E+00  0.45593999997E+02  0.45594000000E+02  0.51100000000E-03 0. -1.
         11   -1    0    0    0    0 -0.00000000000E+00 -0.00000000000E+00 -0.45593999997E+02  0.45594000000E+02  0.51100000000E-03 0.  1.
         23    2    1    2    0    0  0.00000000000E+00  0.00000000000E+00  0.00000000000E+00  0.91188000000E+02  0.91188000000E+02 0.  0.
    9900012    2    3    3    0    0  0.33273146868E+02  0.11107044646E+02  0.25556857803E+02  0.47787288899E+02  0.20000081408E+02 0.  0.
        -12    1    3    3    0    0 -0.33273146868E+02 -0.11107044646E+02 -0.25556857803E+02  0.43400711101E+02  0.00000000000E+00 0.  1.
         11    1    4    4    0    0  0.56121692027E+00 -0.37366435013E+01  0.44643613236E+01  0.58487598153E+01  0.51100000000E-03 0. -1.
        -11    1    4    4    0    0  0.23767548972E+02  0.87908982081E+01  0.16241184957E+02  0.30099042585E+02  0.51100000000E-03 0.  1.
        -12    1    4    4    0    0  0.89443809758E+01  0.60527899389E+01  0.48513115224E+01  0.11839486500E+02  0.00000000000E+00 0.  1.
</event>
<event>
 8    1  0.4798632E-010  0.9118800E+02  0.7816164E-02  0.1184000E+00
        -11   -1    0    0    0    0  0.00000000000E+00  0.00000000000E+00  0.45593999997E+02  0.45594000000E+02  0.51100000000E-03 0. -1.
         11   -1    0    0    0    0 -0.00000000000E+00 -0.00000000000E+00 -0.45593999997E+02  0.45594000000E+02  0.51100000000E-03 0.  1.
         23    2    1    2    0    0  0.00000000000E+00 -0.44408920985E-15 -0.71054273576E-14  0.91188000000E+02  0.91188000000E+02 0.  0.
    9900012    2    3    3    0    0 -0.93784092958E+01 -0.22683163543E+01  0.42314596580E+02  0.47787252268E+02  0.19999914390E+02 0.  0.
        -12    1    3    3    0    0  0.93784092958E+01  0.22683163543E+01 -0.42314596580E+02  0.43400747732E+02  0.00000000000E+00 0.  1.
         11    1    4    4    0    0  0.72956890725E+00  0.25812190135E+01 -0.96938138047E+00  0.28521330452E+01  0.51100000000E-03 0. -1.
        -11    1    4    4    0    0 -0.20639192946E-02  0.34601888832E+00  0.25189087079E+00  0.42799836769E+00  0.51100000000E-03 0.  1.
         12    1    4    4    0    0 -0.10105914284E+02 -0.51955542561E+01  0.43032087089E+02  0.44507120855E+02  0.00000000000E+00 0. -1.
</event>
<event>
 8    1  0.4798632E-010  0.9118800E+02  0.7816164E-02  0.1184000E+00
        -11   -1    0    0    0    0  0.00000000000E+00  0.00000000000E+00  0.45593999997E+02  0.45594000000E+02  0.51100000000E-03 0. -1.
         11   -1    0    0    0    0 -0.00000000000E+00 -0.00000000000E+00 -0.45593999997E+02  0.45594000000E+02  0.51100000000E-03 0.  1.
         23    2    1    2    0    0  0.88817841970E-15  0.00000000000E+00  0.00000000000E+00  0.91188000000E+02  0.91188000000E+02 0.  0.
    9900012    2    3    3    0    0  0.76249177993E+01  0.28029244020E+01 -0.42633644249E+02  0.47787269838E+02  0.19999994499E+02 0.  0.
         12    1    3    3    0    0 -0.76249177993E+01 -0.28029244020E+01  0.42633644249E+02  0.43400730162E+02  0.00000000000E+00 0. -1.
         11    1    4    4    0    0  0.96549192765E+01  0.38938352648E+01 -0.11762613250E+02  0.15707911702E+02  0.51100000000E-03 0. -1.
        -11    1    4    4    0    0  0.30329742148E+01  0.85400158524E+00 -0.86506155788E+01  0.92065955406E+01  0.51100000000E-03 0.  1.
         12    1    4    4    0    0 -0.50629756921E+01 -0.19449124481E+01 -0.22220415421E+02  0.22872762596E+02  0.00000000000E+00 0. -1.
</event>
<event>
 8    1  0.4798632E-010  0.9118800E+02  0.7816164E-02  0.1184000E+00
        -11   -1    0    0    0    0  0.00000000000E+00  0.00000000000E+00  0.45593999997E+02  0.45594000000E+02  0.51100000000E-03 0. -1.
         11   -1    0    0    0    0 -0.00000000000E+00 -0.00000000000E+00 -0.45593999997E+02  0.45594000000E+02  0.51100000000E-03 0.  1.
         23    2    1    2    0    0  0.17763568394E-14  0.00000000000E+00 -0.35527136788E-14  0.91188000000E+02  0.91188000000E+02 0.  0.
    9900012    2    3    3    0    0 -0.10318375482E+02 -0.28750451395E+02 -0.30831270004E+02  0.47787256480E+02  0.19999933597E+02 0.  0.
         12    1    3    3    0    0  0.10318375482E+02  0.28750451395E+02  0.30831270004E+02  0.43400743520E+02  0.00000000000E+00 0. -1.
         11    1    4    4    0    0  0.54157417028E+01 -0.94849233110E+01 -0.98443636753E+01  0.14703928891E+02  0.51100000000E-03 0. -1.
        -11    1    4    4    0    0 -0.10569907084E+02 -0.16714405087E+02 -0.16994153660E+02  0.26074806463E+02  0.51100000000E-03 0.  1.
         12    1    4    4    0    0 -0.51642101005E+01 -0.25511229969E+01 -0.39927526686E+01  0.70085211264E+01  0.00000000000E+00 0. -1.
</event>
<event>
 8    1  0.4798632E-010  0.9118800E+02  0.7816164E-02  0.1184000E+00
        -11   -1    0    0    0    0  0.00000000000E+00  0.00000000000E+00  0.45593999997E+02  0.45594000000E+02  0.51100000000E-03 0.  1.
         11   -1    0    0    0    0 -0.00000000000E+00 -0.00000000000E+00 -0.45593999997E+02  0.45594000000E+02  0.51100000000E-03 0. -1.
         23    2    1    2    0    0  0.00000000000E+00 -0.35527136788E-14  0.00000000000E+00  0.91188000000E+02  0.91188000000E+02 0.  0.
    9900012    2    3    3    0    0 -0.33027158014E+02 -0.16567274996E+02  0.22767418545E+02  0.47787272881E+02  0.20000008375E+02 0.  0.
        -12    1    3    3    0    0  0.33027158014E+02  0.16567274996E+02 -0.22767418545E+02  0.43400727119E+02  0.00000000000E+00 0.  1.
         11    1    4    4    0    0 -0.10627081374E+01 -0.49711558254E+01  0.83008577100E+01  0.97337545587E+01  0.51100000000E-03 0. -1.
        -11    1    4    4    0    0  0.57752626353E+00 -0.33334901915E+00  0.70297228312E+00  0.96893160006E+00  0.51100000000E-03 0.  1.
         12    1    4    4    0    0 -0.32541976140E+02 -0.11262770151E+02  0.13763588552E+02  0.37084586723E+02  0.00000000000E+00 0. -1.
</event>
<event>
 8    1  0.4798632E-010  0.9118800E+02  0.7816164E-02  0.1184000E+00
        -11   -1    0    0    0    0  0.00000000000E+00  0.00000000000E+00  0.45593999997E+02  0.45594000000E+02  0.51100000000E-03 0.  1.
         11   -1    0    0    0    0 -0.00000000000E+00 -0.00000000000E+00 -0.45593999997E+02  0.45594000000E+02  0.51100000000E-03 0. -1.
         23    2    1    2    0    0  0.00000000000E+00  0.00000000000E+00 -0.44408920985E-15  0.91188000000E+02  0.91188000000E+02 0.  0.
    9900012    2    3    3    0    0  0.36265149358E+02 -0.23702564790E+02 -0.25788547203E+01  0.47787272734E+02  0.20000007703E+02 0.  0.
        -12    1    3    3    0    0 -0.36265149358E+02  0.23702564790E+02  0.25788547203E+01  0.43400727266E+02  0.00000000000E+00 0.  1.
         11    1    4    4    0    0  0.68783997266E+01 -0.47651256890E+01 -0.60605431826E+01  0.10331940261E+02  0.51100000000E-03 0. -1.
        -11    1    4    4    0    0  0.12635450127E+02 -0.10656011517E+02  0.77990508246E+01  0.18276497897E+02  0.51100000000E-03 0.  1.
         12    1    4    4    0    0  0.16751299504E+02 -0.82814275843E+01 -0.43173623624E+01  0.19178834575E+02  0.00000000000E+00 0. -1.
</event>
<event>
 8    1  0.4798632E-010  0.9118800E+02  0.7816164E-02  0.1184000E+00
        -11   -1    0    0    0    0  0.00000000000E+00  0.00000000000E+00  0.45593999997E+02  0.45594000000E+02  0.51100000000E-03 0. -1.
         11   -1    0    0    0    0 -0.00000000000E+00 -0.00000000000E+00 -0.45593999997E+02  0.45594000000E+02  0.51100000000E-03 0.  1.
         23    2    1    2    0    0  0.00000000000E+00 -0.17763568394E-14  0.35527136788E-14  0.91188000000E+02  0.91188000000E+02 0.  0.
    9900012    2    3    3    0    0 -0.36974907678E+02  0.95787552879E+01 -0.20608939415E+02  0.47787254218E+02  0.19999923280E+02 0.  0.
         12    1    3    3    0    0  0.36974907678E+02 -0.95787552879E+01  0.20608939415E+02  0.43400745782E+02  0.00000000000E+00 0. -1.
         11    1    4    4    0    0 -0.14237348192E+02  0.66332087940E+01  0.14585454944E+01  0.15774311322E+02  0.51100000000E-03 0. -1.
        -11    1    4    4    0    0 -0.16437825628E+02  0.36181701549E+01 -0.15361518028E+02  0.22787485667E+02  0.51100000000E-03 0.  1.
         12    1    4    4    0    0 -0.62997338575E+01 -0.67262366101E+00 -0.67059668810E+01  0.92254572284E+01  0.00000000000E+00 0. -1.
</event>
<event>
 8    1  0.4798632E-010  0.9118800E+02  0.7816164E-02  0.1184000E+00
        -11   -1    0    0    0    0  0.00000000000E+00  0.00000000000E+00  0.45593999997E+02  0.45594000000E+02  0.51100000000E-03 0. -1.
         11   -1    0    0    0    0 -0.00000000000E+00 -0.00000000000E+00 -0.45593999997E+02  0.45594000000E+02  0.51100000000E-03 0.  1.
         23    2    1    2    0    0  0.35527136788E-14  0.00000000000E+00  0.00000000000E+00  0.91188000000E+02  0.91188000000E+02 0.  0.
    9900012    2    3    3    0    0  0.30644934325E+02 -0.26936761683E+02  0.14796013591E+02  0.47787272496E+02  0.20000006617E+02 0.  0.
        -12    1    3    3    0    0 -0.30644934325E+02  0.26936761683E+02 -0.14796013591E+02  0.43400727504E+02  0.00000000000E+00 0.  1.
         11    1    4    4    0    0  0.48379640180E+01 -0.12758711719E+02  0.96776480517E+01  0.16728642881E+02  0.51100000000E-03 0. -1.
        -11    1    4    4    0    0  0.10605179443E+02 -0.10162624399E+02  0.60648233456E+00  0.14700904284E+02  0.51100000000E-03 0.  1.
         12    1    4    4    0    0  0.15201790864E+02 -0.40154255651E+01  0.45118832051E+01  0.16357725331E+02  0.00000000000E+00 0. -1.
</event>
<event>
 8    1  0.4798632E-010  0.9118800E+02  0.7816164E-02  0.1184000E+00
        -11   -1    0    0    0    0  0.00000000000E+00  0.00000000000E+00  0.45593999997E+02  0.45594000000E+02  0.51100000000E-03 0. -1.
         11   -1    0    0    0    0 -0.00000000000E+00 -0.00000000000E+00 -0.45593999997E+02  0.45594000000E+02  0.51100000000E-03 0.  1.
         23    2    1    2    0    0  0.17763568394E-14  0.00000000000E+00  0.00000000000E+00  0.91188000000E+02  0.91188000000E+02 0.  0.
    9900012    2    3    3    0    0 -0.14989060205E+02  0.39719659388E+02  0.90166094135E+01  0.47787279809E+02  0.20000039962E+02 0.  0.
        -12    1    3    3    0    0  0.14989060205E+02 -0.39719659388E+02 -0.90166094135E+01  0.43400720191E+02  0.00000000000E+00 0.  1.
         11    1    4    4    0    0 -0.11766921896E+02  0.22035170757E+02 -0.29176153680E+01  0.25149983715E+02  0.51100000000E-03 0. -1.
        -11    1    4    4    0    0  0.18592291827E+01  0.88415481329E+01  0.54387571681E+01  0.10545605072E+02  0.51100000000E-03 0.  1.
         12    1    4    4    0    0 -0.50813674920E+01  0.88429404988E+01  0.64954676134E+01  0.12091691022E+02  0.00000000000E+00 0. -1.
</event>
<event>
 8    1  0.4798632E-010  0.9118800E+02  0.7816164E-02  0.1184000E+00
        -11   -1    0    0    0    0  0.00000000000E+00  0.00000000000E+00  0.45593999997E+02  0.45594000000E+02  0.51100000000E-03 0. -1.
         11   -1    0    0    0    0 -0.00000000000E+00 -0.00000000000E+00 -0.45593999997E+02  0.45594000000E+02  0.51100000000E-03 0.  1.
         23    2    1    2    0    0  0.00000000000E+00  0.00000000000E+00 -0.35527136788E-14  0.91188000000E+02  0.91188000000E+02 0.  0.
    9900012    2    3    3    0    0  0.37503224028E+02 -0.58493708945E+01 -0.21045576594E+02  0.47787271360E+02  0.20000001437E+02 0.  0.
         12    1    3    3    0    0 -0.37503224028E+02  0.58493708945E+01  0.21045576594E+02  0.43400728640E+02  0.00000000000E+00 0. -1.
         11    1    4    4    0    0  0.89267916795E+01  0.31644936042E+01 -0.39174465521E+01  0.10249293498E+02  0.51100000000E-03 0. -1.
        -11    1    4    4    0    0  0.14275883726E+02  0.23230087384E+01 -0.11383576905E+02  0.18406060120E+02  0.51100000000E-03 0.  1.
        -12    1    4    4    0    0  0.14300548623E+02 -0.11336873237E+02 -0.57445531371E+01  0.19131917741E+02  0.00000000000E+00 0.  1.
</event>
<event>
 8    1  0.4798632E-010  0.9118800E+02  0.7816164E-02  0.1184000E+00
        -11   -1    0    0    0    0  0.00000000000E+00  0.00000000000E+00  0.45593999997E+02  0.45594000000E+02  0.51100000000E-03 0. -1.
         11   -1    0    0    0    0 -0.00000000000E+00 -0.00000000000E+00 -0.45593999997E+02  0.45594000000E+02  0.51100000000E-03 0.  1.
         23    2    1    2    0    0  0.17763568394E-14  0.00000000000E+00  0.00000000000E+00  0.91188000000E+02  0.91188000000E+02 0.  0.
    9900012    2    3    3    0    0  0.83738192834E+01 -0.20158952418E+02 -0.37511588758E+02  0.47787268404E+02  0.19999987960E+02 0.  0.
         12    1    3    3    0    0 -0.83738192834E+01  0.20158952418E+02  0.37511588758E+02  0.43400731596E+02  0.00000000000E+00 0. -1.
         11    1    4    4    0    0  0.42920757467E+01 -0.50369734973E+01 -0.16822086372E+02  0.18076935758E+02  0.51100000000E-03 0. -1.
        -11    1    4    4    0    0  0.61116170079E+01 -0.59168377908E+01 -0.19404187388E+01  0.87250247585E+01  0.51100000000E-03 0.  1.
        -12    1    4    4    0    0 -0.20298734712E+01 -0.92051411299E+01 -0.18749083647E+02  0.20985307887E+02  0.00000000000E+00 0.  1.
</event>
<event>
 8    1  0.4798632E-010  0.9118800E+02  0.7816164E-02  0.1184000E+00
        -11   -1    0    0    0    0  0.00000000000E+00  0.00000000000E+00  0.45593999997E+02  0.45594000000E+02  0.51100000000E-03 0. -1.
         11   -1    0    0    0    0 -0.00000000000E+00 -0.00000000000E+00 -0.45593999997E+02  0.45594000000E+02  0.51100000000E-03 0.  1.
         23    2    1    2    0    0 -0.17763568394E-14 -0.71054273576E-14 -0.17763568394E-14  0.91188000000E+02  0.91188000000E+02 0.  0.
    9900012    2    3    3    0    0 -0.13630022910E+02  0.40315364250E+02  0.85156934579E+01  0.47787272423E+02  0.20000006286E+02 0.  0.
        -12    1    3    3    0    0  0.13630022910E+02 -0.40315364250E+02 -0.85156934579E+01  0.43400727577E+02  0.00000000000E+00 0.  1.
         11    1    4    4    0    0 -0.29187342418E+01  0.52306623530E+01  0.88734070191E+01  0.10705895134E+02  0.51100000000E-03 0. -1.
        -11    1    4    4    0    0 -0.70682620236E+01  0.20679692452E+02 -0.27670773626E+01  0.22028770400E+02  0.51100000000E-03 0.  1.
         12    1    4    4    0    0 -0.36430266446E+01  0.14405009445E+02  0.24093638014E+01  0.15052606890E+02  0.00000000000E+00 0. -1.
</event>
<event>
 8    1  0.5262950E-010  0.9118800E+02  0.7816164E-02  0.1184000E+00
        -11   -1    0    0    0    0  0.00000000000E+00  0.00000000000E+00  0.45593999997E+02  0.45594000000E+02  0.51100000000E-03 0. -1.
         11   -1    0    0    0    0 -0.00000000000E+00 -0.00000000000E+00 -0.45593999997E+02  0.45594000000E+02  0.51100000000E-03 0.  1.
         23    2    1    2    0    0  0.00000000000E+00  0.22204460493E-15  0.00000000000E+00  0.91188000000E+02  0.91188000000E+02 0.  0.
    9900012    2    3    3    0    0  0.18381809464E+02 -0.17243264597E+01 -0.39277966358E+02  0.47787275788E+02  0.20000021626E+02 0.  0.
         12    1    3    3    0    0 -0.18381809464E+02  0.17243264597E+01  0.39277966358E+02  0.43400724212E+02  0.00000000000E+00 0. -1.
         11    1    4    4    0    0 -0.17290618679E+01  0.34318128463E+01 -0.28269044200E+01  0.47705747259E+01  0.51100000000E-03 0. -1.
        -11    1    4    4    0    0  0.19963026635E+02 -0.25090286510E+01 -0.31031424326E+02  0.36983333452E+02  0.51100000000E-03 0.  1.
        -12    1    4    4    0    0  0.14784469662E+00 -0.26471106550E+01 -0.54196376121E+01  0.60333676102E+01  0.00000000000E+00 0.  1.
</event>
<event>
 8    1  0.4798632E-010  0.9118800E+02  0.7816164E-02  0.1184000E+00
        -11   -1    0    0    0    0  0.00000000000E+00  0.00000000000E+00  0.45593999997E+02  0.45594000000E+02  0.51100000000E-03 0. -1.
         11   -1    0    0    0    0 -0.00000000000E+00 -0.00000000000E+00 -0.45593999997E+02  0.45594000000E+02  0.51100000000E-03 0.  1.
         23    2    1    2    0    0  0.17763568394E-14  0.88817841970E-15  0.00000000000E+00  0.91188000000E+02  0.91188000000E+02 0.  0.
    9900012    2    3    3    0    0  0.10286294599E+02  0.72321509318E+01 -0.41539277662E+02  0.47787268988E+02  0.19999990624E+02 0.  0.
         12    1    3    3    0    0 -0.10286294599E+02 -0.72321509318E+01  0.41539277662E+02  0.43400731012E+02  0.00000000000E+00 0. -1.
         11    1    4    4    0    0 -0.43367916824E+01  0.24949037861E+01 -0.80876170570E+01  0.95100923718E+01  0.51100000000E-03 0. -1.
        -11    1    4    4    0    0  0.13150646011E+02  0.76930412549E+01 -0.26173167098E+02  0.30284600880E+02  0.51100000000E-03 0.  1.
        -12    1    4    4    0    0  0.14724402696E+01 -0.29557941092E+01 -0.72784935076E+01  0.79925757365E+01  0.00000000000E+00 0.  1.
</event>
<event>
 8    1  0.4798632E-010  0.9118800E+02  0.7816164E-02  0.1184000E+00
        -11   -1    0    0    0    0  0.00000000000E+00  0.00000000000E+00  0.45593999997E+02  0.45594000000E+02  0.51100000000E-03 0. -1.
         11   -1    0    0    0    0 -0.00000000000E+00 -0.00000000000E+00 -0.45593999997E+02  0.45594000000E+02  0.51100000000E-03 0.  1.
         23    2    1    2    0    0 -0.44408920985E-15 -0.17763568394E-14  0.00000000000E+00  0.91188000000E+02  0.91188000000E+02 0.  0.
    9900012    2    3    3    0    0  0.24760689745E+01  0.85910079538E+01  0.42469847335E+02  0.47787259593E+02  0.19999947788E+02 0.  0.
        -12    1    3    3    0    0 -0.24760689745E+01 -0.85910079538E+01 -0.42469847335E+02  0.43400740407E+02  0.00000000000E+00 0.  1.
         11    1    4    4    0    0 -0.37285915835E+00  0.33353092193E+01  0.35859120474E+01  0.49114231149E+01  0.51100000000E-03 0. -1.
        -11    1    4    4    0    0  0.17829878663E+01  0.65174372619E+01  0.37982738045E+01  0.77513172009E+01  0.51100000000E-03 0.  1.
        -12    1    4    4    0    0  0.10659402666E+01 -0.12617385274E+01  0.35085661483E+02  0.35124519277E+02  0.00000000000E+00 0.  1.
</event>
<event>
 8    1  0.4798632E-010  0.9118800E+02  0.7816164E-02  0.1184000E+00
        -11   -1    0    0    0    0  0.00000000000E+00  0.00000000000E+00  0.45593999997E+02  0.45594000000E+02  0.51100000000E-03 0. -1.
         11   -1    0    0    0    0 -0.00000000000E+00 -0.00000000000E+00 -0.45593999997E+02  0.45594000000E+02  0.51100000000E-03 0.  1.
         23    2    1    2    0    0  0.35527136788E-14  0.00000000000E+00  0.00000000000E+00  0.91188000000E+02  0.91188000000E+02 0.  0.
    9900012    2    3    3    0    0  0.18661059841E+02  0.34033810091E+02  0.19418749236E+02  0.47787271831E+02  0.20000003585E+02 0.  0.
        -12    1    3    3    0    0 -0.18661059841E+02 -0.34033810091E+02 -0.19418749236E+02  0.43400728169E+02  0.00000000000E+00 0.  1.
         11    1    4    4    0    0 -0.85873034206E+00  0.66742896904E+01 -0.18917040612E+01  0.69901434311E+01  0.51100000000E-03 0. -1.
        -11    1    4    4    0    0  0.51081144894E+00 -0.71116778257E+00  0.71140935435E+00  0.11281806070E+01  0.51100000000E-03 0.  1.
         12    1    4    4    0    0  0.19008978734E+02  0.28070688184E+02  0.20599043943E+02  0.39668947793E+02  0.00000000000E+00 0. -1.
</event>
<event>
 8    1  0.4798632E-010  0.9118800E+02  0.7816164E-02  0.1184000E+00
        -11   -1    0    0    0    0  0.00000000000E+00  0.00000000000E+00  0.45593999997E+02  0.45594000000E+02  0.51100000000E-03 0. -1.
         11   -1    0    0    0    0 -0.00000000000E+00 -0.00000000000E+00 -0.45593999997E+02  0.45594000000E+02  0.51100000000E-03 0.  1.
         23    2    1    2    0    0 -0.35527136788E-14  0.35527136788E-14 -0.17763568394E-14  0.91188000000E+02  0.91188000000E+02 0.  0.
    9900012    2    3    3    0    0  0.30063457083E+02  0.29585522469E+02  0.10222939782E+02  0.47787273171E+02  0.20000009695E+02 0.  0.
        -12    1    3    3    0    0 -0.30063457083E+02 -0.29585522469E+02 -0.10222939782E+02  0.43400726829E+02  0.00000000000E+00 0.  1.
         11    1    4    4    0    0  0.23158715316E+02  0.17436782827E+02  0.63122951548E+01  0.29668376444E+02  0.51100000000E-03 0. -1.
        -11    1    4    4    0    0 -0.14341687414E+01 -0.32153865195E+00  0.26930954256E+01  0.30680596989E+01  0.51100000000E-03 0.  1.
        -12    1    4    4    0    0  0.83389105081E+01  0.12470278293E+02  0.12175492018E+01  0.15050837027E+02  0.00000000000E+00 0.  1.
</event>
<event>
 8    1  0.4798632E-010  0.9118800E+02  0.7816164E-02  0.1184000E+00
        -11   -1    0    0    0    0  0.00000000000E+00  0.00000000000E+00  0.45593999997E+02  0.45594000000E+02  0.51100000000E-03 0. -1.
         11   -1    0    0    0    0 -0.00000000000E+00 -0.00000000000E+00 -0.45593999997E+02  0.45594000000E+02  0.51100000000E-03 0.  1.
         23    2    1    2    0    0  0.00000000000E+00 -0.55511151231E-15  0.71054273576E-14  0.91188000000E+02  0.91188000000E+02 0.  0.
    9900012    2    3    3    0    0 -0.15170418328E+02 -0.54016578291E+00  0.40659445136E+02  0.47787264407E+02  0.19999969736E+02 0.  0.
        -12    1    3    3    0    0  0.15170418328E+02  0.54016578291E+00 -0.40659445136E+02  0.43400735593E+02  0.00000000000E+00 0.  1.
         11    1    4    4    0    0 -0.65977315689E+00  0.53335974360E+01  0.21714308012E+02  0.22369482223E+02  0.51100000000E-03 0. -1.
        -11    1    4    4    0    0 -0.36248647696E+01 -0.38166129407E+01  0.31810272568E+01  0.61502124847E+01  0.51100000000E-03 0.  1.
         12    1    4    4    0    0 -0.10885780401E+02 -0.20571502782E+01  0.15764109866E+02  0.19267569699E+02  0.00000000000E+00 0. -1.
</event>
<event>
 8    1  0.4798632E-010  0.9118800E+02  0.7816164E-02  0.1184000E+00
        -11   -1    0    0    0    0  0.00000000000E+00  0.00000000000E+00  0.45593999997E+02  0.45594000000E+02  0.51100000000E-03 0. -1.
         11   -1    0    0    0    0 -0.00000000000E+00 -0.00000000000E+00 -0.45593999997E+02  0.45594000000E+02  0.51100000000E-03 0.  1.
         23    2    1    2    0    0  0.00000000000E+00  0.17763568394E-14  0.00000000000E+00  0.91188000000E+02  0.91188000000E+02 0.  0.
    9900012    2    3    3    0    0  0.18895380822E+02 -0.12538472951E+02 -0.37005060933E+02  0.47787271262E+02  0.20000000990E+02 0.  0.
         12    1    3    3    0    0 -0.18895380822E+02  0.12538472951E+02  0.37005060933E+02  0.43400728738E+02  0.00000000000E+00 0. -1.
         11    1    4    4    0    0  0.97866693298E+00 -0.48580191405E+01  0.89161280358E+00  0.50351874431E+01  0.51100000000E-03 0. -1.
        -11    1    4    4    0    0  0.86349512245E+01 -0.55367904476E+01 -0.20116950296E+02  0.22581189530E+02  0.51100000000E-03 0.  1.
         12    1    4    4    0    0  0.92817626640E+01 -0.21436633628E+01 -0.17779723441E+02  0.20170894289E+02  0.00000000000E+00 0. -1.
</event>
<event>
 8    1  0.4798632E-010  0.9118800E+02  0.7816164E-02  0.1184000E+00
        -11   -1    0    0    0    0  0.00000000000E+00  0.00000000000E+00  0.45593999997E+02  0.45594000000E+02  0.51100000000E-03 0. -1.
         11   -1    0    0    0    0 -0.00000000000E+00 -0.00000000000E+00 -0.45593999997E+02  0.45594000000E+02  0.51100000000E-03 0.  1.
         23    2    1    2    0    0 -0.35527136788E-14  0.35527136788E-14  0.00000000000E+00  0.91188000000E+02  0.91188000000E+02 0.  0.
    9900012    2    3    3    0    0 -0.17901743611E+02  0.22484268905E+02  0.32520903042E+02  0.47787263749E+02  0.19999966735E+02 0.  0.
        -12    1    3    3    0    0  0.17901743611E+02 -0.22484268905E+02 -0.32520903042E+02  0.43400736251E+02  0.00000000000E+00 0.  1.
         11    1    4    4    0    0 -0.12547706323E+02  0.19153171468E+02  0.16640003369E+02  0.28305098898E+02  0.51100000000E-03 0. -1.
        -11    1    4    4    0    0 -0.63340902532E+01 -0.69641504480E+00  0.12863004056E+02  0.14354879549E+02  0.51100000000E-03 0.  1.
        -12    1    4    4    0    0  0.98005296568E+00  0.40275124826E+01  0.30178956160E+01  0.51272853015E+01  0.00000000000E+00 0.  1.
</event>
<event>
 8    1  0.4798632E-010  0.9118800E+02  0.7816164E-02  0.1184000E+00
        -11   -1    0    0    0    0  0.00000000000E+00  0.00000000000E+00  0.45593999997E+02  0.45594000000E+02  0.51100000000E-03 0. -1.
         11   -1    0    0    0    0 -0.00000000000E+00 -0.00000000000E+00 -0.45593999997E+02  0.45594000000E+02  0.51100000000E-03 0.  1.
         23    2    1    2    0    0  0.00000000000E+00  0.00000000000E+00  0.17763568394E-14  0.91188000000E+02  0.91188000000E+02 0.  0.
    9900012    2    3    3    0    0 -0.16191656137E+02 -0.37150954721E+02  0.15532566041E+02  0.47787265294E+02  0.19999973782E+02 0.  0.
        -12    1    3    3    0    0  0.16191656137E+02  0.37150954721E+02 -0.15532566041E+02  0.43400734706E+02  0.00000000000E+00 0.  1.
         11    1    4    4    0    0 -0.95596273404E+01 -0.12828083148E+02 -0.72293099876E+00  0.16014643974E+02  0.51100000000E-03 0. -1.
        -11    1    4    4    0    0 -0.91871366108E+01 -0.18179876409E+02  0.14121213903E+02  0.24785480986E+02  0.51100000000E-03 0.  1.
        -12    1    4    4    0    0  0.25551078140E+01 -0.61429951651E+01  0.21342831372E+01  0.69871403342E+01  0.00000000000E+00 0.  1.
</event>
<event>
 8    1  0.4798632E-010  0.9118800E+02  0.7816164E-02  0.1184000E+00
        -11   -1    0    0    0    0  0.00000000000E+00  0.00000000000E+00  0.45593999997E+02  0.45594000000E+02  0.51100000000E-03 0. -1.
         11   -1    0    0    0    0 -0.00000000000E+00 -0.00000000000E+00 -0.45593999997E+02  0.45594000000E+02  0.51100000000E-03 0.  1.
         23    2    1    2    0    0  0.44408920985E-15  0.35527136788E-14  0.00000000000E+00  0.91188000000E+02  0.91188000000E+02 0.  0.
    9900012    2    3    3    0    0  0.37983947289E+01 -0.24815742449E+02  0.35403016457E+02  0.47787280535E+02  0.20000043271E+02 0.  0.
        -12    1    3    3    0    0 -0.37983947289E+01  0.24815742449E+02 -0.35403016457E+02  0.43400719465E+02  0.00000000000E+00 0.  1.
         11    1    4    4    0    0 -0.64466695183E+00  0.20798482971E+01  0.32687937180E+01  0.39276426835E+01  0.51100000000E-03 0. -1.
        -11    1    4    4    0    0  0.48830379612E+01 -0.19034789663E+02  0.29711518905E+02  0.35622207023E+02  0.51100000000E-03 0.  1.
        -12    1    4    4    0    0 -0.43997628044E+00 -0.78608010827E+01  0.24227038341E+01  0.82374308287E+01  0.00000000000E+00 0.  1.
</event>
<event>
 8    1  0.4798632E-010  0.9118800E+02  0.7816164E-02  0.1184000E+00
        -11   -1    0    0    0    0  0.00000000000E+00  0.00000000000E+00  0.45593999997E+02  0.45594000000E+02  0.51100000000E-03 0. -1.
         11   -1    0    0    0    0 -0.00000000000E+00 -0.00000000000E+00 -0.45593999997E+02  0.45594000000E+02  0.51100000000E-03 0.  1.
         23    2    1    2    0    0  0.35527136788E-14  0.00000000000E+00  0.00000000000E+00  0.91188000000E+02  0.91188000000E+02 0.  0.
    9900012    2    3    3    0    0  0.25226984749E+02 -0.34661638675E+02 -0.67670633478E+01  0.47787273030E+02  0.20000009053E+02 0.  0.
        -12    1    3    3    0    0 -0.25226984749E+02  0.34661638675E+02  0.67670633478E+01  0.43400726970E+02  0.00000000000E+00 0.  1.
         11    1    4    4    0    0  0.61520372281E+01 -0.10023506276E+02 -0.12222226679E+01  0.11824215350E+02  0.51100000000E-03 0. -1.
        -11    1    4    4    0    0  0.16059388249E+02 -0.27037046266E+02 -0.36165538159E+01  0.31654151126E+02  0.51100000000E-03 0.  1.
        -12    1    4    4    0    0  0.30155592720E+01  0.23989138672E+01 -0.19282868640E+01  0.43089065545E+01  0.00000000000E+00 0.  1.
</event>
<event>
 8    1  0.4798632E-010  0.9118800E+02  0.7816164E-02  0.1184000E+00
        -11   -1    0    0    0    0  0.00000000000E+00  0.00000000000E+00  0.45593999997E+02  0.45594000000E+02  0.51100000000E-03 0. -1.
         11   -1    0    0    0    0 -0.00000000000E+00 -0.00000000000E+00 -0.45593999997E+02  0.45594000000E+02  0.51100000000E-03 0.  1.
         23    2    1    2    0    0  0.00000000000E+00  0.71054273576E-14  0.00000000000E+00  0.91188000000E+02  0.91188000000E+02 0.  0.
    9900012    2    3    3    0    0 -0.62512466637E+01  0.41865589746E+02 -0.95821537597E+01  0.47787270049E+02  0.19999995461E+02 0.  0.
         12    1    3    3    0    0  0.62512466637E+01 -0.41865589746E+02  0.95821537597E+01  0.43400729951E+02  0.00000000000E+00 0. -1.
         11    1    4    4    0    0  0.57644239742E+01  0.90052859791E+01 -0.23343458707E+01  0.10944081973E+02  0.51100000000E-03 0. -1.
        -11    1    4    4    0    0 -0.10920879654E+02  0.18428574729E+02 -0.63472022850E+01  0.22341999822E+02  0.51100000000E-03 0.  1.
         12    1    4    4    0    0 -0.10947909838E+01  0.14431729038E+02 -0.90060560412E+00  0.14501188254E+02  0.00000000000E+00 0. -1.
</event>
<event>
 8    1  0.4798632E-010  0.9118800E+02  0.7816164E-02  0.1184000E+00
        -11   -1    0    0    0    0  0.00000000000E+00  0.00000000000E+00  0.45593999997E+02  0.45594000000E+02  0.51100000000E-03 0. -1.
         11   -1    0    0    0    0 -0.00000000000E+00 -0.00000000000E+00 -0.45593999997E+02  0.45594000000E+02  0.51100000000E-03 0.  1.
         23    2    1    2    0    0  0.00000000000E+00  0.44408920985E-15 -0.14210854715E-13  0.91188000000E+02  0.91188000000E+02 0.  0.
    9900012    2    3    3    0    0  0.24308643488E+02  0.23946005110E+01 -0.35874486993E+02  0.47787273315E+02  0.20000010352E+02 0.  0.
         12    1    3    3    0    0 -0.24308643488E+02 -0.23946005110E+01  0.35874486993E+02  0.43400726685E+02  0.00000000000E+00 0. -1.
         11    1    4    4    0    0  0.11048159830E+02 -0.14539167367E+01 -0.33678171456E+01  0.11641215662E+02  0.51100000000E-03 0. -1.
        -11    1    4    4    0    0  0.13293334180E+02  0.36638792747E+01 -0.24318880593E+02  0.27956120949E+02  0.51100000000E-03 0.  1.
         12    1    4    4    0    0 -0.32850522220E-01  0.18463797312E+00 -0.81877892544E+01  0.81899367038E+01  0.00000000000E+00 0. -1.
</event>
<event>
 8    1  0.4798632E-010  0.9118800E+02  0.7816164E-02  0.1184000E+00
        -11   -1    0    0    0    0  0.00000000000E+00  0.00000000000E+00  0.45593999997E+02  0.45594000000E+02  0.51100000000E-03 0. -1.
         11   -1    0    0    0    0 -0.00000000000E+00 -0.00000000000E+00 -0.45593999997E+02  0.45594000000E+02  0.51100000000E-03 0.  1.
         23    2    1    2    0    0 -0.31918911958E-15  0.71054273576E-14  0.26645352591E-14  0.91188000000E+02  0.91188000000E+02 0.  0.
    9900012    2    3    3    0    0  0.11525335774E+00  0.42874055770E+02 -0.67398198323E+01  0.47787272899E+02  0.20000008456E+02 0.  0.
         12    1    3    3    0    0 -0.11525335774E+00 -0.42874055770E+02  0.67398198323E+01  0.43400727101E+02  0.00000000000E+00 0. -1.
         11    1    4    4    0    0  0.55446449397E+01  0.90157949797E+01  0.16614284982E+01  0.10713915789E+02  0.51100000000E-03 0. -1.
        -11    1    4    4    0    0 -0.75062331167E+01  0.18074402190E+02 -0.12210465790E+01  0.19609143406E+02  0.51100000000E-03 0.  1.
         12    1    4    4    0    0  0.20768415348E+01  0.15783858601E+02 -0.71802017515E+01  0.17464213704E+02  0.00000000000E+00 0. -1.
</event>
<event>
 8    1  0.4798632E-010  0.9118800E+02  0.7816164E-02  0.1184000E+00
        -11   -1    0    0    0    0  0.00000000000E+00  0.00000000000E+00  0.45593999997E+02  0.45594000000E+02  0.51100000000E-03 0. -1.
         11   -1    0    0    0    0 -0.00000000000E+00 -0.00000000000E+00 -0.45593999997E+02  0.45594000000E+02  0.51100000000E-03 0.  1.
         23    2    1    2    0    0  0.00000000000E+00  0.00000000000E+00 -0.35527136788E-14  0.91188000000E+02  0.91188000000E+02 0.  0.
    9900012    2    3    3    0    0 -0.26771244626E+02 -0.19446529127E+02 -0.28084816484E+02  0.47787263245E+02  0.19999964440E+02 0.  0.
         12    1    3    3    0    0  0.26771244626E+02  0.19446529127E+02  0.28084816484E+02  0.43400736755E+02  0.00000000000E+00 0. -1.
         11    1    4    4    0    0 -0.86793482593E+01  0.29403496187E+01 -0.10049983208E+02  0.13600695013E+02  0.51100000000E-03 0. -1.
        -11    1    4    4    0    0 -0.73860879551E+01 -0.79479617821E+01 -0.47975083366E+01  0.11863409218E+02  0.51100000000E-03 0.  1.
         12    1    4    4    0    0 -0.10705808412E+02 -0.14438916964E+02 -0.13237324938E+02  0.22323159014E+02  0.00000000000E+00 0. -1.
</event>
<event>
 8    1  0.7466649E-010  0.9118800E+02  0.7816164E-02  0.1184000E+00
        -11   -1    0    0    0    0  0.00000000000E+00  0.00000000000E+00  0.45593999997E+02  0.45594000000E+02  0.51100000000E-03 0. -1.
         11   -1    0    0    0    0 -0.00000000000E+00 -0.00000000000E+00 -0.45593999997E+02  0.45594000000E+02  0.51100000000E-03 0.  1.
         23    2    1    2    0    0  0.33306690739E-15  0.88817841970E-15  0.00000000000E+00  0.91188000000E+02  0.91188000000E+02 0.  0.
    9900012    2    3    3    0    0  0.80481200896E+00  0.51479738133E+01  0.43086818917E+02  0.47787270500E+02  0.19999997517E+02 0.  0.
        -12    1    3    3    0    0 -0.80481200896E+00 -0.51479738133E+01 -0.43086818917E+02  0.43400729500E+02  0.00000000000E+00 0.  1.
         11    1    4    4    0    0 -0.14499267759E+01  0.51270382882E+00  0.25360508124E+02  0.25407095966E+02  0.51100000000E-03 0. -1.
        -11    1    4    4    0    0 -0.33380881002E+01  0.40587440044E+01  0.19053703332E+01  0.55898722191E+01  0.51100000000E-03 0.  1.
        -12    1    4    4    0    0  0.55928268851E+01  0.57652598010E+00  0.15820940460E+02  0.16790302314E+02  0.00000000000E+00 0.  1.
</event>
<event>
 8    1  0.4798632E-010  0.9118800E+02  0.7816164E-02  0.1184000E+00
        -11   -1    0    0    0    0  0.00000000000E+00  0.00000000000E+00  0.45593999997E+02  0.45594000000E+02  0.51100000000E-03 0. -1.
         11   -1    0    0    0    0 -0.00000000000E+00 -0.00000000000E+00 -0.45593999997E+02  0.45594000000E+02  0.51100000000E-03 0.  1.
         23    2    1    2    0    0  0.00000000000E+00  0.00000000000E+00  0.00000000000E+00  0.91188000000E+02  0.91188000000E+02 0.  0.
    9900012    2    3    3    0    0 -0.54878870052E+01 -0.18592005753E+02  0.38830962800E+02  0.47787271277E+02  0.20000001062E+02 0.  0.
        -12    1    3    3    0    0  0.54878870052E+01  0.18592005753E+02 -0.38830962800E+02  0.43400728723E+02  0.00000000000E+00 0.  1.
         11    1    4    4    0    0 -0.43655118569E+01 -0.16818474599E+01  0.24353170597E+02  0.24798452029E+02  0.51100000000E-03 0. -1.
        -11    1    4    4    0    0 -0.85174780669E+00 -0.15211182216E+02  0.14798097022E+02  0.21238860951E+02  0.51100000000E-03 0.  1.
         12    1    4    4    0    0 -0.27062734157E+00 -0.16989760768E+01 -0.32030481926E+00  0.17499582980E+01  0.00000000000E+00 0. -1.
</event>
<event>
 8    1  0.4798632E-010  0.9118800E+02  0.7816164E-02  0.1184000E+00
        -11   -1    0    0    0    0  0.00000000000E+00  0.00000000000E+00  0.45593999997E+02  0.45594000000E+02  0.51100000000E-03 0. -1.
         11   -1    0    0    0    0 -0.00000000000E+00 -0.00000000000E+00 -0.45593999997E+02  0.45594000000E+02  0.51100000000E-03 0.  1.
         23    2    1    2    0    0  0.00000000000E+00 -0.14210854715E-13  0.00000000000E+00  0.91188000000E+02  0.91188000000E+02 0.  0.
    9900012    2    3    3    0    0  0.13466316929E+02 -0.37754499269E+02 -0.16639700002E+02  0.47787268176E+02  0.19999986921E+02 0.  0.
         12    1    3    3    0    0 -0.13466316929E+02  0.37754499269E+02  0.16639700002E+02  0.43400731824E+02  0.00000000000E+00 0. -1.
         11    1    4    4    0    0  0.91217237398E+01 -0.30189619287E+02 -0.61444777306E+01  0.32130570545E+02  0.51100000000E-03 0. -1.
        -11    1    4    4    0    0  0.24922362941E+01  0.55353992816E+00 -0.51880801242E+01  0.57821988753E+01  0.51100000000E-03 0.  1.
        -12    1    4    4    0    0  0.18523568949E+01 -0.81184199100E+01 -0.53071421477E+01  0.98744987557E+01  0.00000000000E+00 0.  1.
</event>
<event>
 8    1  0.4798632E-010  0.9118800E+02  0.7816164E-02  0.1184000E+00
        -11   -1    0    0    0    0  0.00000000000E+00  0.00000000000E+00  0.45593999997E+02  0.45594000000E+02  0.51100000000E-03 0. -1.
         11   -1    0    0    0    0 -0.00000000000E+00 -0.00000000000E+00 -0.45593999997E+02  0.45594000000E+02  0.51100000000E-03 0.  1.
         23    2    1    2    0    0  0.71054273576E-14 -0.44408920985E-15  0.00000000000E+00  0.91188000000E+02  0.91188000000E+02 0.  0.
    9900012    2    3    3    0    0  0.20199965866E+02 -0.22865017486E+01  0.38345228948E+02  0.47787270809E+02  0.19999998924E+02 0.  0.
        -12    1    3    3    0    0 -0.20199965866E+02  0.22865017486E+01 -0.38345228948E+02  0.43400729191E+02  0.00000000000E+00 0.  1.
         11    1    4    4    0    0  0.87475373588E+01 -0.39763901687E+01  0.82542346234E+01  0.12667417973E+02  0.51100000000E-03 0. -1.
        -11    1    4    4    0    0 -0.28215801745E+01 -0.16871736922E+01  0.74445349753E+01  0.81381183949E+01  0.51100000000E-03 0.  1.
        -12    1    4    4    0    0  0.14274008682E+02  0.33770621123E+01  0.22646459350E+02  0.26981734441E+02  0.00000000000E+00 0.  1.
</event>
<event>
 8    1  0.4798632E-010  0.9118800E+02  0.7816164E-02  0.1184000E+00
        -11   -1    0    0    0    0  0.00000000000E+00  0.00000000000E+00  0.45593999997E+02  0.45594000000E+02  0.51100000000E-03 0. -1.
         11   -1    0    0    0    0 -0.00000000000E+00 -0.00000000000E+00 -0.45593999997E+02  0.45594000000E+02  0.51100000000E-03 0.  1.
         23    2    1    2    0    0  0.00000000000E+00  0.00000000000E+00  0.00000000000E+00  0.91188000000E+02  0.91188000000E+02 0.  0.
    9900012    2    3    3    0    0 -0.20509395924E+02  0.21889413931E+02 -0.31366255456E+02  0.47787265620E+02  0.19999975268E+02 0.  0.
         12    1    3    3    0    0  0.20509395924E+02 -0.21889413931E+02  0.31366255456E+02  0.43400734380E+02  0.00000000000E+00 0. -1.
         11    1    4    4    0    0 -0.54365911241E+01 -0.16860746759E+01 -0.43683195688E+01  0.71750670366E+01  0.51100000000E-03 0. -1.
        -11    1    4    4    0    0 -0.24475867559E+00  0.10190877266E+02 -0.71400415814E+01  0.12445645034E+02  0.51100000000E-03 0.  1.
         12    1    4    4    0    0 -0.14828046124E+02  0.13384611340E+02 -0.19857894306E+02  0.28166553549E+02  0.00000000000E+00 0. -1.
</event>
<event>
 8    1  0.4798632E-010  0.9118800E+02  0.7816164E-02  0.1184000E+00
        -11   -1    0    0    0    0  0.00000000000E+00  0.00000000000E+00  0.45593999997E+02  0.45594000000E+02  0.51100000000E-03 0. -1.
         11   -1    0    0    0    0 -0.00000000000E+00 -0.00000000000E+00 -0.45593999997E+02  0.45594000000E+02  0.51100000000E-03 0.  1.
         23    2    1    2    0    0  0.00000000000E+00 -0.88817841970E-15  0.35527136788E-14  0.91188000000E+02  0.91188000000E+02 0.  0.
    9900012    2    3    3    0    0  0.33160148463E+02 -0.40185208513E+01  0.27710636257E+02  0.47787270539E+02  0.19999997697E+02 0.  0.
        -12    1    3    3    0    0 -0.33160148463E+02  0.40185208513E+01 -0.27710636257E+02  0.43400729461E+02  0.00000000000E+00 0.  1.
         11    1    4    4    0    0  0.87182289580E+01 -0.75094106993E+01  0.12886473211E+02  0.17275993670E+02  0.51100000000E-03 0. -1.
        -11    1    4    4    0    0  0.88666721858E+01  0.58091043978E+01  0.36832887799E+01  0.11221861969E+02  0.51100000000E-03 0.  1.
        -12    1    4    4    0    0  0.15575247320E+02 -0.23182145498E+01  0.11140874267E+02  0.19289414900E+02  0.00000000000E+00 0.  1.
</event>
<event>
 8    1  0.4798632E-010  0.9118800E+02  0.7816164E-02  0.1184000E+00
        -11   -1    0    0    0    0  0.00000000000E+00  0.00000000000E+00  0.45593999997E+02  0.45594000000E+02  0.51100000000E-03 0. -1.
         11   -1    0    0    0    0 -0.00000000000E+00 -0.00000000000E+00 -0.45593999997E+02  0.45594000000E+02  0.51100000000E-03 0.  1.
         23    2    1    2    0    0  0.35527136788E-14  0.00000000000E+00  0.00000000000E+00  0.91188000000E+02  0.91188000000E+02 0.  0.
    9900012    2    3    3    0    0  0.30062628818E+02 -0.11804858106E+02 -0.28991498853E+02  0.47787270374E+02  0.19999996941E+02 0.  0.
         12    1    3    3    0    0 -0.30062628818E+02  0.11804858106E+02  0.28991498853E+02  0.43400729626E+02  0.00000000000E+00 0. -1.
         11    1    4    4    0    0  0.43799098462E+00 -0.59078036530E+01 -0.10781165799E+02  0.12301524961E+02  0.51100000000E-03 0. -1.
        -11    1    4    4    0    0  0.22572126958E+02 -0.31376356852E+01 -0.12429450673E+02  0.25958368928E+02  0.51100000000E-03 0.  1.
         12    1    4    4    0    0  0.70525108752E+01 -0.27594187678E+01 -0.57808823811E+01  0.95273764849E+01  0.00000000000E+00 0. -1.
</event>
<event>
 8    1  0.4798632E-010  0.9118800E+02  0.7816164E-02  0.1184000E+00
        -11   -1    0    0    0    0  0.00000000000E+00  0.00000000000E+00  0.45593999997E+02  0.45594000000E+02  0.51100000000E-03 0. -1.
         11   -1    0    0    0    0 -0.00000000000E+00 -0.00000000000E+00 -0.45593999997E+02  0.45594000000E+02  0.51100000000E-03 0.  1.
         23    2    1    2    0    0 -0.71054273576E-14  0.00000000000E+00 -0.71054273576E-14  0.91188000000E+02  0.91188000000E+02 0.  0.
    9900012    2    3    3    0    0  0.29255885627E+02 -0.11940785031E+02  0.29751191070E+02  0.47787279256E+02  0.20000037439E+02 0.  0.
        -12    1    3    3    0    0 -0.29255885627E+02  0.11940785031E+02 -0.29751191070E+02  0.43400720744E+02  0.00000000000E+00 0.  1.
         11    1    4    4    0    0  0.17018535527E+01  0.15818112541E+01  0.21933431605E+01  0.31951818163E+01  0.51100000000E-03 0. -1.
        -11    1    4    4    0    0  0.10061651753E+02  0.46610339432E+00  0.17161349522E+02  0.19898894594E+02  0.51100000000E-03 0.  1.
        -12    1    4    4    0    0  0.17492380322E+02 -0.13988699680E+02  0.10396498388E+02  0.24693202846E+02  0.00000000000E+00 0.  1.
</event>
<event>
 8    1  0.4798632E-010  0.9118800E+02  0.7816164E-02  0.1184000E+00
        -11   -1    0    0    0    0  0.00000000000E+00  0.00000000000E+00  0.45593999997E+02  0.45594000000E+02  0.51100000000E-03 0.  1.
         11   -1    0    0    0    0 -0.00000000000E+00 -0.00000000000E+00 -0.45593999997E+02  0.45594000000E+02  0.51100000000E-03 0. -1.
         23    2    1    2    0    0  0.00000000000E+00  0.17763568394E-14 -0.17763568394E-14  0.91188000000E+02  0.91188000000E+02 0.  0.
    9900012    2    3    3    0    0 -0.40422053242E+02  0.97290707169E+01 -0.12450945947E+02  0.47787271201E+02  0.20000000714E+02 0.  0.
        -12    1    3    3    0    0  0.40422053242E+02 -0.97290707169E+01  0.12450945947E+02  0.43400728799E+02  0.00000000000E+00 0.  1.
         11    1    4    4    0    0 -0.84315825003E+01  0.12947257611E-01 -0.43295961405E+01  0.94782463617E+01  0.51100000000E-03 0. -1.
        -11    1    4    4    0    0 -0.23275699847E+02 -0.49868965344E+00 -0.14771158460E+01  0.23327853871E+02  0.51100000000E-03 0.  1.
        -12    1    4    4    0    0 -0.87147708947E+01  0.10214813113E+02 -0.66442339604E+01  0.14981170969E+02  0.00000000000E+00 0.  1.
</event>
<event>
 8    1  0.4798632E-010  0.9118800E+02  0.7816164E-02  0.1184000E+00
        -11   -1    0    0    0    0  0.00000000000E+00  0.00000000000E+00  0.45593999997E+02  0.45594000000E+02  0.51100000000E-03 0. -1.
         11   -1    0    0    0    0 -0.00000000000E+00 -0.00000000000E+00 -0.45593999997E+02  0.45594000000E+02  0.51100000000E-03 0.  1.
         23    2    1    2    0    0  0.00000000000E+00 -0.17763568394E-14  0.00000000000E+00  0.91188000000E+02  0.91188000000E+02 0.  0.
    9900012    2    3    3    0    0  0.11593094403E+02 -0.13531307468E+02 -0.39574326913E+02  0.47787268782E+02  0.19999989687E+02 0.  0.
         12    1    3    3    0    0 -0.11593094403E+02  0.13531307468E+02  0.39574326913E+02  0.43400731218E+02  0.00000000000E+00 0. -1.
         11    1    4    4    0    0  0.14558454857E+02 -0.38959554972E+01 -0.16391447223E+02  0.22266715505E+02  0.51100000000E-03 0. -1.
        -11    1    4    4    0    0 -0.61163215179E+00 -0.43881744575E+01 -0.14010915661E+02  0.14694758483E+02  0.51100000000E-03 0.  1.
         12    1    4    4    0    0 -0.23537283025E+01 -0.52471775138E+01 -0.91719640288E+01  0.10825794794E+02  0.00000000000E+00 0. -1.
</event>
<event>
 8    1  0.4798632E-010  0.9118800E+02  0.7816164E-02  0.1184000E+00
        -11   -1    0    0    0    0  0.00000000000E+00  0.00000000000E+00  0.45593999997E+02  0.45594000000E+02  0.51100000000E-03 0. -1.
         11   -1    0    0    0    0 -0.00000000000E+00 -0.00000000000E+00 -0.45593999997E+02  0.45594000000E+02  0.51100000000E-03 0.  1.
         23    2    1    2    0    0  0.00000000000E+00  0.00000000000E+00  0.00000000000E+00  0.91188000000E+02  0.91188000000E+02 0.  0.
    9900012    2    3    3    0    0  0.38508116768E+02  0.19620937935E+02 -0.39707608022E+01  0.47787271852E+02  0.20000003680E+02 0.  0.
        -12    1    3    3    0    0 -0.38508116768E+02 -0.19620937935E+02  0.39707608022E+01  0.43400728148E+02  0.00000000000E+00 0.  1.
         11    1    4    4    0    0  0.87466306110E+01  0.47339508681E+00  0.38443435343E+01  0.95659096496E+01  0.51100000000E-03 0. -1.
        -11    1    4    4    0    0  0.22833276247E+02  0.15444426237E+02 -0.11086119724E+02  0.29711796593E+02  0.51100000000E-03 0.  1.
        -12    1    4    4    0    0  0.69282099100E+01  0.37031166112E+01  0.32710153878E+01  0.85095656094E+01  0.00000000000E+00 0.  1.
</event>
<event>
 8    1  0.4798632E-010  0.9118800E+02  0.7816164E-02  0.1184000E+00
        -11   -1    0    0    0    0  0.00000000000E+00  0.00000000000E+00  0.45593999997E+02  0.45594000000E+02  0.51100000000E-03 0. -1.
         11   -1    0    0    0    0 -0.00000000000E+00 -0.00000000000E+00 -0.45593999997E+02  0.45594000000E+02  0.51100000000E-03 0.  1.
         23    2    1    2    0    0  0.71054273576E-14 -0.35527136788E-14  0.35527136788E-14  0.91188000000E+02  0.91188000000E+02 0.  0.
    9900012    2    3    3    0    0 -0.22756655068E+02  0.26947228275E+02 -0.25290412473E+02  0.47787269308E+02  0.19999992081E+02 0.  0.
         12    1    3    3    0    0  0.22756655068E+02 -0.26947228275E+02  0.25290412473E+02  0.43400730692E+02  0.00000000000E+00 0. -1.
         11    1    4    4    0    0 -0.22889334379E+01  0.75260135043E+00 -0.42707047178E+01  0.49035236436E+01  0.51100000000E-03 0.  1.
        -11    1    4    4    0    0  0.14149706812E+01 -0.33998551940E+00 -0.44977598790E+01  0.47273223259E+01  0.51100000000E-03 0. -1.
        -12    1    4    4    0    0 -0.21882692312E+02  0.26534612444E+02 -0.16521947876E+02  0.38156423338E+02  0.00000000000E+00 0.  1.
</event>
<event>
 8    1  0.4798632E-010  0.9118800E+02  0.7816164E-02  0.1184000E+00
        -11   -1    0    0    0    0  0.00000000000E+00  0.00000000000E+00  0.45593999997E+02  0.45594000000E+02  0.51100000000E-03 0. -1.
         11   -1    0    0    0    0 -0.00000000000E+00 -0.00000000000E+00 -0.45593999997E+02  0.45594000000E+02  0.51100000000E-03 0.  1.
         23    2    1    2    0    0  0.17763568394E-14 -0.35527136788E-14 -0.71054273576E-14  0.91188000000E+02  0.91188000000E+02 0.  0.
    9900012    2    3    3    0    0  0.15187028752E+02 -0.16679400729E+02 -0.37077957316E+02  0.47787272244E+02  0.20000005471E+02 0.  0.
         12    1    3    3    0    0 -0.15187028752E+02  0.16679400729E+02  0.37077957316E+02  0.43400727756E+02  0.00000000000E+00 0. -1.
         11    1    4    4    0    0  0.39648699221E+00 -0.37233071050E+00  0.83878585695E+00  0.99969698805E+00  0.51100000000E-03 0. -1.
        -11    1    4    4    0    0  0.99972241184E+00 -0.25405118037E+01  0.12793285752E+01  0.30150169137E+01  0.51100000000E-03 0.  1.
        -12    1    4    4    0    0  0.13790819348E+02 -0.13766558215E+02 -0.39196071748E+02  0.43772558343E+02  0.00000000000E+00 0.  1.
</event>
<event>
 8    1  0.4798632E-010  0.9118800E+02  0.7816164E-02  0.1184000E+00
        -11   -1    0    0    0    0  0.00000000000E+00  0.00000000000E+00  0.45593999997E+02  0.45594000000E+02  0.51100000000E-03 0. -1.
         11   -1    0    0    0    0 -0.00000000000E+00 -0.00000000000E+00 -0.45593999997E+02  0.45594000000E+02  0.51100000000E-03 0.  1.
         23    2    1    2    0    0  0.35527136788E-14  0.00000000000E+00  0.00000000000E+00  0.91188000000E+02  0.91188000000E+02 0.  0.
    9900012    2    3    3    0    0 -0.31844194832E+02  0.26914623932E+02  0.12048802233E+02  0.47787270039E+02  0.19999995416E+02 0.  0.
        -12    1    3    3    0    0  0.31844194832E+02 -0.26914623932E+02 -0.12048802233E+02  0.43400729961E+02  0.00000000000E+00 0.  1.
         11    1    4    4    0    0 -0.14918193005E+02  0.36418389174E+01  0.80216356164E+01  0.17325187198E+02  0.51100000000E-03 0. -1.
        -11    1    4    4    0    0 -0.53680291300E+01  0.24658634984E+01 -0.13524336742E+01  0.60601399850E+01  0.51100000000E-03 0.  1.
         12    1    4    4    0    0 -0.11557972697E+02  0.20806921516E+02  0.53796002910E+01  0.24401942856E+02  0.00000000000E+00 0. -1.
</event>
<event>
 8    1  0.4798632E-010  0.9118800E+02  0.7816164E-02  0.1184000E+00
        -11   -1    0    0    0    0  0.00000000000E+00  0.00000000000E+00  0.45593999997E+02  0.45594000000E+02  0.51100000000E-03 0. -1.
         11   -1    0    0    0    0 -0.00000000000E+00 -0.00000000000E+00 -0.45593999997E+02  0.45594000000E+02  0.51100000000E-03 0.  1.
         23    2    1    2    0    0  0.00000000000E+00  0.00000000000E+00  0.00000000000E+00  0.91188000000E+02  0.91188000000E+02 0.  0.
    9900012    2    3    3    0    0  0.31908016452E+02  0.22201587913E+02  0.19302623648E+02  0.47787270749E+02  0.19999998655E+02 0.  0.
        -12    1    3    3    0    0 -0.31908016452E+02 -0.22201587913E+02 -0.19302623648E+02  0.43400729251E+02  0.00000000000E+00 0.  1.
         11    1    4    4    0    0  0.31114878078E+02  0.15709984170E+02  0.16802967743E+02  0.38694689115E+02  0.51100000000E-03 0. -1.
        -11    1    4    4    0    0 -0.11007759484E+01  0.35188052269E+01 -0.13002860637E+01  0.39095321999E+01  0.51100000000E-03 0.  1.
         12    1    4    4    0    0  0.18939143226E+01  0.29727985158E+01  0.37999419686E+01  0.51830494346E+01  0.00000000000E+00 0. -1.
</event>
<event>
 8    1  0.4798632E-010  0.9118800E+02  0.7816164E-02  0.1184000E+00
        -11   -1    0    0    0    0  0.00000000000E+00  0.00000000000E+00  0.45593999997E+02  0.45594000000E+02  0.51100000000E-03 0.  1.
         11   -1    0    0    0    0 -0.00000000000E+00 -0.00000000000E+00 -0.45593999997E+02  0.45594000000E+02  0.51100000000E-03 0. -1.
         23    2    1    2    0    0  0.35527136788E-14  0.00000000000E+00  0.71054273576E-14  0.91188000000E+02  0.91188000000E+02 0.  0.
    9900012    2    3    3    0    0 -0.20337567662E+02  0.28238110688E+02 -0.25934842899E+02  0.47787266943E+02  0.19999981302E+02 0.  0.
         12    1    3    3    0    0  0.20337567662E+02 -0.28238110688E+02  0.25934842899E+02  0.43400733057E+02  0.00000000000E+00 0. -1.
         11    1    4    4    0    0 -0.46398005890E+01  0.16916656517E+02 -0.16126416333E+02  0.23827763664E+02  0.51100000000E-03 0. -1.
        -11    1    4    4    0    0 -0.72938192596E+01  0.29999422430E+01  0.98493532870E+00  0.79479274478E+01  0.51100000000E-03 0.  1.
         12    1    4    4    0    0 -0.84039478138E+01  0.83215119283E+01 -0.10793361895E+02  0.16011575832E+02  0.00000000000E+00 0. -1.
</event>
<event>
 8    1  0.4798632E-010  0.9118800E+02  0.7816164E-02  0.1184000E+00
        -11   -1    0    0    0    0  0.00000000000E+00  0.00000000000E+00  0.45593999997E+02  0.45594000000E+02  0.51100000000E-03 0.  1.
         11   -1    0    0    0    0 -0.00000000000E+00 -0.00000000000E+00 -0.45593999997E+02  0.45594000000E+02  0.51100000000E-03 0. -1.
         23    2    1    2    0    0  0.00000000000E+00  0.00000000000E+00 -0.22204460493E-15  0.91188000000E+02  0.91188000000E+02 0.  0.
    9900012    2    3    3    0    0 -0.42345291157E+02 -0.94997498452E+01 -0.50447347354E+00  0.47787269318E+02  0.19999992127E+02 0.  0.
        -12    1    3    3    0    0  0.42345291157E+02  0.94997498452E+01  0.50447347354E+00  0.43400730682E+02  0.00000000000E+00 0.  1.
         11    1    4    4    0    0 -0.45074148672E+01  0.19807009184E+01 -0.39044666696E+01  0.62836951826E+01  0.51100000000E-03 0. -1.
        -11    1    4    4    0    0 -0.31252591555E+02 -0.11317790542E+02  0.70419322977E+01  0.33976545916E+02  0.51100000000E-03 0.  1.
        -12    1    4    4    0    0 -0.65852847346E+01 -0.16266022136E+00 -0.36419391016E+01  0.75270282186E+01  0.00000000000E+00 0.  1.
</event>
<event>
 8    1  0.4798632E-010  0.9118800E+02  0.7816164E-02  0.1184000E+00
        -11   -1    0    0    0    0  0.00000000000E+00  0.00000000000E+00  0.45593999997E+02  0.45594000000E+02  0.51100000000E-03 0.  1.
         11   -1    0    0    0    0 -0.00000000000E+00 -0.00000000000E+00 -0.45593999997E+02  0.45594000000E+02  0.51100000000E-03 0. -1.
         23    2    1    2    0    0  0.00000000000E+00  0.00000000000E+00  0.00000000000E+00  0.91188000000E+02  0.91188000000E+02 0.  0.
    9900012    2    3    3    0    0 -0.54025865509E+01  0.41916086230E+02 -0.98730531273E+01  0.47787269541E+02  0.19999993146E+02 0.  0.
         12    1    3    3    0    0  0.54025865509E+01 -0.41916086230E+02  0.98730531273E+01  0.43400730459E+02  0.00000000000E+00 0. -1.
         11    1    4    4    0    0 -0.10510385075E+00  0.33906712015E+01 -0.35024437459E+01  0.48759420085E+01  0.51100000000E-03 0. -1.
        -11    1    4    4    0    0 -0.95096602574E+01  0.10872905154E+02 -0.27864300671E+01  0.14711148748E+02  0.51100000000E-03 0.  1.
        -12    1    4    4    0    0  0.42121775573E+01  0.27652509875E+02 -0.35841793143E+01  0.28200178785E+02  0.00000000000E+00 0.  1.
</event>
<event>
 8    1  0.4798632E-010  0.9118800E+02  0.7816164E-02  0.1184000E+00
        -11   -1    0    0    0    0  0.00000000000E+00  0.00000000000E+00  0.45593999997E+02  0.45594000000E+02  0.51100000000E-03 0.  1.
         11   -1    0    0    0    0 -0.00000000000E+00 -0.00000000000E+00 -0.45593999997E+02  0.45594000000E+02  0.51100000000E-03 0. -1.
         23    2    1    2    0    0  0.00000000000E+00 -0.71054273576E-14 -0.44408920985E-15  0.91188000000E+02  0.91188000000E+02 0.  0.
    9900012    2    3    3    0    0  0.67702031021E+01  0.42805003923E+02  0.23490483153E+01  0.47787285272E+02  0.20000064869E+02 0.  0.
         12    1    3    3    0    0 -0.67702031021E+01 -0.42805003923E+02 -0.23490483153E+01  0.43400714728E+02  0.00000000000E+00 0. -1.
         11    1    4    4    0    0  0.85765886156E-02  0.32754385733E+02  0.42984748549E+01  0.33035234896E+02  0.51100000000E-03 0. -1.
        -11    1    4    4    0    0  0.15258079766E+01  0.56932694723E+01  0.27220021629E+01  0.64923572993E+01  0.51100000000E-03 0.  1.
         12    1    4    4    0    0  0.52358185368E+01  0.43573487184E+01 -0.46714287024E+01  0.82596930770E+01  0.00000000000E+00 0. -1.
</event>
<event>
 8    1  0.4798632E-010  0.9118800E+02  0.7816164E-02  0.1184000E+00
        -11   -1    0    0    0    0  0.00000000000E+00  0.00000000000E+00  0.45593999997E+02  0.45594000000E+02  0.51100000000E-03 0.  1.
         11   -1    0    0    0    0 -0.00000000000E+00 -0.00000000000E+00 -0.45593999997E+02  0.45594000000E+02  0.51100000000E-03 0. -1.
         23    2    1    2    0    0 -0.35527136788E-14  0.00000000000E+00  0.00000000000E+00  0.91188000000E+02  0.91188000000E+02 0.  0.
    9900012    2    3    3    0    0 -0.20351853807E+02 -0.36770537849E+02 -0.10832959310E+02  0.47787269424E+02  0.19999992613E+02 0.  0.
         12    1    3    3    0    0  0.20351853807E+02  0.36770537849E+02  0.10832959310E+02  0.43400730576E+02  0.00000000000E+00 0. -1.
         11    1    4    4    0    0 -0.15449963646E+02 -0.14176458285E+02 -0.26649914467E+01  0.21137065214E+02  0.51100000000E-03 0. -1.
        -11    1    4    4    0    0 -0.32986392372E+01 -0.23308363632E+02 -0.70678348860E+01  0.24578753554E+02  0.51100000000E-03 0.  1.
        -12    1    4    4    0    0 -0.16032509236E+01  0.71428406845E+00 -0.11001329773E+01  0.20714506565E+01  0.00000000000E+00 0.  1.
</event>
<event>
 8    1  0.4798632E-010  0.9118800E+02  0.7816164E-02  0.1184000E+00
        -11   -1    0    0    0    0  0.00000000000E+00  0.00000000000E+00  0.45593999997E+02  0.45594000000E+02  0.51100000000E-03 0. -1.
         11   -1    0    0    0    0 -0.00000000000E+00 -0.00000000000E+00 -0.45593999997E+02  0.45594000000E+02  0.51100000000E-03 0.  1.
         23    2    1    2    0    0  0.00000000000E+00  0.00000000000E+00 -0.35527136788E-14  0.91188000000E+02  0.91188000000E+02 0.  0.
    9900012    2    3    3    0    0  0.35647957684E+02 -0.12473863771E+02  0.21383383381E+02  0.47787271329E+02  0.20000001296E+02 0.  0.
        -12    1    3    3    0    0 -0.35647957684E+02  0.12473863771E+02 -0.21383383381E+02  0.43400728671E+02  0.00000000000E+00 0.  1.
         11    1    4    4    0    0  0.31341234500E+02 -0.11272990350E+02  0.22154774351E+02  0.40002341409E+02  0.51100000000E-03 0. -1.
        -11    1    4    4    0    0  0.10999213179E+01 -0.28727829739E+01 -0.23178968936E+01  0.38516691435E+01  0.51100000000E-03 0.  1.
         12    1    4    4    0    0  0.32068018660E+01  0.16719095530E+01  0.15465059235E+01  0.39332607761E+01  0.00000000000E+00 0. -1.
</event>
<event>
 8    1  0.4798632E-010  0.9118800E+02  0.7816164E-02  0.1184000E+00
        -11   -1    0    0    0    0  0.00000000000E+00  0.00000000000E+00  0.45593999997E+02  0.45594000000E+02  0.51100000000E-03 0. -1.
         11   -1    0    0    0    0 -0.00000000000E+00 -0.00000000000E+00 -0.45593999997E+02  0.45594000000E+02  0.51100000000E-03 0.  1.
         23    2    1    2    0    0 -0.44408920985E-15  0.00000000000E+00  0.00000000000E+00  0.91188000000E+02  0.91188000000E+02 0.  0.
    9900012    2    3    3    0    0 -0.37975510438E+01  0.91241672772E+01 -0.42260519898E+02  0.47787270000E+02  0.19999995240E+02 0.  0.
         12    1    3    3    0    0  0.37975510438E+01 -0.91241672772E+01  0.42260519898E+02  0.43400730000E+02  0.00000000000E+00 0. -1.
         11    1    4    4    0    0 -0.22088778422E+01 -0.28895887946E+01 -0.27574644109E+00  0.36475883930E+01  0.51100000000E-03 0. -1.
        -11    1    4    4    0    0  0.29234765569E+00  0.98809001694E+01 -0.24398805632E+02  0.26325261097E+02  0.51100000000E-03 0.  1.
         12    1    4    4    0    0 -0.18810208573E+01  0.21328559024E+01 -0.17585967825E+02  0.17814420510E+02  0.00000000000E+00 0. -1.
</event>
<event>
 8    1  0.4798632E-010  0.9118800E+02  0.7816164E-02  0.1184000E+00
        -11   -1    0    0    0    0  0.00000000000E+00  0.00000000000E+00  0.45593999997E+02  0.45594000000E+02  0.51100000000E-03 0.  1.
         11   -1    0    0    0    0 -0.00000000000E+00 -0.00000000000E+00 -0.45593999997E+02  0.45594000000E+02  0.51100000000E-03 0. -1.
         23    2    1    2    0    0  0.00000000000E+00  0.00000000000E+00 -0.17763568394E-14  0.91188000000E+02  0.91188000000E+02 0.  0.
    9900012    2    3    3    0    0 -0.22860275113E+02 -0.34279368356E+02 -0.13636448164E+02  0.47787308857E+02  0.20000172402E+02 0.  0.
         12    1    3    3    0    0  0.22860275113E+02  0.34279368356E+02  0.13636448164E+02  0.43400691143E+02  0.00000000000E+00 0. -1.
         11    1    4    4    0    0  0.12386741658E+01  0.35918922184E+00 -0.24821510297E+01  0.27972137176E+01  0.51100000000E-03 0. -1.
        -11    1    4    4    0    0 -0.16680163476E+02 -0.31263019113E+02 -0.90023172081E+01  0.36560168668E+02  0.51100000000E-03 0.  1.
        -12    1    4    4    0    0 -0.74187858027E+01 -0.33755384653E+01 -0.21519799265E+01  0.84299264719E+01  0.00000000000E+00 0.  1.
</event>
<event>
 8    1  0.4798632E-010  0.9118800E+02  0.7816164E-02  0.1184000E+00
        -11   -1    0    0    0    0  0.00000000000E+00  0.00000000000E+00  0.45593999997E+02  0.45594000000E+02  0.51100000000E-03 0.  1.
         11   -1    0    0    0    0 -0.00000000000E+00 -0.00000000000E+00 -0.45593999997E+02  0.45594000000E+02  0.51100000000E-03 0. -1.
         23    2    1    2    0    0  0.00000000000E+00  0.00000000000E+00  0.00000000000E+00  0.91188000000E+02  0.91188000000E+02 0.  0.
    9900012    2    3    3    0    0 -0.23846355533E+02  0.35630046105E+02 -0.67434709207E+01  0.47787271231E+02  0.20000000849E+02 0.  0.
         12    1    3    3    0    0  0.23846355533E+02 -0.35630046105E+02  0.67434709207E+01  0.43400728769E+02  0.00000000000E+00 0. -1.
         11    1    4    4    0    0 -0.56235706077E+01  0.13985954656E+02  0.46268837826E+01  0.15768307703E+02  0.51100000000E-03 0.  1.
        -11    1    4    4    0    0 -0.12919594853E+02  0.12572884286E+02 -0.11725418903E+02  0.21505320252E+02  0.51100000000E-03 0. -1.
         12    1    4    4    0    0 -0.53031900723E+01  0.90712071628E+01  0.35506419949E+00  0.10513643275E+02  0.00000000000E+00 0. -1.
</event>
<event>
 8    1  0.4798632E-010  0.9118800E+02  0.7816164E-02  0.1184000E+00
        -11   -1    0    0    0    0  0.00000000000E+00  0.00000000000E+00  0.45593999997E+02  0.45594000000E+02  0.51100000000E-03 0. -1.
         11   -1    0    0    0    0 -0.00000000000E+00 -0.00000000000E+00 -0.45593999997E+02  0.45594000000E+02  0.51100000000E-03 0.  1.
         23    2    1    2    0    0  0.00000000000E+00  0.00000000000E+00  0.00000000000E+00  0.91188000000E+02  0.91188000000E+02 0.  0.
    9900012    2    3    3    0    0 -0.30273044226E+02  0.68120508584E+01 -0.30344052658E+02  0.47787276789E+02  0.20000026190E+02 0.  0.
         12    1    3    3    0    0  0.30273044226E+02 -0.68120508584E+01  0.30344052658E+02  0.43400723211E+02  0.00000000000E+00 0. -1.
         11    1    4    4    0    0 -0.27659820143E+02  0.67186510559E+01 -0.20045175027E+02  0.34814005292E+02  0.51100000000E-03 0. -1.
        -11    1    4    4    0    0  0.51804359145E+00  0.33154882571E+01 -0.37614767538E+01  0.50407875551E+01  0.51100000000E-03 0.  1.
         12    1    4    4    0    0 -0.31312676743E+01 -0.32220884546E+01 -0.65374008767E+01  0.79324839414E+01  0.00000000000E+00 0. -1.
</event>
<event>
 8    1  0.4798632E-010  0.9118800E+02  0.7816164E-02  0.1184000E+00
        -11   -1    0    0    0    0  0.00000000000E+00  0.00000000000E+00  0.45593999997E+02  0.45594000000E+02  0.51100000000E-03 0. -1.
         11   -1    0    0    0    0 -0.00000000000E+00 -0.00000000000E+00 -0.45593999997E+02  0.45594000000E+02  0.51100000000E-03 0.  1.
         23    2    1    2    0    0  0.00000000000E+00  0.35527136788E-14  0.00000000000E+00  0.91188000000E+02  0.91188000000E+02 0.  0.
    9900012    2    3    3    0    0  0.26686537043E+02 -0.26987041068E+02 -0.21051125876E+02  0.47787290955E+02  0.20000090780E+02 0.  0.
         12    1    3    3    0    0 -0.26686537043E+02  0.26987041068E+02  0.21051125876E+02  0.43400709045E+02  0.00000000000E+00 0. -1.
         11    1    4    4    0    0  0.77208345892E+01 -0.17455005290E+02 -0.11306453985E+02  0.22183876992E+02  0.51100000000E-03 0. -1.
        -11    1    4    4    0    0  0.18622909620E+02 -0.96313073356E+01 -0.11430988600E+02  0.23879747577E+02  0.51100000000E-03 0.  1.
         12    1    4    4    0    0  0.34279283367E+00  0.99271557694E-01  0.16863167083E+01  0.17236663858E+01  0.00000000000E+00 0. -1.
</event>
<event>
 8    1  0.4798632E-010  0.9118800E+02  0.7816164E-02  0.1184000E+00
        -11   -1    0    0    0    0  0.00000000000E+00  0.00000000000E+00  0.45593999997E+02  0.45594000000E+02  0.51100000000E-03 0.  1.
         11   -1    0    0    0    0 -0.00000000000E+00 -0.00000000000E+00 -0.45593999997E+02  0.45594000000E+02  0.51100000000E-03 0. -1.
         23    2    1    2    0    0  0.35527136788E-14  0.00000000000E+00  0.00000000000E+00  0.91188000000E+02  0.91188000000E+02 0.  0.
    9900012    2    3    3    0    0 -0.31934613990E+02 -0.29338325843E+02 -0.17509902477E+01  0.47787275342E+02  0.20000019596E+02 0.  0.
         12    1    3    3    0    0  0.31934613990E+02  0.29338325843E+02  0.17509902477E+01  0.43400724658E+02  0.00000000000E+00 0. -1.
         11    1    4    4    0    0 -0.10058321005E+02 -0.25889297982E+01  0.10595875669E+01  0.10440072078E+02  0.51100000000E-03 0. -1.
        -11    1    4    4    0    0 -0.22046958879E+02 -0.20093920558E+02 -0.51878414921E+01  0.30277842373E+02  0.51100000000E-03 0.  1.
        -12    1    4    4    0    0  0.17066589327E+00 -0.66554754871E+01  0.23772636774E+01  0.70693608904E+01  0.00000000000E+00 0.  1.
</event>
<event>
 8    1  0.4798632E-010  0.9118800E+02  0.7816164E-02  0.1184000E+00
        -11   -1    0    0    0    0  0.00000000000E+00  0.00000000000E+00  0.45593999997E+02  0.45594000000E+02  0.51100000000E-03 0. -1.
         11   -1    0    0    0    0 -0.00000000000E+00 -0.00000000000E+00 -0.45593999997E+02  0.45594000000E+02  0.51100000000E-03 0.  1.
         23    2    1    2    0    0  0.00000000000E+00  0.71054273576E-14 -0.35527136788E-14  0.91188000000E+02  0.91188000000E+02 0.  0.
    9900012    2    3    3    0    0 -0.26623450524E+02 -0.27096904675E+02  0.20989834890E+02  0.47787268099E+02  0.19999986572E+02 0.  0.
        -12    1    3    3    0    0  0.26623450524E+02  0.27096904675E+02 -0.20989834890E+02  0.43400731901E+02  0.00000000000E+00 0.  1.
         11    1    4    4    0    0 -0.14407594547E+02 -0.15028070878E+02  0.17424839623E+02  0.27148604588E+02  0.51100000000E-03 0. -1.
        -11    1    4    4    0    0  0.18106377638E+01 -0.15978590002E+01 -0.89531541594E+00  0.25754907205E+01  0.51100000000E-03 0.  1.
         12    1    4    4    0    0 -0.14026493741E+02 -0.10470974797E+02  0.44603106834E+01  0.18063172791E+02  0.00000000000E+00 0. -1.
</event>
<event>
 8    1  0.4798632E-010  0.9118800E+02  0.7816164E-02  0.1184000E+00
        -11   -1    0    0    0    0  0.00000000000E+00  0.00000000000E+00  0.45593999997E+02  0.45594000000E+02  0.51100000000E-03 0. -1.
         11   -1    0    0    0    0 -0.00000000000E+00 -0.00000000000E+00 -0.45593999997E+02  0.45594000000E+02  0.51100000000E-03 0.  1.
         23    2    1    2    0    0  0.00000000000E+00  0.00000000000E+00  0.00000000000E+00  0.91188000000E+02  0.91188000000E+02 0.  0.
    9900012    2    3    3    0    0  0.60294484418E+01 -0.19395072493E+02 -0.38354917510E+02  0.47787276703E+02  0.20000025800E+02 0.  0.
         12    1    3    3    0    0 -0.60294484418E+01  0.19395072493E+02  0.38354917510E+02  0.43400723297E+02  0.00000000000E+00 0. -1.
         11    1    4    4    0    0  0.74908733173E+00 -0.10219178979E+02 -0.14168972287E+02  0.17485780702E+02  0.51100000000E-03 0. -1.
        -11    1    4    4    0    0  0.48479042328E-01 -0.10794369426E+02 -0.21803396467E+02  0.24329177119E+02  0.51100000000E-03 0.  1.
         12    1    4    4    0    0  0.52318820677E+01  0.16184759129E+01 -0.23825487560E+01  0.59723188818E+01  0.00000000000E+00 0. -1.
</event>
<event>
 8    1  0.4798632E-010  0.9118800E+02  0.7816164E-02  0.1184000E+00
        -11   -1    0    0    0    0  0.00000000000E+00  0.00000000000E+00  0.45593999997E+02  0.45594000000E+02  0.51100000000E-03 0. -1.
         11   -1    0    0    0    0 -0.00000000000E+00 -0.00000000000E+00 -0.45593999997E+02  0.45594000000E+02  0.51100000000E-03 0.  1.
         23    2    1    2    0    0  0.00000000000E+00  0.00000000000E+00  0.00000000000E+00  0.91188000000E+02  0.91188000000E+02 0.  0.
    9900012    2    3    3    0    0 -0.18874000861E+02 -0.30625780320E+02 -0.24278733586E+02  0.47787271513E+02  0.20000002135E+02 0.  0.
         12    1    3    3    0    0  0.18874000861E+02  0.30625780320E+02  0.24278733586E+02  0.43400728487E+02  0.00000000000E+00 0. -1.
         11    1    4    4    0    0  0.30784697370E+01 -0.90018633569E+01 -0.42755008326E+01  0.10430264975E+02  0.51100000000E-03 0. -1.
        -11    1    4    4    0    0 -0.13224814889E+02 -0.11328298846E+02 -0.14931326873E+02  0.22938408969E+02  0.51100000000E-03 0.  1.
         12    1    4    4    0    0 -0.87276557092E+01 -0.10295618117E+02 -0.50719058801E+01  0.14418597568E+02  0.00000000000E+00 0. -1.
</event>
<event>
 8    1  0.5473026E-010  0.9118800E+02  0.7816164E-02  0.1184000E+00
        -11   -1    0    0    0    0  0.00000000000E+00  0.00000000000E+00  0.45593999997E+02  0.45594000000E+02  0.51100000000E-03 0. -1.
         11   -1    0    0    0    0 -0.00000000000E+00 -0.00000000000E+00 -0.45593999997E+02  0.45594000000E+02  0.51100000000E-03 0.  1.
         23    2    1    2    0    0  0.88817841970E-15  0.00000000000E+00  0.00000000000E+00  0.91188000000E+02  0.91188000000E+02 0.  0.
    9900012    2    3    3    0    0 -0.48909296305E+01  0.23643122185E+02 -0.36065269295E+02  0.47787284929E+02  0.20000063305E+02 0.  0.
         12    1    3    3    0    0  0.48909296305E+01 -0.23643122185E+02  0.36065269295E+02  0.43400715071E+02  0.00000000000E+00 0. -1.
         11    1    4    4    0    0  0.46859442291E+01  0.53521584384E+01 -0.33509315374E+01  0.78633590595E+01  0.51100000000E-03 0. -1.
        -11    1    4    4    0    0 -0.83617734263E+01  0.59963248893E+01 -0.17769627173E+02  0.20533748248E+02  0.51100000000E-03 0.  1.
        -12    1    4    4    0    0 -0.12151004333E+01  0.12294638858E+02 -0.14944710585E+02  0.19390177621E+02  0.00000000000E+00 0.  1.
</event>
<event>
 8    1  0.4798632E-010  0.9118800E+02  0.7816164E-02  0.1184000E+00
        -11   -1    0    0    0    0  0.00000000000E+00  0.00000000000E+00  0.45593999997E+02  0.45594000000E+02  0.51100000000E-03 0. -1.
         11   -1    0    0    0    0 -0.00000000000E+00 -0.00000000000E+00 -0.45593999997E+02  0.45594000000E+02  0.51100000000E-03 0.  1.
         23    2    1    2    0    0  0.00000000000E+00  0.00000000000E+00  0.00000000000E+00  0.91188000000E+02  0.91188000000E+02 0.  0.
    9900012    2    3    3    0    0 -0.78274275038E+01  0.40903772493E+02  0.12216242302E+02  0.47787264966E+02  0.19999972287E+02 0.  0.
        -12    1    3    3    0    0  0.78274275038E+01 -0.40903772493E+02 -0.12216242302E+02  0.43400735034E+02  0.00000000000E+00 0.  1.
         11    1    4    4    0    0 -0.13461649299E+01  0.53544847161E+01 -0.14824281763E+01  0.57166651250E+01  0.51100000000E-03 0. -1.
        -11    1    4    4    0    0  0.21315552919E+00  0.32241292483E+02  0.10140587869E+02  0.33799081331E+02  0.51100000000E-03 0.  1.
        -12    1    4    4    0    0 -0.66944181031E+01  0.33079952941E+01  0.35580826091E+01  0.82715185098E+01  0.00000000000E+00 0.  1.
</event>
<event>
 8    1  0.4798632E-010  0.9118800E+02  0.7816164E-02  0.1184000E+00
        -11   -1    0    0    0    0  0.00000000000E+00  0.00000000000E+00  0.45593999997E+02  0.45594000000E+02  0.51100000000E-03 0. -1.
         11   -1    0    0    0    0 -0.00000000000E+00 -0.00000000000E+00 -0.45593999997E+02  0.45594000000E+02  0.51100000000E-03 0.  1.
         23    2    1    2    0    0 -0.17763568394E-14 -0.71054273576E-14  0.35527136788E-14  0.91188000000E+02  0.91188000000E+02 0.  0.
    9900012    2    3    3    0    0  0.88736274642E+01  0.35450669092E+02 -0.23412223417E+02  0.47787269490E+02  0.19999992912E+02 0.  0.
         12    1    3    3    0    0 -0.88736274642E+01 -0.35450669092E+02  0.23412223417E+02  0.43400730510E+02  0.00000000000E+00 0. -1.
         11    1    4    4    0    0  0.22384355246E+01  0.13579111984E+01 -0.38035431974E+01  0.46175163818E+01  0.51100000000E-03 0. -1.
        -11    1    4    4    0    0 -0.91950127389E+00 -0.16044264394E+01 -0.25455623163E+00  0.18666724212E+01  0.51100000000E-03 0.  1.
        -12    1    4    4    0    0  0.75546932135E+01  0.35697184333E+02 -0.19354123988E+02  0.41303080687E+02  0.00000000000E+00 0.  1.
</event>
<event>
 8    1  0.4798632E-010  0.9118800E+02  0.7816164E-02  0.1184000E+00
        -11   -1    0    0    0    0  0.00000000000E+00  0.00000000000E+00  0.45593999997E+02  0.45594000000E+02  0.51100000000E-03 0. -1.
         11   -1    0    0    0    0 -0.00000000000E+00 -0.00000000000E+00 -0.45593999997E+02  0.45594000000E+02  0.51100000000E-03 0.  1.
         23    2    1    2    0    0 -0.17763568394E-14 -0.88817841970E-15  0.71054273576E-14  0.91188000000E+02  0.91188000000E+02 0.  0.
    9900012    2    3    3    0    0 -0.98639659361E+01  0.73954937402E+01 -0.41612881429E+02  0.47787273595E+02  0.20000011629E+02 0.  0.
         12    1    3    3    0    0  0.98639659361E+01 -0.73954937402E+01  0.41612881429E+02  0.43400726405E+02  0.00000000000E+00 0. -1.
         11    1    4    4    0    0 -0.12420048228E+02  0.30561399026E+01 -0.39016000567E+02  0.41059053686E+02  0.51100000000E-03 0. -1.
        -11    1    4    4    0    0  0.10504514177E+01  0.37298851343E+01 -0.31693088742E+01  0.50059974328E+01  0.51100000000E-03 0.  1.
         12    1    4    4    0    0  0.15056308737E+01  0.60946870327E+00  0.57242801209E+00  0.17222224761E+01  0.00000000000E+00 0. -1.
</event>
<event>
 8    1  0.4798632E-010  0.9118800E+02  0.7816164E-02  0.1184000E+00
        -11   -1    0    0    0    0  0.00000000000E+00  0.00000000000E+00  0.45593999997E+02  0.45594000000E+02  0.51100000000E-03 0. -1.
         11   -1    0    0    0    0 -0.00000000000E+00 -0.00000000000E+00 -0.45593999997E+02  0.45594000000E+02  0.51100000000E-03 0.  1.
         23    2    1    2    0    0  0.00000000000E+00  0.00000000000E+00  0.00000000000E+00  0.91188000000E+02  0.91188000000E+02 0.  0.
    9900012    2    3    3    0    0  0.45676040924E+01 -0.32340371743E+02  0.28580776166E+02  0.47787269385E+02  0.19999992436E+02 0.  0.
        -12    1    3    3    0    0 -0.45676040924E+01  0.32340371743E+02 -0.28580776166E+02  0.43400730615E+02  0.00000000000E+00 0.  1.
         11    1    4    4    0    0  0.30304606954E+01  0.15965648089E+01  0.44371000768E+01  0.56054052992E+01  0.51100000000E-03 0.  1.
        -11    1    4    4    0    0  0.91348738625E+00 -0.24092038193E+02  0.20562913369E+02  0.31687444990E+02  0.51100000000E-03 0. -1.
        -12    1    4    4    0    0  0.62365601069E+00 -0.98448983587E+01  0.35807627208E+01  0.10494419097E+02  0.00000000000E+00 0.  1.
</event>
<event>
 8    1  0.4798632E-010  0.9118800E+02  0.7816164E-02  0.1184000E+00
        -11   -1    0    0    0    0  0.00000000000E+00  0.00000000000E+00  0.45593999997E+02  0.45594000000E+02  0.51100000000E-03 0. -1.
         11   -1    0    0    0    0 -0.00000000000E+00 -0.00000000000E+00 -0.45593999997E+02  0.45594000000E+02  0.51100000000E-03 0.  1.
         23    2    1    2    0    0 -0.17763568394E-14 -0.35527136788E-14  0.00000000000E+00  0.91188000000E+02  0.91188000000E+02 0.  0.
    9900012    2    3    3    0    0 -0.13552763423E+02 -0.25791335371E+02 -0.32167591704E+02  0.47787258846E+02  0.19999944384E+02 0.  0.
         12    1    3    3    0    0  0.13552763423E+02  0.25791335371E+02  0.32167591704E+02  0.43400741154E+02  0.00000000000E+00 0. -1.
         11    1    4    4    0    0 -0.12313432383E+02 -0.13930033763E+02 -0.25031444018E+02  0.31180757649E+02  0.51100000000E-03 0.  1.
        -11    1    4    4    0    0  0.39342233247E+01 -0.44306418243E+01 -0.31931879804E+01  0.67309100338E+01  0.51100000000E-03 0. -1.
        -12    1    4    4    0    0 -0.51735543641E+01 -0.74306597844E+01 -0.39429597064E+01  0.98755911638E+01  0.00000000000E+00 0.  1.
</event>
<event>
 8    1  0.4798632E-010  0.9118800E+02  0.7816164E-02  0.1184000E+00
        -11   -1    0    0    0    0  0.00000000000E+00  0.00000000000E+00  0.45593999997E+02  0.45594000000E+02  0.51100000000E-03 0. -1.
         11   -1    0    0    0    0 -0.00000000000E+00 -0.00000000000E+00 -0.45593999997E+02  0.45594000000E+02  0.51100000000E-03 0.  1.
         23    2    1    2    0    0  0.00000000000E+00  0.00000000000E+00  0.00000000000E+00  0.91188000000E+02  0.91188000000E+02 0.  0.
    9900012    2    3    3    0    0  0.69274650388E+01 -0.24397660843E+02 -0.35219129720E+02  0.47787277371E+02  0.20000028846E+02 0.  0.
         12    1    3    3    0    0 -0.69274650388E+01  0.24397660843E+02  0.35219129720E+02  0.43400722629E+02  0.00000000000E+00 0. -1.
         11    1    4    4    0    0  0.70100343322E+01 -0.23766904379E+01 -0.20108402522E+01  0.76702488589E+01  0.51100000000E-03 0. -1.
        -11    1    4    4    0    0  0.33262979221E+00 -0.13362013866E+02 -0.23994656006E+02  0.27466298881E+02  0.51100000000E-03 0.  1.
         12    1    4    4    0    0 -0.41519908568E+00 -0.86589565391E+01 -0.92136334625E+01  0.12650729631E+02  0.00000000000E+00 0. -1.
</event>
<event>
 8    1  0.4798632E-010  0.9118800E+02  0.7816164E-02  0.1184000E+00
        -11   -1    0    0    0    0  0.00000000000E+00  0.00000000000E+00  0.45593999997E+02  0.45594000000E+02  0.51100000000E-03 0. -1.
         11   -1    0    0    0    0 -0.00000000000E+00 -0.00000000000E+00 -0.45593999997E+02  0.45594000000E+02  0.51100000000E-03 0.  1.
         23    2    1    2    0    0  0.00000000000E+00  0.00000000000E+00  0.00000000000E+00  0.91188000000E+02  0.91188000000E+02 0.  0.
    9900012    2    3    3    0    0 -0.11087759687E+02  0.32558792184E+02  0.26469030264E+02  0.47787275047E+02  0.20000018247E+02 0.  0.
        -12    1    3    3    0    0  0.11087759687E+02 -0.32558792184E+02 -0.26469030264E+02  0.43400724953E+02  0.00000000000E+00 0.  1.
         11    1    4    4    0    0 -0.43263474573E+01 -0.11047605652E+01  0.35999810587E+01  0.57356466168E+01  0.51100000000E-03 0. -1.
        -11    1    4    4    0    0  0.14190011787E+01  0.23434512163E+01  0.73313458297E+00  0.28359856358E+01  0.51100000000E-03 0.  1.
         12    1    4    4    0    0 -0.81804134080E+01  0.31320101533E+02  0.22135914623E+02  0.39215642794E+02  0.00000000000E+00 0. -1.
</event>
<event>
 8    1  0.4798632E-010  0.9118800E+02  0.7816164E-02  0.1184000E+00
        -11   -1    0    0    0    0  0.00000000000E+00  0.00000000000E+00  0.45593999997E+02  0.45594000000E+02  0.51100000000E-03 0. -1.
         11   -1    0    0    0    0 -0.00000000000E+00 -0.00000000000E+00 -0.45593999997E+02  0.45594000000E+02  0.51100000000E-03 0.  1.
         23    2    1    2    0    0 -0.71054273576E-14  0.00000000000E+00  0.71054273576E-14  0.91188000000E+02  0.91188000000E+02 0.  0.
    9900012    2    3    3    0    0 -0.20793108480E+02 -0.18949615700E+02  0.33048178696E+02  0.47787269469E+02  0.19999992817E+02 0.  0.
        -12    1    3    3    0    0  0.20793108480E+02  0.18949615700E+02 -0.33048178696E+02  0.43400730531E+02  0.00000000000E+00 0.  1.
         11    1    4    4    0    0 -0.15869082228E+02 -0.21183792231E+02  0.26858879318E+02  0.37709153034E+02  0.51100000000E-03 0.  1.
        -11    1    4    4    0    0 -0.44682044180E+01  0.21013531405E+01  0.12199518738E+01  0.50861398504E+01  0.51100000000E-03 0. -1.
        -12    1    4    4    0    0 -0.45582183441E+00  0.13282339076E+00  0.49693475051E+01  0.49919765849E+01  0.00000000000E+00 0.  1.
</event>
<event>
 8    1  0.4798632E-010  0.9118800E+02  0.7816164E-02  0.1184000E+00
        -11   -1    0    0    0    0  0.00000000000E+00  0.00000000000E+00  0.45593999997E+02  0.45594000000E+02  0.51100000000E-03 0. -1.
         11   -1    0    0    0    0 -0.00000000000E+00 -0.00000000000E+00 -0.45593999997E+02  0.45594000000E+02  0.51100000000E-03 0.  1.
         23    2    1    2    0    0 -0.22204460493E-15  0.00000000000E+00 -0.71054273576E-14  0.91188000000E+02  0.91188000000E+02 0.  0.
    9900012    2    3    3    0    0  0.11566311435E+01 -0.22532702046E+02  0.37075095913E+02  0.47787271964E+02  0.20000004193E+02 0.  0.
        -12    1    3    3    0    0 -0.11566311435E+01  0.22532702046E+02 -0.37075095913E+02  0.43400728036E+02  0.00000000000E+00 0.  1.
         11    1    4    4    0    0  0.33131524835E+01  0.13376480226E+01  0.14672427943E+01  0.38625229177E+01  0.51100000000E-03 0. -1.
        -11    1    4    4    0    0 -0.18778613299E+01 -0.13006760661E+02  0.11429685835E+02  0.17416655953E+02  0.51100000000E-03 0.  1.
         12    1    4    4    0    0 -0.27866001009E+00 -0.10863589408E+02  0.24178167284E+02  0.26508093093E+02  0.00000000000E+00 0. -1.
</event>
<event>
 8    1  0.4798632E-010  0.9118800E+02  0.7816164E-02  0.1184000E+00
        -11   -1    0    0    0    0  0.00000000000E+00  0.00000000000E+00  0.45593999997E+02  0.45594000000E+02  0.51100000000E-03 0.  1.
         11   -1    0    0    0    0 -0.00000000000E+00 -0.00000000000E+00 -0.45593999997E+02  0.45594000000E+02  0.51100000000E-03 0. -1.
         23    2    1    2    0    0  0.00000000000E+00  0.00000000000E+00  0.00000000000E+00  0.91188000000E+02  0.91188000000E+02 0.  0.
    9900012    2    3    3    0    0  0.39898635206E+02 -0.12929873394E+02 -0.11159760676E+02  0.47787274481E+02  0.20000015667E+02 0.  0.
         12    1    3    3    0    0 -0.39898635206E+02  0.12929873394E+02  0.11159760676E+02  0.43400725519E+02  0.00000000000E+00 0. -1.
         11    1    4    4    0    0  0.14702395520E+02 -0.34431905398E+01 -0.13268852963E+02  0.20101702772E+02  0.51100000000E-03 0. -1.
        -11    1    4    4    0    0  0.60023400875E+01 -0.67919195408E-01 -0.98338200260E+00  0.60827411557E+01  0.51100000000E-03 0.  1.
         12    1    4    4    0    0  0.19193899598E+02 -0.94187636586E+01  0.30924742899E+01  0.21602830553E+02  0.00000000000E+00 0. -1.
</event>
<event>
 8    1  0.4798632E-010  0.9118800E+02  0.7816164E-02  0.1184000E+00
        -11   -1    0    0    0    0  0.00000000000E+00  0.00000000000E+00  0.45593999997E+02  0.45594000000E+02  0.51100000000E-03 0. -1.
         11   -1    0    0    0    0 -0.00000000000E+00 -0.00000000000E+00 -0.45593999997E+02  0.45594000000E+02  0.51100000000E-03 0.  1.
         23    2    1    2    0    0 -0.44408920985E-15  0.00000000000E+00  0.17763568394E-14  0.91188000000E+02  0.91188000000E+02 0.  0.
    9900012    2    3    3    0    0  0.33838356882E+01  0.40290777546E+02 -0.15774233696E+02  0.47787267888E+02  0.19999985607E+02 0.  0.
         12    1    3    3    0    0 -0.33838356882E+01 -0.40290777546E+02  0.15774233696E+02  0.43400732112E+02  0.00000000000E+00 0. -1.
         11    1    4    4    0    0  0.75627758395E+00  0.62373868385E+01  0.40278895225E+01  0.74632998482E+01  0.51100000000E-03 0. -1.
        -11    1    4    4    0    0 -0.59529431651E+00  0.26906186529E+02 -0.12756017361E+02  0.29782767299E+02  0.51100000000E-03 0.  1.
         12    1    4    4    0    0  0.32228524207E+01  0.71472041785E+01 -0.70461058571E+01  0.10541200740E+02  0.00000000000E+00 0. -1.
</event>
<event>
 8    1  0.4798632E-010  0.9118800E+02  0.7816164E-02  0.1184000E+00
        -11   -1    0    0    0    0  0.00000000000E+00  0.00000000000E+00  0.45593999997E+02  0.45594000000E+02  0.51100000000E-03 0.  1.
         11   -1    0    0    0    0 -0.00000000000E+00 -0.00000000000E+00 -0.45593999997E+02  0.45594000000E+02  0.51100000000E-03 0. -1.
         23    2    1    2    0    0  0.00000000000E+00  0.00000000000E+00  0.00000000000E+00  0.91188000000E+02  0.91188000000E+02 0.  0.
    9900012    2    3    3    0    0  0.35686416791E+02 -0.11004780624E+02 -0.22113289490E+02  0.47787272909E+02  0.20000008503E+02 0.  0.
         12    1    3    3    0    0 -0.35686416791E+02  0.11004780624E+02  0.22113289490E+02  0.43400727091E+02  0.00000000000E+00 0. -1.
         11    1    4    4    0    0  0.11828147210E+02  0.47344948912E+01 -0.80114975976E+01  0.15050069844E+02  0.51100000000E-03 0. -1.
        -11    1    4    4    0    0  0.18437010439E+02 -0.13313941979E+02 -0.14175065239E+02  0.26797702882E+02  0.51100000000E-03 0.  1.
        -12    1    4    4    0    0  0.54212591424E+01 -0.24253335361E+01  0.73273347015E-01  0.59395001838E+01  0.00000000000E+00 0.  1.
</event>
<event>
 8    1  0.4798632E-010  0.9118800E+02  0.7816164E-02  0.1184000E+00
        -11   -1    0    0    0    0  0.00000000000E+00  0.00000000000E+00  0.45593999997E+02  0.45594000000E+02  0.51100000000E-03 0. -1.
         11   -1    0    0    0    0 -0.00000000000E+00 -0.00000000000E+00 -0.45593999997E+02  0.45594000000E+02  0.51100000000E-03 0.  1.
         23    2    1    2    0    0  0.00000000000E+00  0.00000000000E+00  0.00000000000E+00  0.91188000000E+02  0.91188000000E+02 0.  0.
    9900012    2    3    3    0    0 -0.24713020561E+02  0.49087794148E+01  0.35338275008E+02  0.47787272113E+02  0.20000004872E+02 0.  0.
        -12    1    3    3    0    0  0.24713020561E+02 -0.49087794148E+01 -0.35338275008E+02  0.43400727887E+02  0.00000000000E+00 0.  1.
         11    1    4    4    0    0 -0.10826528256E+02 -0.36064362358E+01  0.39390088071E+01  0.12072111954E+02  0.51100000000E-03 0.  1.
        -11    1    4    4    0    0 -0.66345169726E+01  0.30960297489E+01  0.19006654168E+02  0.20367992503E+02  0.51100000000E-03 0. -1.
        -12    1    4    4    0    0 -0.72519753331E+01  0.54191859018E+01  0.12392612032E+02  0.15347167656E+02  0.00000000000E+00 0.  1.
</event>
<event>
 8    1  0.4798632E-010  0.9118800E+02  0.7816164E-02  0.1184000E+00
        -11   -1    0    0    0    0  0.00000000000E+00  0.00000000000E+00  0.45593999997E+02  0.45594000000E+02  0.51100000000E-03 0. -1.
         11   -1    0    0    0    0 -0.00000000000E+00 -0.00000000000E+00 -0.45593999997E+02  0.45594000000E+02  0.51100000000E-03 0.  1.
         23    2    1    2    0    0 -0.17763568394E-14 -0.35527136788E-14  0.00000000000E+00  0.91188000000E+02  0.91188000000E+02 0.  0.
    9900012    2    3    3    0    0  0.72266013924E+01  0.23044288608E+02 -0.36060482301E+02  0.47787292760E+02  0.20000099011E+02 0.  0.
         12    1    3    3    0    0 -0.72266013924E+01 -0.23044288608E+02  0.36060482301E+02  0.43400707240E+02  0.00000000000E+00 0. -1.
         11    1    4    4    0    0 -0.55235724135E+01  0.41258722209E+01 -0.73180165162E+01  0.10054155349E+02  0.51100000000E-03 0. -1.
        -11    1    4    4    0    0  0.67181128814E-01  0.51395277127E+01 -0.99685605644E+01  0.11215679132E+02  0.51100000000E-03 0.  1.
         12    1    4    4    0    0  0.12682992677E+02  0.13778888675E+02 -0.18773905220E+02  0.26517458279E+02  0.00000000000E+00 0. -1.
</event>
<event>
 8    1  0.4798632E-010  0.9118800E+02  0.7816164E-02  0.1184000E+00
        -11   -1    0    0    0    0  0.00000000000E+00  0.00000000000E+00  0.45593999997E+02  0.45594000000E+02  0.51100000000E-03 0. -1.
         11   -1    0    0    0    0 -0.00000000000E+00 -0.00000000000E+00 -0.45593999997E+02  0.45594000000E+02  0.51100000000E-03 0.  1.
         23    2    1    2    0    0  0.35527136788E-14  0.00000000000E+00  0.00000000000E+00  0.91188000000E+02  0.91188000000E+02 0.  0.
    9900012    2    3    3    0    0 -0.31394762100E+02 -0.87111380347E+01 -0.28672422055E+02  0.47787276508E+02  0.20000024909E+02 0.  0.
         12    1    3    3    0    0  0.31394762100E+02  0.87111380347E+01  0.28672422055E+02  0.43400723492E+02  0.00000000000E+00 0. -1.
         11    1    4    4    0    0 -0.81116945046E+01 -0.66941294018E+01 -0.18376890323E+02  0.21173593327E+02  0.51100000000E-03 0. -1.
        -11    1    4    4    0    0 -0.82445796432E+01 -0.12995060582E+01  0.49449163816E-01  0.83465115450E+01  0.51100000000E-03 0.  1.
         12    1    4    4    0    0 -0.15038487952E+02 -0.71750257466E+00 -0.10344980896E+02  0.18267171635E+02  0.00000000000E+00 0. -1.
</event>
<event>
 8    1  0.4798632E-010  0.9118800E+02  0.7816164E-02  0.1184000E+00
        -11   -1    0    0    0    0  0.00000000000E+00  0.00000000000E+00  0.45593999997E+02  0.45594000000E+02  0.51100000000E-03 0. -1.
         11   -1    0    0    0    0 -0.00000000000E+00 -0.00000000000E+00 -0.45593999997E+02  0.45594000000E+02  0.51100000000E-03 0.  1.
         23    2    1    2    0    0  0.35527136788E-14  0.00000000000E+00  0.35527136788E-14  0.91188000000E+02  0.91188000000E+02 0.  0.
    9900012    2    3    3    0    0  0.23847094957E+02 -0.25943104165E+02  0.25335645297E+02  0.47787268275E+02  0.19999987374E+02 0.  0.
        -12    1    3    3    0    0 -0.23847094957E+02  0.25943104165E+02 -0.25335645297E+02  0.43400731725E+02  0.00000000000E+00 0.  1.
         11    1    4    4    0    0  0.14226322932E+02 -0.14782042456E+02  0.98410041536E+01  0.22753953642E+02  0.51100000000E-03 0. -1.
        -11    1    4    4    0    0 -0.83233952539E-02 -0.13060636853E+01  0.10183386048E+02  0.10266801999E+02  0.51100000000E-03 0.  1.
        -12    1    4    4    0    0  0.96290954204E+01 -0.98549980239E+01  0.53112550952E+01  0.14766512633E+02  0.00000000000E+00 0.  1.
</event>
<event>
 8    1  0.4798632E-010  0.9118800E+02  0.7816164E-02  0.1184000E+00
        -11   -1    0    0    0    0  0.00000000000E+00  0.00000000000E+00  0.45593999997E+02  0.45594000000E+02  0.51100000000E-03 0. -1.
         11   -1    0    0    0    0 -0.00000000000E+00 -0.00000000000E+00 -0.45593999997E+02  0.45594000000E+02  0.51100000000E-03 0.  1.
         23    2    1    2    0    0  0.00000000000E+00  0.00000000000E+00  0.00000000000E+00  0.91188000000E+02  0.91188000000E+02 0.  0.
    9900012    2    3    3    0    0  0.16333135672E+02  0.35521083972E+02 -0.18844220178E+02  0.47787270034E+02  0.19999995395E+02 0.  0.
         12    1    3    3    0    0 -0.16333135672E+02 -0.35521083972E+02  0.18844220178E+02  0.43400729966E+02  0.00000000000E+00 0. -1.
         11    1    4    4    0    0  0.16006149226E+02  0.25803656981E+02 -0.21847985231E+02  0.37408020337E+02  0.51100000000E-03 0.  1.
        -11    1    4    4    0    0 -0.41843566851E+00  0.35470813962E+01  0.19690978989E+01  0.40785072804E+01  0.51100000000E-03 0. -1.
        -12    1    4    4    0    0  0.74542211426E+00  0.61703455951E+01  0.10346671534E+01  0.63007424173E+01  0.00000000000E+00 0.  1.
</event>
<event>
 8    1  0.4798632E-010  0.9118800E+02  0.7816164E-02  0.1184000E+00
        -11   -1    0    0    0    0  0.00000000000E+00  0.00000000000E+00  0.45593999997E+02  0.45594000000E+02  0.51100000000E-03 0. -1.
         11   -1    0    0    0    0 -0.00000000000E+00 -0.00000000000E+00 -0.45593999997E+02  0.45594000000E+02  0.51100000000E-03 0.  1.
         23    2    1    2    0    0 -0.88817841970E-15  0.00000000000E+00  0.00000000000E+00  0.91188000000E+02  0.91188000000E+02 0.  0.
    9900012    2    3    3    0    0  0.41036890358E+01  0.11588231301E+02  0.41623271708E+02  0.47787261342E+02  0.19999955762E+02 0.  0.
        -12    1    3    3    0    0 -0.41036890358E+01 -0.11588231301E+02 -0.41623271708E+02  0.43400738658E+02  0.00000000000E+00 0.  1.
         11    1    4    4    0    0  0.75250534252E+01  0.64273379954E+00  0.20134900193E+02  0.21504737660E+02  0.51100000000E-03 0. -1.
        -11    1    4    4    0    0 -0.86530750249E-01 -0.18778308583E+01  0.24807862783E+01  0.31125611837E+01  0.51100000000E-03 0.  1.
         12    1    4    4    0    0 -0.33348336391E+01  0.12823328360E+02  0.19007585237E+02  0.23169962498E+02  0.00000000000E+00 0. -1.
</event>
<event>
 8    1  0.4798632E-010  0.9118800E+02  0.7816164E-02  0.1184000E+00
        -11   -1    0    0    0    0  0.00000000000E+00  0.00000000000E+00  0.45593999997E+02  0.45594000000E+02  0.51100000000E-03 0. -1.
         11   -1    0    0    0    0 -0.00000000000E+00 -0.00000000000E+00 -0.45593999997E+02  0.45594000000E+02  0.51100000000E-03 0.  1.
         23    2    1    2    0    0  0.17763568394E-14  0.00000000000E+00 -0.71054273576E-14  0.91188000000E+02  0.91188000000E+02 0.  0.
    9900012    2    3    3    0    0 -0.92211840537E+01  0.72746702787E+01  0.41781238612E+02  0.47787274627E+02  0.20000016332E+02 0.  0.
        -12    1    3    3    0    0  0.92211840537E+01 -0.72746702787E+01 -0.41781238612E+02  0.43400725373E+02  0.00000000000E+00 0.  1.
         11    1    4    4    0    0 -0.75680664085E+01  0.10802025690E+02  0.15571987287E+02  0.20407012925E+02  0.51100000000E-03 0. -1.
        -11    1    4    4    0    0  0.25506558851E+00 -0.12188091052E+01  0.22833243051E+02  0.22867171722E+02  0.51100000000E-03 0.  1.
         12    1    4    4    0    0 -0.19081832338E+01 -0.23085463064E+01  0.33760082737E+01  0.45130899799E+01  0.00000000000E+00 0. -1.
</event>
<event>
 8    1  0.4798632E-010  0.9118800E+02  0.7816164E-02  0.1184000E+00
        -11   -1    0    0    0    0  0.00000000000E+00  0.00000000000E+00  0.45593999997E+02  0.45594000000E+02  0.51100000000E-03 0. -1.
         11   -1    0    0    0    0 -0.00000000000E+00 -0.00000000000E+00 -0.45593999997E+02  0.45594000000E+02  0.51100000000E-03 0.  1.
         23    2    1    2    0    0  0.00000000000E+00  0.77715611724E-15  0.00000000000E+00  0.91188000000E+02  0.91188000000E+02 0.  0.
    9900012    2    3    3    0    0  0.25332789574E+02  0.50379486647E+00  0.35236629259E+02  0.47787261776E+02  0.19999957742E+02 0.  0.
        -12    1    3    3    0    0 -0.25332789574E+02 -0.50379486647E+00 -0.35236629259E+02  0.43400738224E+02  0.00000000000E+00 0.  1.
         11    1    4    4    0    0  0.20745479305E+01  0.26064308430E+01 -0.10228486455E+01  0.34847453950E+01  0.51100000000E-03 0. -1.
        -11    1    4    4    0    0  0.76076254084E+01  0.27356959772E+01  0.66691028501E+01  0.10480311537E+02  0.51100000000E-03 0.  1.
         12    1    4    4    0    0  0.15650616235E+02 -0.48383319537E+01  0.29590375054E+02  0.33822204844E+02  0.00000000000E+00 0. -1.
</event>
<event>
 8    1  0.4798632E-010  0.9118800E+02  0.7816164E-02  0.1184000E+00
        -11   -1    0    0    0    0  0.00000000000E+00  0.00000000000E+00  0.45593999997E+02  0.45594000000E+02  0.51100000000E-03 0. -1.
         11   -1    0    0    0    0 -0.00000000000E+00 -0.00000000000E+00 -0.45593999997E+02  0.45594000000E+02  0.51100000000E-03 0.  1.
         23    2    1    2    0    0  0.00000000000E+00  0.88817841970E-15  0.00000000000E+00  0.91188000000E+02  0.91188000000E+02 0.  0.
    9900012    2    3    3    0    0  0.20202426829E+02  0.50441446370E+01 -0.38079408878E+02  0.47787276211E+02  0.20000023559E+02 0.  0.
         12    1    3    3    0    0 -0.20202426829E+02 -0.50441446370E+01  0.38079408878E+02  0.43400723789E+02  0.00000000000E+00 0. -1.
         11    1    4    4    0    0  0.10858804769E+02 -0.61151852310E+01 -0.25273143774E+02  0.28178731836E+02  0.51100000000E-03 0. -1.
        -11    1    4    4    0    0  0.52617671460E+01  0.64407949506E+01 -0.53620269158E+01  0.98955225229E+01  0.51100000000E-03 0.  1.
         12    1    4    4    0    0  0.40818549141E+01  0.47185349174E+01 -0.74442381877E+01  0.97130218523E+01  0.00000000000E+00 0. -1.
</event>
<event>
 8    1  0.4798632E-010  0.9118800E+02  0.7816164E-02  0.1184000E+00
        -11   -1    0    0    0    0  0.00000000000E+00  0.00000000000E+00  0.45593999997E+02  0.45594000000E+02  0.51100000000E-03 0. -1.
         11   -1    0    0    0    0 -0.00000000000E+00 -0.00000000000E+00 -0.45593999997E+02  0.45594000000E+02  0.51100000000E-03 0.  1.
         23    2    1    2    0    0  0.35527136788E-14  0.88817841970E-15  0.00000000000E+00  0.91188000000E+02  0.91188000000E+02 0.  0.
    9900012    2    3    3    0    0  0.24439919747E+02  0.50908688287E+01 -0.35502066848E+02  0.47787269901E+02  0.19999994787E+02 0.  0.
         12    1    3    3    0    0 -0.24439919747E+02 -0.50908688287E+01  0.35502066848E+02  0.43400730099E+02  0.00000000000E+00 0. -1.
         11    1    4    4    0    0 -0.24223595839E+01 -0.93875604649E-01 -0.21179864430E+01  0.32190845620E+01  0.51100000000E-03 0. -1.
        -11    1    4    4    0    0  0.23570902178E+02  0.42634202992E+01 -0.33459145754E+02  0.41149466788E+02  0.51100000000E-03 0.  1.
         12    1    4    4    0    0  0.32913771528E+01  0.92132413416E+00  0.75065349081E-01  0.34187185507E+01  0.00000000000E+00 0. -1.
</event>
<event>
 8    1  0.4798632E-010  0.9118800E+02  0.7816164E-02  0.1184000E+00
        -11   -1    0    0    0    0  0.00000000000E+00  0.00000000000E+00  0.45593999997E+02  0.45594000000E+02  0.51100000000E-03 0. -1.
         11   -1    0    0    0    0 -0.00000000000E+00 -0.00000000000E+00 -0.45593999997E+02  0.45594000000E+02  0.51100000000E-03 0.  1.
         23    2    1    2    0    0  0.35527136788E-14  0.00000000000E+00 -0.71054273576E-14  0.91188000000E+02  0.91188000000E+02 0.  0.
    9900012    2    3    3    0    0 -0.20602993619E+02  0.21536629625E+01 -0.38137930522E+02  0.47787270113E+02  0.19999995752E+02 0.  0.
         12    1    3    3    0    0  0.20602993619E+02 -0.21536629625E+01  0.38137930522E+02  0.43400729887E+02  0.00000000000E+00 0. -1.
         11    1    4    4    0    0  0.39361926405E+00  0.16671775623E+01  0.17928567838E+01  0.24796678926E+01  0.51100000000E-03 0. -1.
        -11    1    4    4    0    0 -0.15261015228E+02 -0.15085150184E+01 -0.28682132132E+02  0.32524435540E+02  0.51100000000E-03 0.  1.
         12    1    4    4    0    0 -0.57355976559E+01  0.19950004186E+01 -0.11248655174E+02  0.12783166680E+02  0.00000000000E+00 0. -1.
</event>
<event>
 8    1  0.4798632E-010  0.9118800E+02  0.7816164E-02  0.1184000E+00
        -11   -1    0    0    0    0  0.00000000000E+00  0.00000000000E+00  0.45593999997E+02  0.45594000000E+02  0.51100000000E-03 0. -1.
         11   -1    0    0    0    0 -0.00000000000E+00 -0.00000000000E+00 -0.45593999997E+02  0.45594000000E+02  0.51100000000E-03 0.  1.
         23    2    1    2    0    0 -0.88817841970E-15  0.00000000000E+00  0.00000000000E+00  0.91188000000E+02  0.91188000000E+02 0.  0.
    9900012    2    3    3    0    0 -0.71267656055E+01 -0.56537740226E+01  0.42436627754E+02  0.47787270469E+02  0.19999997375E+02 0.  0.
        -12    1    3    3    0    0  0.71267656055E+01  0.56537740226E+01 -0.42436627754E+02  0.43400729531E+02  0.00000000000E+00 0.  1.
         11    1    4    4    0    0  0.11769384194E+01 -0.15440099565E+01  0.32639172536E+01  0.37976712454E+01  0.51100000000E-03 0. -1.
        -11    1    4    4    0    0  0.38184942981E+01  0.36902163905E+01  0.14124981072E+02  0.15090185097E+02  0.51100000000E-03 0.  1.
        -12    1    4    4    0    0 -0.12122198323E+02 -0.77999804567E+01  0.25047729428E+02  0.28899414126E+02  0.00000000000E+00 0.  1.
</event>
<event>
 8    1  0.4798632E-010  0.9118800E+02  0.7816164E-02  0.1184000E+00
        -11   -1    0    0    0    0  0.00000000000E+00  0.00000000000E+00  0.45593999997E+02  0.45594000000E+02  0.51100000000E-03 0. -1.
         11   -1    0    0    0    0 -0.00000000000E+00 -0.00000000000E+00 -0.45593999997E+02  0.45594000000E+02  0.51100000000E-03 0.  1.
         23    2    1    2    0    0  0.00000000000E+00  0.00000000000E+00  0.00000000000E+00  0.91188000000E+02  0.91188000000E+02 0.  0.
    9900012    2    3    3    0    0 -0.13652648999E+02 -0.96480771603E+01  0.40051754911E+02  0.47787270870E+02  0.19999999204E+02 0.  0.
        -12    1    3    3    0    0  0.13652648999E+02  0.96480771603E+01 -0.40051754911E+02  0.43400729130E+02  0.00000000000E+00 0.  1.
         11    1    4    4    0    0 -0.85386459830E+01  0.18500820822E+01  0.17127941269E+02  0.19227523275E+02  0.51100000000E-03 0. -1.
        -11    1    4    4    0    0 -0.33572933709E+01 -0.75116592190E+00  0.30220103582E+00  0.34535481389E+01  0.51100000000E-03 0.  1.
         12    1    4    4    0    0 -0.17567096455E+01 -0.10746993321E+02  0.22621612606E+02  0.25106199456E+02  0.00000000000E+00 0. -1.
</event>
<event>
 8    1  0.4798632E-010  0.9118800E+02  0.7816164E-02  0.1184000E+00
        -11   -1    0    0    0    0  0.00000000000E+00  0.00000000000E+00  0.45593999997E+02  0.45594000000E+02  0.51100000000E-03 0.  1.
         11   -1    0    0    0    0 -0.00000000000E+00 -0.00000000000E+00 -0.45593999997E+02  0.45594000000E+02  0.51100000000E-03 0. -1.
         23    2    1    2    0    0 -0.71054273576E-14  0.00000000000E+00 -0.17763568394E-14  0.91188000000E+02  0.91188000000E+02 0.  0.
    9900012    2    3    3    0    0 -0.40991370644E+02  0.62104923704E+01 -0.12835895560E+02  0.47787275380E+02  0.20000019766E+02 0.  0.
        -12    1    3    3    0    0  0.40991370644E+02 -0.62104923704E+01  0.12835895560E+02  0.43400724620E+02  0.00000000000E+00 0.  1.
         11    1    4    4    0    0 -0.24457688192E+02  0.24467013431E+01 -0.37619039681E+01  0.24865976371E+02  0.51100000000E-03 0. -1.
        -11    1    4    4    0    0  0.21131808436E+00 -0.29588193422E+01 -0.81079843577E+00  0.30751685477E+01  0.51100000000E-03 0.  1.
        -12    1    4    4    0    0 -0.16745000536E+02  0.67226103694E+01 -0.82631931557E+01  0.19846130461E+02  0.00000000000E+00 0.  1.
</event>
<event>
 8    1  0.4798632E-010  0.9118800E+02  0.7816164E-02  0.1184000E+00
        -11   -1    0    0    0    0  0.00000000000E+00  0.00000000000E+00  0.45593999997E+02  0.45594000000E+02  0.51100000000E-03 0. -1.
         11   -1    0    0    0    0 -0.00000000000E+00 -0.00000000000E+00 -0.45593999997E+02  0.45594000000E+02  0.51100000000E-03 0.  1.
         23    2    1    2    0    0  0.17763568394E-14  0.00000000000E+00  0.00000000000E+00  0.91188000000E+02  0.91188000000E+02 0.  0.
    9900012    2    3    3    0    0 -0.10273842205E+02 -0.66435487754E+01 -0.41640544415E+02  0.47787268287E+02  0.19999987430E+02 0.  0.
         12    1    3    3    0    0  0.10273842205E+02  0.66435487754E+01  0.41640544415E+02  0.43400731713E+02  0.00000000000E+00 0. -1.
         11    1    4    4    0    0 -0.41075230728E+01 -0.71104972480E+01 -0.37500766073E+01  0.90274022692E+01  0.51100000000E-03 0. -1.
        -11    1    4    4    0    0 -0.10695215801E+01  0.22231400727E+00 -0.22875001878E+02  0.22901070087E+02  0.51100000000E-03 0.  1.
         12    1    4    4    0    0 -0.50967975524E+01  0.24463446538E+00 -0.15015465930E+02  0.15858795931E+02  0.00000000000E+00 0. -1.
</event>
<event>
 8    1  0.4798632E-010  0.9118800E+02  0.7816164E-02  0.1184000E+00
        -11   -1    0    0    0    0  0.00000000000E+00  0.00000000000E+00  0.45593999997E+02  0.45594000000E+02  0.51100000000E-03 0. -1.
         11   -1    0    0    0    0 -0.00000000000E+00 -0.00000000000E+00 -0.45593999997E+02  0.45594000000E+02  0.51100000000E-03 0.  1.
         23    2    1    2    0    0  0.44408920985E-15  0.00000000000E+00  0.00000000000E+00  0.91188000000E+02  0.91188000000E+02 0.  0.
    9900012    2    3    3    0    0 -0.27667344630E+01  0.38529628836E+02  0.19784747292E+02  0.47787270245E+02  0.19999996354E+02 0.  0.
        -12    1    3    3    0    0  0.27667344630E+01 -0.38529628836E+02 -0.19784747292E+02  0.43400729755E+02  0.00000000000E+00 0.  1.
         11    1    4    4    0    0 -0.12168858219E+00  0.21726698908E+02  0.13628531151E+02  0.25647633714E+02  0.51100000000E-03 0. -1.
        -11    1    4    4    0    0 -0.50053763586E+01  0.77483875618E+00  0.13976259783E+01  0.52542864621E+01  0.51100000000E-03 0.  1.
        -12    1    4    4    0    0  0.23603304778E+01  0.16028091173E+02  0.47585901632E+01  0.16885350069E+02  0.00000000000E+00 0.  1.
</event>
<event>
 8    1  0.4798632E-010  0.9118800E+02  0.7816164E-02  0.1184000E+00
        -11   -1    0    0    0    0  0.00000000000E+00  0.00000000000E+00  0.45593999997E+02  0.45594000000E+02  0.51100000000E-03 0. -1.
         11   -1    0    0    0    0 -0.00000000000E+00 -0.00000000000E+00 -0.45593999997E+02  0.45594000000E+02  0.51100000000E-03 0.  1.
         23    2    1    2    0    0  0.00000000000E+00 -0.71054273576E-14  0.00000000000E+00  0.91188000000E+02  0.91188000000E+02 0.  0.
    9900012    2    3    3    0    0 -0.14490685531E+02 -0.32655795936E+02 -0.24642287818E+02  0.47787270464E+02  0.19999997353E+02 0.  0.
         12    1    3    3    0    0  0.14490685531E+02  0.32655795936E+02  0.24642287818E+02  0.43400729536E+02  0.00000000000E+00 0. -1.
         11    1    4    4    0    0 -0.11488033293E+02 -0.18914093586E+02 -0.60883450871E+01  0.22951814553E+02  0.51100000000E-03 0. -1.
        -11    1    4    4    0    0 -0.13365641796E+01 -0.13682841711E+02 -0.12586037161E+02  0.18639068989E+02  0.51100000000E-03 0.  1.
         12    1    4    4    0    0 -0.16660880582E+01 -0.58860638868E-01 -0.59679055699E+01  0.61963869218E+01  0.00000000000E+00 0. -1.
</event>
<event>
 8    1  0.4798632E-010  0.9118800E+02  0.7816164E-02  0.1184000E+00
        -11   -1    0    0    0    0  0.00000000000E+00  0.00000000000E+00  0.45593999997E+02  0.45594000000E+02  0.51100000000E-03 0. -1.
         11   -1    0    0    0    0 -0.00000000000E+00 -0.00000000000E+00 -0.45593999997E+02  0.45594000000E+02  0.51100000000E-03 0.  1.
         23    2    1    2    0    0  0.00000000000E+00 -0.55511151231E-15  0.00000000000E+00  0.91188000000E+02  0.91188000000E+02 0.  0.
    9900012    2    3    3    0    0 -0.10778608094E+02  0.98588968647E+00  0.42029427050E+02  0.47787272943E+02  0.20000008655E+02 0.  0.
        -12    1    3    3    0    0  0.10778608094E+02 -0.98588968647E+00 -0.42029427050E+02  0.43400727057E+02  0.00000000000E+00 0.  1.
         11    1    4    4    0    0 -0.54355553479E+01 -0.32168903322E+01  0.14041332777E+02  0.15396514923E+02  0.51100000000E-03 0. -1.
        -11    1    4    4    0    0  0.22872809640E+01  0.76110232247E+01  0.13668706876E+02  0.15811163039E+02  0.51100000000E-03 0.  1.
        -12    1    4    4    0    0 -0.76303337105E+01 -0.34082432061E+01  0.14319387397E+02  0.16579594980E+02  0.00000000000E+00 0.  1.
</event>
<event>
 8    1  0.4798632E-010  0.9118800E+02  0.7816164E-02  0.1184000E+00
        -11   -1    0    0    0    0  0.00000000000E+00  0.00000000000E+00  0.45593999997E+02  0.45594000000E+02  0.51100000000E-03 0. -1.
         11   -1    0    0    0    0 -0.00000000000E+00 -0.00000000000E+00 -0.45593999997E+02  0.45594000000E+02  0.51100000000E-03 0.  1.
         23    2    1    2    0    0  0.17763568394E-14  0.71054273576E-14  0.00000000000E+00  0.91188000000E+02  0.91188000000E+02 0.  0.
    9900012    2    3    3    0    0 -0.12118030612E+02 -0.25841129963E+02  0.32695820653E+02  0.47787224064E+02  0.19999785796E+02 0.  0.
        -12    1    3    3    0    0  0.12118030612E+02  0.25841129963E+02 -0.32695820653E+02  0.43400775936E+02  0.00000000000E+00 0.  1.
         11    1    4    4    0    0 -0.15542444995E+02 -0.21033499761E+02  0.30364369973E+02  0.40074563912E+02  0.51100000000E-03 0. -1.
        -11    1    4    4    0    0  0.15023827057E+01 -0.46743309362E+01  0.30922616381E+00  0.49195675193E+01  0.51100000000E-03 0.  1.
        -12    1    4    4    0    0  0.19220316769E+01 -0.13329926560E+00  0.20222245161E+01  0.27930926327E+01  0.00000000000E+00 0.  1.
</event>
<event>
 8    1  0.4798632E-010  0.9118800E+02  0.7816164E-02  0.1184000E+00
        -11   -1    0    0    0    0  0.00000000000E+00  0.00000000000E+00  0.45593999997E+02  0.45594000000E+02  0.51100000000E-03 0. -1.
         11   -1    0    0    0    0 -0.00000000000E+00 -0.00000000000E+00 -0.45593999997E+02  0.45594000000E+02  0.51100000000E-03 0.  1.
         23    2    1    2    0    0 -0.17763568394E-14  0.00000000000E+00  0.71054273576E-14  0.91188000000E+02  0.91188000000E+02 0.  0.
    9900012    2    3    3    0    0  0.98521523610E+01  0.24890885320E+02 -0.34161432602E+02  0.47787256279E+02  0.19999932677E+02 0.  0.
         12    1    3    3    0    0 -0.98521523610E+01 -0.24890885320E+02  0.34161432602E+02  0.43400743721E+02  0.00000000000E+00 0. -1.
         11    1    4    4    0    0  0.69688569384E+01  0.91485219147E+01 -0.13687929176E+02  0.17877914466E+02  0.51100000000E-03 0. -1.
        -11    1    4    4    0    0  0.48679782403E+01 -0.78920933078E+00 -0.29960473650E+01  0.57703001300E+01  0.51100000000E-03 0.  1.
        -12    1    4    4    0    0 -0.19846828177E+01  0.16531572736E+02 -0.17477456061E+02  0.24139041683E+02  0.00000000000E+00 0.  1.
</event>
<event>
 8    1  0.4798632E-010  0.9118800E+02  0.7816164E-02  0.1184000E+00
        -11   -1    0    0    0    0  0.00000000000E+00  0.00000000000E+00  0.45593999997E+02  0.45594000000E+02  0.51100000000E-03 0. -1.
         11   -1    0    0    0    0 -0.00000000000E+00 -0.00000000000E+00 -0.45593999997E+02  0.45594000000E+02  0.51100000000E-03 0.  1.
         23    2    1    2    0    0  0.00000000000E+00  0.35527136788E-14  0.00000000000E+00  0.91188000000E+02  0.91188000000E+02 0.  0.
    9900012    2    3    3    0    0 -0.34564104153E+02 -0.26166883146E+02  0.20591639350E+01  0.47787271601E+02  0.20000002538E+02 0.  0.
        -12    1    3    3    0    0  0.34564104153E+02  0.26166883146E+02 -0.20591639350E+01  0.43400728399E+02  0.00000000000E+00 0.  1.
         11    1    4    4    0    0 -0.32381869826E+02 -0.25730344486E+02  0.29371791931E+01  0.41463998151E+02  0.51100000000E-03 0. -1.
        -11    1    4    4    0    0 -0.21529456254E+01  0.22909017979E+01  0.63039517713E+00  0.32063693259E+01  0.51100000000E-03 0.  1.
         12    1    4    4    0    0 -0.29288701418E-01 -0.27274404574E+01 -0.15084104352E+01  0.31169041240E+01  0.00000000000E+00 0. -1.
</event>
<event>
 8    1  0.4798632E-010  0.9118800E+02  0.7816164E-02  0.1184000E+00
        -11   -1    0    0    0    0  0.00000000000E+00  0.00000000000E+00  0.45593999997E+02  0.45594000000E+02  0.51100000000E-03 0. -1.
         11   -1    0    0    0    0 -0.00000000000E+00 -0.00000000000E+00 -0.45593999997E+02  0.45594000000E+02  0.51100000000E-03 0.  1.
         23    2    1    2    0    0  0.00000000000E+00 -0.71054273576E-14  0.00000000000E+00  0.91188000000E+02  0.91188000000E+02 0.  0.
    9900012    2    3    3    0    0  0.74714884576E+01 -0.38545588311E+02  0.18494263603E+02  0.47787270695E+02  0.19999998407E+02 0.  0.
        -12    1    3    3    0    0 -0.74714884576E+01  0.38545588311E+02 -0.18494263603E+02  0.43400729305E+02  0.00000000000E+00 0.  1.
         11    1    4    4    0    0 -0.39384614039E+00 -0.76580506944E+01 -0.90399762714E-01  0.76687044277E+01  0.51100000000E-03 0. -1.
        -11    1    4    4    0    0 -0.41367946925E+01 -0.85219764514E+01  0.87553926791E+01  0.12899381931E+02  0.51100000000E-03 0.  1.
        -12    1    4    4    0    0  0.12002129290E+02 -0.22365561165E+02  0.98292706871E+01  0.27219184337E+02  0.00000000000E+00 0.  1.
</event>
<event>
 8    1  0.4798632E-010  0.9118800E+02  0.7816164E-02  0.1184000E+00
        -11   -1    0    0    0    0  0.00000000000E+00  0.00000000000E+00  0.45593999997E+02  0.45594000000E+02  0.51100000000E-03 0. -1.
         11   -1    0    0    0    0 -0.00000000000E+00 -0.00000000000E+00 -0.45593999997E+02  0.45594000000E+02  0.51100000000E-03 0.  1.
         23    2    1    2    0    0  0.00000000000E+00  0.71054273576E-14  0.00000000000E+00  0.91188000000E+02  0.91188000000E+02 0.  0.
    9900012    2    3    3    0    0  0.10735041007E+02 -0.32802359197E+02 -0.26313249661E+02  0.47787274407E+02  0.20000015330E+02 0.  0.
         12    1    3    3    0    0 -0.10735041007E+02  0.32802359197E+02  0.26313249661E+02  0.43400725593E+02  0.00000000000E+00 0. -1.
         11    1    4    4    0    0  0.17073080252E+01 -0.99462638670E+01  0.77826003668E+00  0.10121697217E+02  0.51100000000E-03 0. -1.
        -11    1    4    4    0    0  0.80769489316E+01 -0.14224636638E+02 -0.12122146033E+02  0.20359857962E+02  0.51100000000E-03 0.  1.
         12    1    4    4    0    0  0.95078405004E+00 -0.86314586920E+01 -0.14969363665E+02  0.17305719228E+02  0.00000000000E+00 0. -1.
</event>
<event>
 8    1  0.4798632E-010  0.9118800E+02  0.7816164E-02  0.1184000E+00
        -11   -1    0    0    0    0  0.00000000000E+00  0.00000000000E+00  0.45593999997E+02  0.45594000000E+02  0.51100000000E-03 0. -1.
         11   -1    0    0    0    0 -0.00000000000E+00 -0.00000000000E+00 -0.45593999997E+02  0.45594000000E+02  0.51100000000E-03 0.  1.
         23    2    1    2    0    0  0.00000000000E+00  0.00000000000E+00  0.00000000000E+00  0.91188000000E+02  0.91188000000E+02 0.  0.
    9900012    2    3    3    0    0 -0.36535798546E+02  0.11550980462E+02  0.20379737092E+02  0.47787269488E+02  0.19999992902E+02 0.  0.
        -12    1    3    3    0    0  0.36535798546E+02 -0.11550980462E+02 -0.20379737092E+02  0.43400730512E+02  0.00000000000E+00 0.  1.
         11    1    4    4    0    0 -0.15924982004E+02  0.50155695920E+01  0.28232560693E+01  0.16933155797E+02  0.51100000000E-03 0. -1.
        -11    1    4    4    0    0 -0.17762305065E+02  0.93104765508E+00  0.16896579460E+02  0.24532849991E+02  0.51100000000E-03 0.  1.
         12    1    4    4    0    0 -0.28485114771E+01  0.56043632153E+01  0.65990156263E+00  0.63212636993E+01  0.00000000000E+00 0. -1.
</event>
<event>
 8    1  0.4798632E-010  0.9118800E+02  0.7816164E-02  0.1184000E+00
        -11   -1    0    0    0    0  0.00000000000E+00  0.00000000000E+00  0.45593999997E+02  0.45594000000E+02  0.51100000000E-03 0. -1.
         11   -1    0    0    0    0 -0.00000000000E+00 -0.00000000000E+00 -0.45593999997E+02  0.45594000000E+02  0.51100000000E-03 0.  1.
         23    2    1    2    0    0  0.00000000000E+00  0.00000000000E+00 -0.71054273576E-14  0.91188000000E+02  0.91188000000E+02 0.  0.
    9900012    2    3    3    0    0  0.10120832831E+02 -0.15801129846E+02 -0.39134590703E+02  0.47787272459E+02  0.20000006448E+02 0.  0.
         12    1    3    3    0    0 -0.10120832831E+02  0.15801129846E+02  0.39134590703E+02  0.43400727541E+02  0.00000000000E+00 0. -1.
         11    1    4    4    0    0  0.87312959617E+01 -0.53932261978E+01 -0.11522379450E+02  0.15430088997E+02  0.51100000000E-03 0. -1.
        -11    1    4    4    0    0 -0.33484553350E+01 -0.20961867288E+01 -0.99656468935E+00  0.40742230393E+01  0.51100000000E-03 0.  1.
        -12    1    4    4    0    0  0.47379922041E+01 -0.83117169199E+01 -0.26615646563E+02  0.28282960423E+02  0.00000000000E+00 0.  1.
</event>
<event>
 8    1  0.4798632E-010  0.9118800E+02  0.7816164E-02  0.1184000E+00
        -11   -1    0    0    0    0  0.00000000000E+00  0.00000000000E+00  0.45593999997E+02  0.45594000000E+02  0.51100000000E-03 0.  1.
         11   -1    0    0    0    0 -0.00000000000E+00 -0.00000000000E+00 -0.45593999997E+02  0.45594000000E+02  0.51100000000E-03 0. -1.
         23    2    1    2    0    0  0.00000000000E+00  0.00000000000E+00  0.00000000000E+00  0.91188000000E+02  0.91188000000E+02 0.  0.
    9900012    2    3    3    0    0 -0.29189081487E+02 -0.25805599083E+02  0.19123070662E+02  0.47787271278E+02  0.20000001064E+02 0.  0.
        -12    1    3    3    0    0  0.29189081487E+02  0.25805599083E+02 -0.19123070662E+02  0.43400728722E+02  0.00000000000E+00 0.  1.
         11    1    4    4    0    0 -0.11875332779E+02 -0.21783139691E+02  0.10973061815E+02  0.27128154918E+02  0.51100000000E-03 0. -1.
        -11    1    4    4    0    0 -0.10223178421E+02 -0.15309241658E+01  0.81174876821E+01  0.13143466527E+02  0.51100000000E-03 0.  1.
         12    1    4    4    0    0 -0.70905702871E+01 -0.24915352269E+01  0.32521165547E-01  0.75156498328E+01  0.00000000000E+00 0. -1.
</event>
<event>
 8    1  0.4798632E-010  0.9118800E+02  0.7816164E-02  0.1184000E+00
        -11   -1    0    0    0    0  0.00000000000E+00  0.00000000000E+00  0.45593999997E+02  0.45594000000E+02  0.51100000000E-03 0. -1.
         11   -1    0    0    0    0 -0.00000000000E+00 -0.00000000000E+00 -0.45593999997E+02  0.45594000000E+02  0.51100000000E-03 0.  1.
         23    2    1    2    0    0  0.00000000000E+00  0.35527136788E-14  0.00000000000E+00  0.91188000000E+02  0.91188000000E+02 0.  0.
    9900012    2    3    3    0    0 -0.88467210405E+01 -0.26389673641E+02  0.33300818344E+02  0.47787264402E+02  0.19999969714E+02 0.  0.
        -12    1    3    3    0    0  0.88467210405E+01  0.26389673641E+02 -0.33300818344E+02  0.43400735598E+02  0.00000000000E+00 0.  1.
         11    1    4    4    0    0  0.21056291374E+01 -0.16523538148E+02  0.19422781778E+02  0.25587212417E+02  0.51100000000E-03 0. -1.
        -11    1    4    4    0    0 -0.31848201989E+01  0.15301129265E+01  0.26777860308E+01  0.44333806012E+01  0.51100000000E-03 0.  1.
         12    1    4    4    0    0 -0.77675299790E+01 -0.11396248420E+02  0.11200250535E+02  0.17766671384E+02  0.00000000000E+00 0. -1.
</event>
<event>
 8    1  0.4798632E-010  0.9118800E+02  0.7816164E-02  0.1184000E+00
        -11   -1    0    0    0    0  0.00000000000E+00  0.00000000000E+00  0.45593999997E+02  0.45594000000E+02  0.51100000000E-03 0. -1.
         11   -1    0    0    0    0 -0.00000000000E+00 -0.00000000000E+00 -0.45593999997E+02  0.45594000000E+02  0.51100000000E-03 0.  1.
         23    2    1    2    0    0  0.35527136788E-14  0.00000000000E+00  0.00000000000E+00  0.91188000000E+02  0.91188000000E+02 0.  0.
    9900012    2    3    3    0    0 -0.27460499954E+02  0.25454352872E+02 -0.21945847714E+02  0.47787269940E+02  0.19999994963E+02 0.  0.
         12    1    3    3    0    0  0.27460499954E+02 -0.25454352872E+02  0.21945847714E+02  0.43400730060E+02  0.00000000000E+00 0. -1.
         11    1    4    4    0    0 -0.42277345090E+01 -0.29294434656E+01 -0.26134847791E+01  0.57693744071E+01  0.51100000000E-03 0. -1.
        -11    1    4    4    0    0 -0.18257049308E+02  0.17520851759E+02 -0.14175976188E+02  0.29004454778E+02  0.51100000000E-03 0.  1.
         12    1    4    4    0    0 -0.49757161373E+01  0.10862944579E+02 -0.51563867464E+01  0.13013440755E+02  0.00000000000E+00 0. -1.
</event>
<event>
 8    1  0.4798632E-010  0.9118800E+02  0.7816164E-02  0.1184000E+00
        -11   -1    0    0    0    0  0.00000000000E+00  0.00000000000E+00  0.45593999997E+02  0.45594000000E+02  0.51100000000E-03 0. -1.
         11   -1    0    0    0    0 -0.00000000000E+00 -0.00000000000E+00 -0.45593999997E+02  0.45594000000E+02  0.51100000000E-03 0.  1.
         23    2    1    2    0    0 -0.88817841970E-15  0.00000000000E+00  0.00000000000E+00  0.91188000000E+02  0.91188000000E+02 0.  0.
    9900012    2    3    3    0    0 -0.72248213475E+01  0.62408671742E+01  0.42337655526E+02  0.47787267955E+02  0.19999985913E+02 0.  0.
        -12    1    3    3    0    0  0.72248213475E+01 -0.62408671742E+01 -0.42337655526E+02  0.43400732045E+02  0.00000000000E+00 0.  1.
         11    1    4    4    0    0 -0.64009254546E+01  0.28978250528E+01  0.21067565244E+02  0.22208366493E+02  0.51100000000E-03 0. -1.
        -11    1    4    4    0    0  0.54996899681E+01 -0.98300349934E+00  0.46165919499E+01  0.72474690146E+01  0.51100000000E-03 0.  1.
        -12    1    4    4    0    0 -0.63235858610E+01  0.43260456207E+01  0.16653498332E+02  0.18331432447E+02  0.00000000000E+00 0.  1.
</event>
<event>
 8    1  0.4798632E-010  0.9118800E+02  0.7816164E-02  0.1184000E+00
        -11   -1    0    0    0    0  0.00000000000E+00  0.00000000000E+00  0.45593999997E+02  0.45594000000E+02  0.51100000000E-03 0.  1.
         11   -1    0    0    0    0 -0.00000000000E+00 -0.00000000000E+00 -0.45593999997E+02  0.45594000000E+02  0.51100000000E-03 0. -1.
         23    2    1    2    0    0  0.00000000000E+00  0.00000000000E+00 -0.88817841970E-15  0.91188000000E+02  0.91188000000E+02 0.  0.
    9900012    2    3    3    0    0  0.28701561335E+02 -0.32440671017E+02  0.27288326586E+01  0.47787270896E+02  0.19999999324E+02 0.  0.
        -12    1    3    3    0    0 -0.28701561335E+02  0.32440671017E+02 -0.27288326586E+01  0.43400729104E+02  0.00000000000E+00 0.  1.
         11    1    4    4    0    0  0.68400181836E+01 -0.32990057660E+01 -0.60617595533E+01  0.97166978413E+01  0.51100000000E-03 0. -1.
        -11    1    4    4    0    0  0.11324304795E+02 -0.19361865643E+02  0.74349926719E+01  0.23630506481E+02  0.51100000000E-03 0.  1.
        -12    1    4    4    0    0  0.10537238356E+02 -0.97797996074E+01  0.13555995400E+01  0.14440066574E+02  0.00000000000E+00 0.  1.
</event>
<event>
 8    1  0.4798632E-010  0.9118800E+02  0.7816164E-02  0.1184000E+00
        -11   -1    0    0    0    0  0.00000000000E+00  0.00000000000E+00  0.45593999997E+02  0.45594000000E+02  0.51100000000E-03 0. -1.
         11   -1    0    0    0    0 -0.00000000000E+00 -0.00000000000E+00 -0.45593999997E+02  0.45594000000E+02  0.51100000000E-03 0.  1.
         23    2    1    2    0    0  0.00000000000E+00  0.00000000000E+00  0.00000000000E+00  0.91188000000E+02  0.91188000000E+02 0.  0.
    9900012    2    3    3    0    0 -0.17387406085E+02 -0.93856911766E+01 -0.38642080229E+02  0.47787268973E+02  0.19999990557E+02 0.  0.
         12    1    3    3    0    0  0.17387406085E+02  0.93856911766E+01  0.38642080229E+02  0.43400731027E+02  0.00000000000E+00 0. -1.
         11    1    4    4    0    0  0.74420195883E+00  0.42630215332E+01 -0.48603605254E+01  0.65077103382E+01  0.51100000000E-03 0. -1.
        -11    1    4    4    0    0 -0.14571418185E+02 -0.89441208828E+01 -0.29086657262E+02  0.33739548859E+02  0.51100000000E-03 0.  1.
        -12    1    4    4    0    0 -0.35601898589E+01 -0.47045918270E+01 -0.46950624421E+01  0.75400097762E+01  0.00000000000E+00 0.  1.
</event>
<event>
 8    1  0.4798632E-010  0.9118800E+02  0.7816164E-02  0.1184000E+00
        -11   -1    0    0    0    0  0.00000000000E+00  0.00000000000E+00  0.45593999997E+02  0.45594000000E+02  0.51100000000E-03 0. -1.
         11   -1    0    0    0    0 -0.00000000000E+00 -0.00000000000E+00 -0.45593999997E+02  0.45594000000E+02  0.51100000000E-03 0.  1.
         23    2    1    2    0    0  0.00000000000E+00  0.00000000000E+00  0.00000000000E+00  0.91188000000E+02  0.91188000000E+02 0.  0.
    9900012    2    3    3    0    0 -0.23028623613E+02 -0.35661510255E+02  0.90312082008E+01  0.47787267970E+02  0.19999985984E+02 0.  0.
        -12    1    3    3    0    0  0.23028623613E+02  0.35661510255E+02 -0.90312082008E+01  0.43400732030E+02  0.00000000000E+00 0.  1.
         11    1    4    4    0    0 -0.10738862283E+02 -0.19910272949E+02 -0.26311286203E+01  0.22774217223E+02  0.51100000000E-03 0. -1.
        -11    1    4    4    0    0 -0.12645207496E+02 -0.16667560912E+02  0.11801345401E+02  0.24020420748E+02  0.51100000000E-03 0.  1.
         12    1    4    4    0    0  0.35544616664E+00  0.91632360668E+00 -0.13900858000E+00  0.99262999897E+00  0.00000000000E+00 0. -1.
</event>
<event>
 8    1  0.4798632E-010  0.9118800E+02  0.7816164E-02  0.1184000E+00
        -11   -1    0    0    0    0  0.00000000000E+00  0.00000000000E+00  0.45593999997E+02  0.45594000000E+02  0.51100000000E-03 0. -1.
         11   -1    0    0    0    0 -0.00000000000E+00 -0.00000000000E+00 -0.45593999997E+02  0.45594000000E+02  0.51100000000E-03 0.  1.
         23    2    1    2    0    0 -0.88817841970E-15  0.00000000000E+00  0.00000000000E+00  0.91188000000E+02  0.91188000000E+02 0.  0.
    9900012    2    3    3    0    0 -0.86185379070E+00  0.33656166353E+02 -0.27388739749E+02  0.47787269700E+02  0.19999993870E+02 0.  0.
         12    1    3    3    0    0  0.86185379070E+00 -0.33656166353E+02  0.27388739749E+02  0.43400730300E+02  0.00000000000E+00 0. -1.
         11    1    4    4    0    0 -0.52399610057E+01  0.22597099539E+02 -0.13613130501E+02  0.26896159971E+02  0.51100000000E-03 0. -1.
        -11    1    4    4    0    0 -0.23585046192E+01  0.77578739822E+01 -0.83003568836E+01  0.11603580371E+02  0.51100000000E-03 0.  1.
         12    1    4    4    0    0  0.67366118343E+01  0.33011928319E+01 -0.54752523645E+01  0.92875293579E+01  0.00000000000E+00 0. -1.
</event>
<event>
 8    1  0.4798632E-010  0.9118800E+02  0.7816164E-02  0.1184000E+00
        -11   -1    0    0    0    0  0.00000000000E+00  0.00000000000E+00  0.45593999997E+02  0.45594000000E+02  0.51100000000E-03 0. -1.
         11   -1    0    0    0    0 -0.00000000000E+00 -0.00000000000E+00 -0.45593999997E+02  0.45594000000E+02  0.51100000000E-03 0.  1.
         23    2    1    2    0    0  0.00000000000E+00  0.00000000000E+00  0.00000000000E+00  0.91188000000E+02  0.91188000000E+02 0.  0.
    9900012    2    3    3    0    0 -0.51343925698E+01  0.11364343515E+02 -0.41570580022E+02  0.47787269430E+02  0.19999992641E+02 0.  0.
         12    1    3    3    0    0  0.51343925698E+01 -0.11364343515E+02  0.41570580022E+02  0.43400730570E+02  0.00000000000E+00 0. -1.
         11    1    4    4    0    0 -0.45823548499E+01  0.85155247506E+00 -0.32125454270E+02  0.32461791847E+02  0.51100000000E-03 0. -1.
        -11    1    4    4    0    0 -0.21617613527E+00  0.94818634635E+01 -0.10257773597E+02  0.13970482679E+02  0.51100000000E-03 0.  1.
         12    1    4    4    0    0 -0.33586158462E+00  0.10309275762E+01  0.81264784482E+00  0.13549949045E+01  0.00000000000E+00 0. -1.
</event>
<event>
 8    1  0.4798632E-010  0.9118800E+02  0.7816164E-02  0.1184000E+00
        -11   -1    0    0    0    0  0.00000000000E+00  0.00000000000E+00  0.45593999997E+02  0.45594000000E+02  0.51100000000E-03 0. -1.
         11   -1    0    0    0    0 -0.00000000000E+00 -0.00000000000E+00 -0.45593999997E+02  0.45594000000E+02  0.51100000000E-03 0.  1.
         23    2    1    2    0    0  0.00000000000E+00  0.35527136788E-14  0.35527136788E-14  0.91188000000E+02  0.91188000000E+02 0.  0.
    9900012    2    3    3    0    0  0.25825210277E+02  0.25208409660E+02  0.24108455532E+02  0.47787273836E+02  0.20000012727E+02 0.  0.
        -12    1    3    3    0    0 -0.25825210277E+02 -0.25208409660E+02 -0.24108455532E+02  0.43400726164E+02  0.00000000000E+00 0.  1.
         11    1    4    4    0    0  0.29224321932E+01  0.97625631167E+00  0.12641351631E+01  0.33304240393E+01  0.51100000000E-03 0. -1.
        -11    1    4    4    0    0  0.96909474216E+01 -0.64834023982E+00  0.81774790971E+01  0.12696691366E+02  0.51100000000E-03 0.  1.
        -12    1    4    4    0    0  0.13211830662E+02  0.24880493588E+02  0.14666841272E+02  0.31760158431E+02  0.00000000000E+00 0.  1.
</event>
<event>
 8    1  0.5732790E-010  0.9118800E+02  0.7816164E-02  0.1184000E+00
        -11   -1    0    0    0    0  0.00000000000E+00  0.00000000000E+00  0.45593999997E+02  0.45594000000E+02  0.51100000000E-03 0. -1.
         11   -1    0    0    0    0 -0.00000000000E+00 -0.00000000000E+00 -0.45593999997E+02  0.45594000000E+02  0.51100000000E-03 0.  1.
         23    2    1    2    0    0  0.00000000000E+00  0.00000000000E+00  0.00000000000E+00  0.91188000000E+02  0.91188000000E+02 0.  0.
    9900012    2    3    3    0    0 -0.14256360900E+02 -0.29233618110E+01 -0.40888056277E+02  0.47787274009E+02  0.20000013518E+02 0.  0.
         12    1    3    3    0    0  0.14256360900E+02  0.29233618110E+01  0.40888056277E+02  0.43400725991E+02  0.00000000000E+00 0. -1.
         11    1    4    4    0    0  0.21833546564E+01 -0.31674068278E+01 -0.32099338270E+01  0.50103072764E+01  0.51100000000E-03 0. -1.
        -11    1    4    4    0    0 -0.13438806077E+02  0.32437891434E+01 -0.35305137028E+02  0.37915384445E+02  0.51100000000E-03 0.  1.
        -12    1    4    4    0    0 -0.30009094795E+01 -0.29997441265E+01 -0.23729854217E+01  0.48615822877E+01  0.00000000000E+00 0.  1.
</event>
<event>
 8    1  0.4798632E-010  0.9118800E+02  0.7816164E-02  0.1184000E+00
        -11   -1    0    0    0    0  0.00000000000E+00  0.00000000000E+00  0.45593999997E+02  0.45594000000E+02  0.51100000000E-03 0. -1.
         11   -1    0    0    0    0 -0.00000000000E+00 -0.00000000000E+00 -0.45593999997E+02  0.45594000000E+02  0.51100000000E-03 0.  1.
         23    2    1    2    0    0 -0.44408920985E-15  0.35527136788E-14 -0.71054273576E-14  0.91188000000E+02  0.91188000000E+02 0.  0.
    9900012    2    3    3    0    0  0.39348618951E+01 -0.25836495308E+02  0.34649902176E+02  0.47787270182E+02  0.19999996067E+02 0.  0.
        -12    1    3    3    0    0 -0.39348618951E+01  0.25836495308E+02 -0.34649902176E+02  0.43400729818E+02  0.00000000000E+00 0.  1.
         11    1    4    4    0    0 -0.19980303264E+01 -0.15397574785E+02  0.23715278501E+02  0.28345932144E+02  0.51100000000E-03 0. -1.
        -11    1    4    4    0    0  0.84636407668E+01 -0.84586457446E+01  0.55949279678E+01  0.13209281664E+02  0.51100000000E-03 0.  1.
         12    1    4    4    0    0 -0.25307485453E+01 -0.19802747779E+01  0.53396957076E+01  0.62320563737E+01  0.00000000000E+00 0. -1.
</event>
<event>
 8    1  0.4798632E-010  0.9118800E+02  0.7816164E-02  0.1184000E+00
        -11   -1    0    0    0    0  0.00000000000E+00  0.00000000000E+00  0.45593999997E+02  0.45594000000E+02  0.51100000000E-03 0. -1.
         11   -1    0    0    0    0 -0.00000000000E+00 -0.00000000000E+00 -0.45593999997E+02  0.45594000000E+02  0.51100000000E-03 0.  1.
         23    2    1    2    0    0  0.88817841970E-15  0.00000000000E+00  0.00000000000E+00  0.91188000000E+02  0.91188000000E+02 0.  0.
    9900012    2    3    3    0    0 -0.58258166278E+01  0.29152050169E+02 -0.31620254827E+02  0.47787277843E+02  0.20000030997E+02 0.  0.
         12    1    3    3    0    0  0.58258166278E+01 -0.29152050169E+02  0.31620254827E+02  0.43400722157E+02  0.00000000000E+00 0. -1.
         11    1    4    4    0    0 -0.99530262165E+01  0.21268757854E+02 -0.19914557119E+02  0.30789809630E+02  0.51100000000E-03 0.  1.
        -11    1    4    4    0    0 -0.65615202195E+00  0.67936541998E+01 -0.41472825643E+01  0.79865027259E+01  0.51100000000E-03 0. -1.
         12    1    4    4    0    0  0.47833616106E+01  0.10896381145E+01 -0.75584151443E+01  0.90109654872E+01  0.00000000000E+00 0. -1.
</event>
<event>
 8    1  0.4798632E-010  0.9118800E+02  0.7816164E-02  0.1184000E+00
        -11   -1    0    0    0    0  0.00000000000E+00  0.00000000000E+00  0.45593999997E+02  0.45594000000E+02  0.51100000000E-03 0.  1.
         11   -1    0    0    0    0 -0.00000000000E+00 -0.00000000000E+00 -0.45593999997E+02  0.45594000000E+02  0.51100000000E-03 0. -1.
         23    2    1    2    0    0 -0.71054273576E-14  0.00000000000E+00  0.00000000000E+00  0.91188000000E+02  0.91188000000E+02 0.  0.
    9900012    2    3    3    0    0 -0.40127774643E+02  0.88448591135E+01  0.13969738680E+02  0.47787269254E+02  0.19999991835E+02 0.  0.
        -12    1    3    3    0    0  0.40127774643E+02 -0.88448591135E+01 -0.13969738680E+02  0.43400730746E+02  0.00000000000E+00 0.  1.
         11    1    4    4    0    0 -0.82417891139E+01  0.17307287781E+01 -0.29922732161E+01  0.89373491127E+01  0.51100000000E-03 0. -1.
        -11    1    4    4    0    0  0.69773718622E+00  0.10028329488E+01  0.22919698409E+01  0.25972364384E+01  0.51100000000E-03 0.  1.
         12    1    4    4    0    0 -0.32583722715E+02  0.61112973866E+01  0.14670042055E+02  0.36252683702E+02  0.00000000000E+00 0. -1.
</event>
<event>
 8    1  0.4798632E-010  0.9118800E+02  0.7816164E-02  0.1184000E+00
        -11   -1    0    0    0    0  0.00000000000E+00  0.00000000000E+00  0.45593999997E+02  0.45594000000E+02  0.51100000000E-03 0. -1.
         11   -1    0    0    0    0 -0.00000000000E+00 -0.00000000000E+00 -0.45593999997E+02  0.45594000000E+02  0.51100000000E-03 0.  1.
         23    2    1    2    0    0  0.00000000000E+00  0.00000000000E+00  0.00000000000E+00  0.91188000000E+02  0.91188000000E+02 0.  0.
    9900012    2    3    3    0    0 -0.28827829066E+02 -0.28369927046E+02 -0.15739326418E+02  0.47787275521E+02  0.20000020411E+02 0.  0.
        -12    1    3    3    0    0  0.28827829066E+02  0.28369927046E+02  0.15739326418E+02  0.43400724479E+02  0.00000000000E+00 0.  1.
         11    1    4    4    0    0 -0.22333134581E+02 -0.27760208502E+02 -0.12334992852E+02  0.37703449779E+02  0.51100000000E-03 0. -1.
        -11    1    4    4    0    0  0.11938407798E+01 -0.62662893980E+00 -0.17673507274E+01  0.22229369066E+01  0.51100000000E-03 0.  1.
         12    1    4    4    0    0 -0.76885352642E+01  0.16910396624E-01 -0.16369828385E+01  0.78608888355E+01  0.00000000000E+00 0. -1.
</event>
<event>
 8    1  0.4798632E-010  0.9118800E+02  0.7816164E-02  0.1184000E+00
        -11   -1    0    0    0    0  0.00000000000E+00  0.00000000000E+00  0.45593999997E+02  0.45594000000E+02  0.51100000000E-03 0. -1.
         11   -1    0    0    0    0 -0.00000000000E+00 -0.00000000000E+00 -0.45593999997E+02  0.45594000000E+02  0.51100000000E-03 0.  1.
         23    2    1    2    0    0  0.00000000000E+00  0.17763568394E-14  0.71054273576E-14  0.91188000000E+02  0.91188000000E+02 0.  0.
    9900012    2    3    3    0    0  0.22645645729E+02  0.98160668908E+01  0.35699344948E+02  0.47787266488E+02  0.19999979224E+02 0.  0.
        -12    1    3    3    0    0 -0.22645645729E+02 -0.98160668908E+01 -0.35699344948E+02  0.43400733512E+02  0.00000000000E+00 0.  1.
         11    1    4    4    0    0  0.14700760800E+02  0.27157975768E+01  0.29736219083E+02  0.33282587793E+02  0.51100000000E-03 0. -1.
        -11    1    4    4    0    0 -0.61839539219E+00  0.40990832130E+01  0.17325591163E+01  0.44929564209E+01  0.51100000000E-03 0.  1.
         12    1    4    4    0    0  0.85632803213E+01  0.30011861011E+01  0.42305667485E+01  0.10011722274E+02  0.00000000000E+00 0. -1.
</event>
<event>
 8    1  0.4798632E-010  0.9118800E+02  0.7816164E-02  0.1184000E+00
        -11   -1    0    0    0    0  0.00000000000E+00  0.00000000000E+00  0.45593999997E+02  0.45594000000E+02  0.51100000000E-03 0. -1.
         11   -1    0    0    0    0 -0.00000000000E+00 -0.00000000000E+00 -0.45593999997E+02  0.45594000000E+02  0.51100000000E-03 0.  1.
         23    2    1    2    0    0  0.35527136788E-14  0.00000000000E+00  0.00000000000E+00  0.91188000000E+02  0.91188000000E+02 0.  0.
    9900012    2    3    3    0    0 -0.17786121549E+02  0.39529772328E+02  0.21620333754E+01  0.47787269495E+02  0.19999992935E+02 0.  0.
         12    1    3    3    0    0  0.17786121549E+02 -0.39529772328E+02 -0.21620333754E+01  0.43400730505E+02  0.00000000000E+00 0. -1.
         11    1    4    4    0    0 -0.49153425405E+01  0.29447336132E+01  0.14036548833E+01  0.58993470517E+01  0.51100000000E-03 0. -1.
        -11    1    4    4    0    0  0.20366508102E+01  0.92747648407E+01  0.45755345632E+01  0.10540622665E+02  0.51100000000E-03 0.  1.
        -12    1    4    4    0    0 -0.14907429819E+02  0.27310273874E+02 -0.38171560711E+01  0.31347299778E+02  0.00000000000E+00 0.  1.
</event>
<event>
 8    1  0.4798632E-010  0.9118800E+02  0.7816164E-02  0.1184000E+00
        -11   -1    0    0    0    0  0.00000000000E+00  0.00000000000E+00  0.45593999997E+02  0.45594000000E+02  0.51100000000E-03 0.  1.
         11   -1    0    0    0    0 -0.00000000000E+00 -0.00000000000E+00 -0.45593999997E+02  0.45594000000E+02  0.51100000000E-03 0. -1.
         23    2    1    2    0    0  0.00000000000E+00  0.35527136788E-14 -0.17763568394E-14  0.91188000000E+02  0.91188000000E+02 0.  0.
    9900012    2    3    3    0    0  0.33074982228E+02 -0.23834470083E+02  0.14885793452E+02  0.47787271202E+02  0.20000000717E+02 0.  0.
         12    1    3    3    0    0 -0.33074982228E+02  0.23834470083E+02 -0.14885793452E+02  0.43400728798E+02  0.00000000000E+00 0. -1.
         11    1    4    4    0    0  0.62907021480E+01  0.88277667599E+00 -0.19199339525E+01  0.66361415610E+01  0.51100000000E-03 0. -1.
        -11    1    4    4    0    0  0.19178002860E+02 -0.22615350531E+02  0.13809314125E+02  0.32710044791E+02  0.51100000000E-03 0.  1.
        -12    1    4    4    0    0  0.76062772202E+01 -0.21018962279E+01  0.29964132789E+01  0.84410848498E+01  0.00000000000E+00 0.  1.
</event>
<event>
 8    1  0.4798632E-010  0.9118800E+02  0.7816164E-02  0.1184000E+00
        -11   -1    0    0    0    0  0.00000000000E+00  0.00000000000E+00  0.45593999997E+02  0.45594000000E+02  0.51100000000E-03 0. -1.
         11   -1    0    0    0    0 -0.00000000000E+00 -0.00000000000E+00 -0.45593999997E+02  0.45594000000E+02  0.51100000000E-03 0.  1.
         23    2    1    2    0    0 -0.17763568394E-14  0.00000000000E+00  0.35527136788E-14  0.91188000000E+02  0.91188000000E+02 0.  0.
    9900012    2    3    3    0    0 -0.12073476299E+02  0.32903845562E+02 -0.25596737362E+02  0.47787252930E+02  0.19999917409E+02 0.  0.
         12    1    3    3    0    0  0.12073476299E+02 -0.32903845562E+02  0.25596737362E+02  0.43400747070E+02  0.00000000000E+00 0. -1.
         11    1    4    4    0    0  0.47005932136E+01  0.48256783271E+01 -0.41459629728E+01  0.79102311666E+01  0.51100000000E-03 0. -1.
        -11    1    4    4    0    0 -0.12882962315E+02  0.23649583488E+02 -0.13927365526E+02  0.30319053875E+02  0.51100000000E-03 0.  1.
         12    1    4    4    0    0 -0.38911071977E+01  0.44285837466E+01 -0.75234088632E+01  0.95579678879E+01  0.00000000000E+00 0. -1.
</event>
<event>
 8    1  0.4798632E-010  0.9118800E+02  0.7816164E-02  0.1184000E+00
        -11   -1    0    0    0    0  0.00000000000E+00  0.00000000000E+00  0.45593999997E+02  0.45594000000E+02  0.51100000000E-03 0. -1.
         11   -1    0    0    0    0 -0.00000000000E+00 -0.00000000000E+00 -0.45593999997E+02  0.45594000000E+02  0.51100000000E-03 0.  1.
         23    2    1    2    0    0  0.17763568394E-14  0.00000000000E+00  0.00000000000E+00  0.91188000000E+02  0.91188000000E+02 0.  0.
    9900012    2    3    3    0    0 -0.95969481854E+01  0.24496813287E+02  0.34517062636E+02  0.47787275482E+02  0.20000020234E+02 0.  0.
        -12    1    3    3    0    0  0.95969481854E+01 -0.24496813287E+02 -0.34517062636E+02  0.43400724518E+02  0.00000000000E+00 0.  1.
         11    1    4    4    0    0 -0.45697005746E+01  0.93797857009E+01  0.19376998473E+02  0.22007512654E+02  0.51100000000E-03 0.  1.
        -11    1    4    4    0    0  0.34810597114E+01  0.10682109939E+02  0.89170453914E+01  0.14343603042E+02  0.51100000000E-03 0. -1.
        -12    1    4    4    0    0 -0.85083073222E+01  0.44349176465E+01  0.62230187711E+01  0.11436159786E+02  0.00000000000E+00 0.  1.
</event>
<event>
 8    1  0.4798632E-010  0.9118800E+02  0.7816164E-02  0.1184000E+00
        -11   -1    0    0    0    0  0.00000000000E+00  0.00000000000E+00  0.45593999997E+02  0.45594000000E+02  0.51100000000E-03 0. -1.
         11   -1    0    0    0    0 -0.00000000000E+00 -0.00000000000E+00 -0.45593999997E+02  0.45594000000E+02  0.51100000000E-03 0.  1.
         23    2    1    2    0    0  0.00000000000E+00  0.00000000000E+00  0.00000000000E+00  0.91188000000E+02  0.91188000000E+02 0.  0.
    9900012    2    3    3    0    0 -0.48693471512E+01 -0.32019514372E+02  0.28890555053E+02  0.47787262522E+02  0.19999961144E+02 0.  0.
        -12    1    3    3    0    0  0.48693471512E+01  0.32019514372E+02 -0.28890555053E+02  0.43400737478E+02  0.00000000000E+00 0.  1.
         11    1    4    4    0    0  0.55195672063E+01 -0.58053527904E+01  0.12777084890E+01  0.81117373237E+01  0.51100000000E-03 0. -1.
        -11    1    4    4    0    0 -0.55151031019E+01 -0.13326804219E+02  0.11298522941E+02  0.18321481758E+02  0.51100000000E-03 0.  1.
         12    1    4    4    0    0 -0.48738112555E+01 -0.12887357363E+02  0.16314323623E+02  0.21354043440E+02  0.00000000000E+00 0. -1.
</event>
<event>
 8    1  0.4798632E-010  0.9118800E+02  0.7816164E-02  0.1184000E+00
        -11   -1    0    0    0    0  0.00000000000E+00  0.00000000000E+00  0.45593999997E+02  0.45594000000E+02  0.51100000000E-03 0.  1.
         11   -1    0    0    0    0 -0.00000000000E+00 -0.00000000000E+00 -0.45593999997E+02  0.45594000000E+02  0.51100000000E-03 0. -1.
         23    2    1    2    0    0  0.71054273576E-14  0.00000000000E+00 -0.17763568394E-14  0.91188000000E+02  0.91188000000E+02 0.  0.
    9900012    2    3    3    0    0  0.41109518238E+02 -0.85052439288E+01 -0.11013370134E+02  0.47787239802E+02  0.19999857551E+02 0.  0.
         12    1    3    3    0    0 -0.41109518238E+02  0.85052439288E+01  0.11013370134E+02  0.43400760198E+02  0.00000000000E+00 0. -1.
         11    1    4    4    0    0  0.18273102239E+02 -0.98851545637E+01 -0.87082957716E+01  0.22526805403E+02  0.51100000000E-03 0. -1.
        -11    1    4    4    0    0  0.23583209043E+02  0.10624246918E+01 -0.34491739850E+01  0.23857772244E+02  0.51100000000E-03 0.  1.
         12    1    4    4    0    0 -0.74679304332E+00  0.31748594312E+00  0.11440996223E+01  0.14026621544E+01  0.00000000000E+00 0. -1.
</event>
<event>
 8    1  0.4798632E-010  0.9118800E+02  0.7816164E-02  0.1184000E+00
        -11   -1    0    0    0    0  0.00000000000E+00  0.00000000000E+00  0.45593999997E+02  0.45594000000E+02  0.51100000000E-03 0. -1.
         11   -1    0    0    0    0 -0.00000000000E+00 -0.00000000000E+00 -0.45593999997E+02  0.45594000000E+02  0.51100000000E-03 0.  1.
         23    2    1    2    0    0 -0.17763568394E-14  0.00000000000E+00  0.00000000000E+00  0.91188000000E+02  0.91188000000E+02 0.  0.
    9900012    2    3    3    0    0 -0.14872529593E+02  0.25141716290E+02  0.32098703568E+02  0.47787253402E+02  0.19999919562E+02 0.  0.
        -12    1    3    3    0    0  0.14872529593E+02 -0.25141716290E+02 -0.32098703568E+02  0.43400746598E+02  0.00000000000E+00 0.  1.
         11    1    4    4    0    0 -0.10424204436E+02  0.61438868008E+01  0.13887565192E+02  0.18419442184E+02  0.51100000000E-03 0. -1.
        -11    1    4    4    0    0 -0.29609647527E+01  0.12979055368E+02  0.40595628346E+01  0.13917731180E+02  0.51100000000E-03 0.  1.
        -12    1    4    4    0    0 -0.14873604043E+01  0.60187741205E+01  0.14151575542E+02  0.15450080039E+02  0.00000000000E+00 0.  1.
</event>
<event>
 8    1  0.4798632E-010  0.9118800E+02  0.7816164E-02  0.1184000E+00
        -11   -1    0    0    0    0  0.00000000000E+00  0.00000000000E+00  0.45593999997E+02  0.45594000000E+02  0.51100000000E-03 0.  1.
         11   -1    0    0    0    0 -0.00000000000E+00 -0.00000000000E+00 -0.45593999997E+02  0.45594000000E+02  0.51100000000E-03 0. -1.
         23    2    1    2    0    0  0.44408920985E-15  0.00000000000E+00  0.00000000000E+00  0.91188000000E+02  0.91188000000E+02 0.  0.
    9900012    2    3    3    0    0 -0.35168268459E+01 -0.42266666558E+02 -0.92078512427E+01  0.47787266164E+02  0.19999977749E+02 0.  0.
         12    1    3    3    0    0  0.35168268459E+01  0.42266666558E+02  0.92078512427E+01  0.43400733836E+02  0.00000000000E+00 0. -1.
         11    1    4    4    0    0  0.40438592895E+01 -0.15863502519E+02 -0.84734782888E+01  0.18433755577E+02  0.51100000000E-03 0. -1.
        -11    1    4    4    0    0 -0.91531925297E+01 -0.26171656482E+02 -0.52836724683E+00  0.27731132481E+02  0.51100000000E-03 0.  1.
        -12    1    4    4    0    0  0.15925063944E+01 -0.23150755719E+00 -0.20600570708E+00  0.16223781053E+01  0.00000000000E+00 0.  1.
</event>
<event>
 8    1  0.4798632E-010  0.9118800E+02  0.7816164E-02  0.1184000E+00
        -11   -1    0    0    0    0  0.00000000000E+00  0.00000000000E+00  0.45593999997E+02  0.45594000000E+02  0.51100000000E-03 0. -1.
         11   -1    0    0    0    0 -0.00000000000E+00 -0.00000000000E+00 -0.45593999997E+02  0.45594000000E+02  0.51100000000E-03 0.  1.
         23    2    1    2    0    0  0.17763568394E-14  0.00000000000E+00  0.71054273576E-14  0.91188000000E+02  0.91188000000E+02 0.  0.
    9900012    2    3    3    0    0 -0.92984546207E+01  0.12408990988E+02 -0.40536147275E+02  0.47787267845E+02  0.19999985415E+02 0.  0.
         12    1    3    3    0    0  0.92984546207E+01 -0.12408990988E+02  0.40536147275E+02  0.43400732155E+02  0.00000000000E+00 0. -1.
         11    1    4    4    0    0 -0.34467940982E+01 -0.16724324846E+00 -0.19976956637E+02  0.20272818171E+02  0.51100000000E-03 0. -1.
        -11    1    4    4    0    0 -0.53484653381E+00  0.27977325233E+01  0.11865684178E+01  0.30856624829E+01  0.51100000000E-03 0.  1.
        -12    1    4    4    0    0 -0.53168139887E+01  0.97785017135E+01 -0.21745759055E+02  0.24428787191E+02  0.00000000000E+00 0.  1.
</event>
<event>
 8    1  0.7769291E-010  0.9118800E+02  0.7816164E-02  0.1184000E+00
        -11   -1    0    0    0    0  0.00000000000E+00  0.00000000000E+00  0.45593999997E+02  0.45594000000E+02  0.51100000000E-03 0. -1.
         11   -1    0    0    0    0 -0.00000000000E+00 -0.00000000000E+00 -0.45593999997E+02  0.45594000000E+02  0.51100000000E-03 0.  1.
         23    2    1    2    0    0  0.88817841970E-15  0.00000000000E+00  0.00000000000E+00  0.91188000000E+02  0.91188000000E+02 0.  0.
    9900012    2    3    3    0    0  0.60455643290E+01  0.96858603404E+01 -0.41871930059E+02  0.47787271141E+02  0.20000000442E+02 0.  0.
         12    1    3    3    0    0 -0.60455643290E+01 -0.96858603404E+01  0.41871930059E+02  0.43400728859E+02  0.00000000000E+00 0. -1.
         11    1    4    4    0    0 -0.22399087582E+00 -0.12160165953E+01  0.99234332415E+00  0.15854380488E+01  0.51100000000E-03 0. -1.
        -11    1    4    4    0    0 -0.18731596409E+01  0.72120190584E+01 -0.26811490280E+02  0.27827647354E+02  0.51100000000E-03 0.  1.
        -12    1    4    4    0    0  0.81427148456E+01  0.36898578772E+01 -0.16052783103E+02  0.18374185739E+02  0.00000000000E+00 0.  1.
</event>
<event>
 8    1  0.4798632E-010  0.9118800E+02  0.7816164E-02  0.1184000E+00
        -11   -1    0    0    0    0  0.00000000000E+00  0.00000000000E+00  0.45593999997E+02  0.45594000000E+02  0.51100000000E-03 0. -1.
         11   -1    0    0    0    0 -0.00000000000E+00 -0.00000000000E+00 -0.45593999997E+02  0.45594000000E+02  0.51100000000E-03 0.  1.
         23    2    1    2    0    0  0.00000000000E+00  0.00000000000E+00  0.00000000000E+00  0.91188000000E+02  0.91188000000E+02 0.  0.
    9900012    2    3    3    0    0  0.10826199385E+02 -0.24638821402E+02  0.34049161184E+02  0.47787268548E+02  0.19999988620E+02 0.  0.
        -12    1    3    3    0    0 -0.10826199385E+02  0.24638821402E+02 -0.34049161184E+02  0.43400731452E+02  0.00000000000E+00 0.  1.
         11    1    4    4    0    0  0.11573207931E+02 -0.10005209811E+02  0.24333310235E+02  0.28742883509E+02  0.51100000000E-03 0. -1.
        -11    1    4    4    0    0  0.12075172109E+01 -0.12797552648E+00 -0.36974002353E+00  0.12693240312E+01  0.51100000000E-03 0.  1.
         12    1    4    4    0    0 -0.19545257569E+01 -0.14505636064E+02  0.10085590972E+02  0.17775061008E+02  0.00000000000E+00 0. -1.
</event>
<event>
 8    1  0.4798632E-010  0.9118800E+02  0.7816164E-02  0.1184000E+00
        -11   -1    0    0    0    0  0.00000000000E+00  0.00000000000E+00  0.45593999997E+02  0.45594000000E+02  0.51100000000E-03 0. -1.
         11   -1    0    0    0    0 -0.00000000000E+00 -0.00000000000E+00 -0.45593999997E+02  0.45594000000E+02  0.51100000000E-03 0.  1.
         23    2    1    2    0    0  0.00000000000E+00  0.00000000000E+00 -0.35527136788E-14  0.91188000000E+02  0.91188000000E+02 0.  0.
    9900012    2    3    3    0    0  0.20622783037E+02  0.26542113693E+02 -0.27456156928E+02  0.47787268062E+02  0.19999986401E+02 0.  0.
         12    1    3    3    0    0 -0.20622783037E+02 -0.26542113693E+02  0.27456156928E+02  0.43400731938E+02  0.00000000000E+00 0. -1.
         11    1    4    4    0    0  0.38779031921E+01  0.15991663912E+01 -0.90435576770E+01  0.99690221202E+01  0.51100000000E-03 0. -1.
        -11    1    4    4    0    0  0.17802817732E+02  0.26005801440E+02 -0.17826942006E+02  0.36208312434E+02  0.51100000000E-03 0.  1.
        -12    1    4    4    0    0 -0.10579378873E+01 -0.10628541377E+01 -0.58565724490E+00  0.16099335079E+01  0.00000000000E+00 0.  1.
</event>
<event>
 8    1  0.4798632E-010  0.9118800E+02  0.7816164E-02  0.1184000E+00
        -11   -1    0    0    0    0  0.00000000000E+00  0.00000000000E+00  0.45593999997E+02  0.45594000000E+02  0.51100000000E-03 0. -1.
         11   -1    0    0    0    0 -0.00000000000E+00 -0.00000000000E+00 -0.45593999997E+02  0.45594000000E+02  0.51100000000E-03 0.  1.
         23    2    1    2    0    0  0.71054273576E-14  0.00000000000E+00  0.88817841970E-15  0.91188000000E+02  0.91188000000E+02 0.  0.
    9900012    2    3    3    0    0 -0.33470861795E+02  0.27196639981E+02 -0.48648899321E+01  0.47787274549E+02  0.20000015981E+02 0.  0.
         12    1    3    3    0    0  0.33470861795E+02 -0.27196639981E+02  0.48648899321E+01  0.43400725451E+02  0.00000000000E+00 0. -1.
         11    1    4    4    0    0 -0.46156552041E+01  0.16484260363E+01 -0.32624014643E+01  0.58876858727E+01  0.51100000000E-03 0. -1.
        -11    1    4    4    0    0 -0.55808414252E-01  0.68458306625E+01 -0.31272449300E+01  0.75264980669E+01  0.51100000000E-03 0.  1.
        -12    1    4    4    0    0 -0.28799398177E+02  0.18702383282E+02  0.15247564622E+01  0.34373090610E+02  0.00000000000E+00 0.  1.
</event>
<event>
 8    1  0.4798632E-010  0.9118800E+02  0.7816164E-02  0.1184000E+00
        -11   -1    0    0    0    0  0.00000000000E+00  0.00000000000E+00  0.45593999997E+02  0.45594000000E+02  0.51100000000E-03 0. -1.
         11   -1    0    0    0    0 -0.00000000000E+00 -0.00000000000E+00 -0.45593999997E+02  0.45594000000E+02  0.51100000000E-03 0.  1.
         23    2    1    2    0    0  0.35527136788E-14  0.00000000000E+00 -0.35527136788E-14  0.91188000000E+02  0.91188000000E+02 0.  0.
    9900012    2    3    3    0    0 -0.26893499965E+02  0.29436145105E+02  0.17142835705E+02  0.47787265040E+02  0.19999972625E+02 0.  0.
        -12    1    3    3    0    0  0.26893499965E+02 -0.29436145105E+02 -0.17142835705E+02  0.43400734960E+02  0.00000000000E+00 0.  1.
         11    1    4    4    0    0 -0.15762374967E+02  0.23689597695E+02  0.85190100715E+01  0.29702239585E+02  0.51100000000E-03 0. -1.
        -11    1    4    4    0    0 -0.57407259201E+01  0.24621173998E+01  0.98414871919E+01  0.11656449999E+02  0.51100000000E-03 0.  1.
        -12    1    4    4    0    0 -0.53903990781E+01  0.32844300111E+01 -0.12176615581E+01  0.64285754556E+01  0.00000000000E+00 0.  1.
</event>
<event>
 8    1  0.4798632E-010  0.9118800E+02  0.7816164E-02  0.1184000E+00
        -11   -1    0    0    0    0  0.00000000000E+00  0.00000000000E+00  0.45593999997E+02  0.45594000000E+02  0.51100000000E-03 0. -1.
         11   -1    0    0    0    0 -0.00000000000E+00 -0.00000000000E+00 -0.45593999997E+02  0.45594000000E+02  0.51100000000E-03 0.  1.
         23    2    1    2    0    0 -0.35527136788E-14  0.35527136788E-14  0.00000000000E+00  0.91188000000E+02  0.91188000000E+02 0.  0.
    9900012    2    3    3    0    0 -0.27431786513E+02  0.12574939548E+02 -0.31192807819E+02  0.47787271025E+02  0.19999999912E+02 0.  0.
         12    1    3    3    0    0  0.27431786513E+02 -0.12574939548E+02  0.31192807819E+02  0.43400728975E+02  0.00000000000E+00 0. -1.
         11    1    4    4    0    0 -0.23615569629E+02  0.70404485074E+01 -0.18232281903E+02  0.30654186463E+02  0.51100000000E-03 0.  1.
        -11    1    4    4    0    0 -0.39887233470E+01  0.55416731853E+01 -0.35031262904E+01  0.76741090492E+01  0.51100000000E-03 0. -1.
         12    1    4    4    0    0  0.17250646321E+00 -0.71821451267E-02 -0.94573996262E+01  0.94589755129E+01  0.00000000000E+00 0. -1.
</event>
<event>
 8    1  0.4798632E-010  0.9118800E+02  0.7816164E-02  0.1184000E+00
        -11   -1    0    0    0    0  0.00000000000E+00  0.00000000000E+00  0.45593999997E+02  0.45594000000E+02  0.51100000000E-03 0. -1.
         11   -1    0    0    0    0 -0.00000000000E+00 -0.00000000000E+00 -0.45593999997E+02  0.45594000000E+02  0.51100000000E-03 0.  1.
         23    2    1    2    0    0  0.00000000000E+00  0.00000000000E+00  0.00000000000E+00  0.91188000000E+02  0.91188000000E+02 0.  0.
    9900012    2    3    3    0    0  0.10329694679E+02  0.76503087314E+01 -0.41453510231E+02  0.47787270441E+02  0.19999997247E+02 0.  0.
         12    1    3    3    0    0 -0.10329694679E+02 -0.76503087314E+01  0.41453510231E+02  0.43400729559E+02  0.00000000000E+00 0. -1.
         11    1    4    4    0    0  0.58090140118E+01  0.32278833019E-01 -0.19553098372E+01  0.61293492748E+01  0.51100000000E-03 0. -1.
        -11    1    4    4    0    0  0.41588513044E+01  0.98815877440E+01 -0.29154626672E+02  0.31063388050E+02  0.51100000000E-03 0.  1.
         12    1    4    4    0    0  0.36182936323E+00 -0.22635578456E+01 -0.10343573721E+02  0.10594533115E+02  0.00000000000E+00 0. -1.
</event>
<event>
 8    1  0.4798632E-010  0.9118800E+02  0.7816164E-02  0.1184000E+00
        -11   -1    0    0    0    0  0.00000000000E+00  0.00000000000E+00  0.45593999997E+02  0.45594000000E+02  0.51100000000E-03 0. -1.
         11   -1    0    0    0    0 -0.00000000000E+00 -0.00000000000E+00 -0.45593999997E+02  0.45594000000E+02  0.51100000000E-03 0.  1.
         23    2    1    2    0    0  0.88817841970E-15  0.00000000000E+00 -0.71054273576E-14  0.91188000000E+02  0.91188000000E+02 0.  0.
    9900012    2    3    3    0    0 -0.75466860324E+01 -0.42901543282E+01  0.42523703967E+02  0.47787270820E+02  0.19999998978E+02 0.  0.
        -12    1    3    3    0    0  0.75466860324E+01  0.42901543282E+01 -0.42523703967E+02  0.43400729180E+02  0.00000000000E+00 0.  1.
         11    1    4    4    0    0 -0.10041483680E+02 -0.17347308772E+01  0.19848206376E+02  0.22311252370E+02  0.51100000000E-03 0. -1.
        -11    1    4    4    0    0  0.60942833728E+01 -0.34540204578E+01  0.19014703568E+02  0.20263995144E+02  0.51100000000E-03 0.  1.
        -12    1    4    4    0    0 -0.35994857250E+01  0.89859700680E+00  0.36607940236E+01  0.52120233066E+01  0.00000000000E+00 0.  1.
</event>
<event>
 8    1  0.4798632E-010  0.9118800E+02  0.7816164E-02  0.1184000E+00
        -11   -1    0    0    0    0  0.00000000000E+00  0.00000000000E+00  0.45593999997E+02  0.45594000000E+02  0.51100000000E-03 0. -1.
         11   -1    0    0    0    0 -0.00000000000E+00 -0.00000000000E+00 -0.45593999997E+02  0.45594000000E+02  0.51100000000E-03 0.  1.
         23    2    1    2    0    0 -0.71054273576E-14  0.00000000000E+00  0.17763568394E-14  0.91188000000E+02  0.91188000000E+02 0.  0.
    9900012    2    3    3    0    0 -0.39026041843E+02 -0.15376261359E+02 -0.11142796016E+02  0.47787271223E+02  0.20000000815E+02 0.  0.
         12    1    3    3    0    0  0.39026041843E+02  0.15376261359E+02  0.11142796016E+02  0.43400728777E+02  0.00000000000E+00 0. -1.
         11    1    4    4    0    0  0.12820051960E+01  0.92561311314E+00  0.15959892920E+01  0.22466595290E+01  0.51100000000E-03 0. -1.
        -11    1    4    4    0    0 -0.24268425160E+02 -0.79005365406E+01 -0.89174377987E+01  0.27035081553E+02  0.51100000000E-03 0.  1.
         12    1    4    4    0    0 -0.16039621878E+02 -0.84013379313E+01 -0.38213475097E+01  0.18505530142E+02  0.00000000000E+00 0. -1.
</event>
<event>
 8    1  0.4798632E-010  0.9118800E+02  0.7816164E-02  0.1184000E+00
        -11   -1    0    0    0    0  0.00000000000E+00  0.00000000000E+00  0.45593999997E+02  0.45594000000E+02  0.51100000000E-03 0. -1.
         11   -1    0    0    0    0 -0.00000000000E+00 -0.00000000000E+00 -0.45593999997E+02  0.45594000000E+02  0.51100000000E-03 0.  1.
         23    2    1    2    0    0  0.00000000000E+00  0.00000000000E+00  0.00000000000E+00  0.91188000000E+02  0.91188000000E+02 0.  0.
    9900012    2    3    3    0    0 -0.14189570015E+02  0.14644850188E+01 -0.40989432143E+02  0.47787283866E+02  0.20000058458E+02 0.  0.
         12    1    3    3    0    0  0.14189570015E+02 -0.14644850188E+01  0.40989432143E+02  0.43400716134E+02  0.00000000000E+00 0. -1.
         11    1    4    4    0    0 -0.19061253092E+01  0.17028309416E+01  0.15517789113E+01  0.29901446388E+01  0.51100000000E-03 0. -1.
        -11    1    4    4    0    0 -0.86937192689E+01 -0.29355672734E+01 -0.33003627752E+02  0.34255477737E+02  0.51100000000E-03 0.  1.
         12    1    4    4    0    0 -0.35897254365E+01  0.26972213506E+01 -0.95375833023E+01  0.10541661490E+02  0.00000000000E+00 0. -1.
</event>
<event>
 8    1  0.4798632E-010  0.9118800E+02  0.7816164E-02  0.1184000E+00
        -11   -1    0    0    0    0  0.00000000000E+00  0.00000000000E+00  0.45593999997E+02  0.45594000000E+02  0.51100000000E-03 0. -1.
         11   -1    0    0    0    0 -0.00000000000E+00 -0.00000000000E+00 -0.45593999997E+02  0.45594000000E+02  0.51100000000E-03 0.  1.
         23    2    1    2    0    0  0.00000000000E+00  0.17763568394E-14  0.00000000000E+00  0.91188000000E+02  0.91188000000E+02 0.  0.
    9900012    2    3    3    0    0 -0.22391047414E+02 -0.14947860631E+02 -0.34041540587E+02  0.47787262364E+02  0.19999960424E+02 0.  0.
         12    1    3    3    0    0  0.22391047414E+02  0.14947860631E+02  0.34041540587E+02  0.43400737636E+02  0.00000000000E+00 0. -1.
         11    1    4    4    0    0 -0.46899917543E+01 -0.10158989991E+00  0.72138724148E+00  0.47462346103E+01  0.51100000000E-03 0. -1.
        -11    1    4    4    0    0 -0.50165804596E+01 -0.83698882103E+01 -0.21362548667E+02  0.23485731711E+02  0.51100000000E-03 0.  1.
        -12    1    4    4    0    0 -0.12684475200E+02 -0.64763825212E+01 -0.13400379161E+02  0.19555296043E+02  0.00000000000E+00 0.  1.
</event>
<event>
 8    1  0.4798632E-010  0.9118800E+02  0.7816164E-02  0.1184000E+00
        -11   -1    0    0    0    0  0.00000000000E+00  0.00000000000E+00  0.45593999997E+02  0.45594000000E+02  0.51100000000E-03 0. -1.
         11   -1    0    0    0    0 -0.00000000000E+00 -0.00000000000E+00 -0.45593999997E+02  0.45594000000E+02  0.51100000000E-03 0.  1.
         23    2    1    2    0    0  0.00000000000E+00 -0.71054273576E-14 -0.17763568394E-14  0.91188000000E+02  0.91188000000E+02 0.  0.
    9900012    2    3    3    0    0 -0.10119555957E+02 -0.40304751066E+02 -0.12519781431E+02  0.47787270762E+02  0.19999998714E+02 0.  0.
         12    1    3    3    0    0  0.10119555957E+02  0.40304751066E+02  0.12519781431E+02  0.43400729238E+02  0.00000000000E+00 0. -1.
         11    1    4    4    0    0 -0.63015814107E+00 -0.31406330564E+02 -0.12811918097E+02  0.33924916276E+02  0.51100000000E-03 0. -1.
        -11    1    4    4    0    0 -0.91942608764E+01 -0.88479737558E+01  0.12856150831E+01  0.12824736997E+02  0.51100000000E-03 0.  1.
         12    1    4    4    0    0 -0.29513693922E+00 -0.50446746853E-01 -0.99347841761E+00  0.10376174890E+01  0.00000000000E+00 0. -1.
</event>
<event>
 8    1  0.4798632E-010  0.9118800E+02  0.7816164E-02  0.1184000E+00
        -11   -1    0    0    0    0  0.00000000000E+00  0.00000000000E+00  0.45593999997E+02  0.45594000000E+02  0.51100000000E-03 0. -1.
         11   -1    0    0    0    0 -0.00000000000E+00 -0.00000000000E+00 -0.45593999997E+02  0.45594000000E+02  0.51100000000E-03 0.  1.
         23    2    1    2    0    0  0.35527136788E-14  0.00000000000E+00  0.00000000000E+00  0.91188000000E+02  0.91188000000E+02 0.  0.
    9900012    2    3    3    0    0 -0.23978458679E+02  0.14478681636E+02 -0.33151548142E+02  0.47787264444E+02  0.19999969908E+02 0.  0.
         12    1    3    3    0    0  0.23978458679E+02 -0.14478681636E+02  0.33151548142E+02  0.43400735556E+02  0.00000000000E+00 0. -1.
         11    1    4    4    0    0 -0.22115755728E+02  0.12846962517E+02 -0.20677940897E+02  0.32889638754E+02  0.51100000000E-03 0. -1.
        -11    1    4    4    0    0 -0.30410340082E+01  0.41861521389E+01 -0.66112906565E+01  0.83952916551E+01  0.51100000000E-03 0.  1.
         12    1    4    4    0    0  0.11783310568E+01 -0.25544330194E+01 -0.58623165883E+01  0.65023340357E+01  0.00000000000E+00 0. -1.
</event>
<event>
 8    1  0.4798632E-010  0.9118800E+02  0.7816164E-02  0.1184000E+00
        -11   -1    0    0    0    0  0.00000000000E+00  0.00000000000E+00  0.45593999997E+02  0.45594000000E+02  0.51100000000E-03 0. -1.
         11   -1    0    0    0    0 -0.00000000000E+00 -0.00000000000E+00 -0.45593999997E+02  0.45594000000E+02  0.51100000000E-03 0.  1.
         23    2    1    2    0    0 -0.17763568394E-14  0.88817841970E-15  0.71054273576E-14  0.91188000000E+02  0.91188000000E+02 0.  0.
    9900012    2    3    3    0    0  0.15420944552E+02 -0.59453029766E+01  0.40130673658E+02  0.47787272741E+02  0.20000007736E+02 0.  0.
        -12    1    3    3    0    0 -0.15420944552E+02  0.59453029766E+01 -0.40130673658E+02  0.43400727259E+02  0.00000000000E+00 0.  1.
         11    1    4    4    0    0  0.26233816179E+01 -0.64247654158E+01  0.25039361478E+02  0.25983251629E+02  0.51100000000E-03 0. -1.
        -11    1    4    4    0    0  0.56587375570E+01 -0.29627616195E+00  0.68565013026E+00  0.57078197821E+01  0.51100000000E-03 0.  1.
        -12    1    4    4    0    0  0.71388253771E+01  0.77573860117E+00  0.14405662050E+02  0.16096201330E+02  0.00000000000E+00 0.  1.
</event>
<event>
 8    1  0.4798632E-010  0.9118800E+02  0.7816164E-02  0.1184000E+00
        -11   -1    0    0    0    0  0.00000000000E+00  0.00000000000E+00  0.45593999997E+02  0.45594000000E+02  0.51100000000E-03 0. -1.
         11   -1    0    0    0    0 -0.00000000000E+00 -0.00000000000E+00 -0.45593999997E+02  0.45594000000E+02  0.51100000000E-03 0.  1.
         23    2    1    2    0    0  0.00000000000E+00  0.00000000000E+00  0.00000000000E+00  0.91188000000E+02  0.91188000000E+02 0.  0.
    9900012    2    3    3    0    0 -0.23186970552E+02 -0.10868838343E+02  0.35040775159E+02  0.47787272194E+02  0.20000005242E+02 0.  0.
        -12    1    3    3    0    0  0.23186970552E+02  0.10868838343E+02 -0.35040775159E+02  0.43400727806E+02  0.00000000000E+00 0.  1.
         11    1    4    4    0    0 -0.76571242963E+01 -0.32981082273E+00  0.13356944699E+02  0.15399620113E+02  0.51100000000E-03 0. -1.
        -11    1    4    4    0    0 -0.18160311664E+02 -0.67745474179E+01  0.16428003108E+02  0.25408083337E+02  0.51100000000E-03 0.  1.
        -12    1    4    4    0    0  0.26304654085E+01 -0.37644801029E+01  0.52558273518E+01  0.69795687447E+01  0.00000000000E+00 0.  1.
</event>
<event>
 8    1  0.4798632E-010  0.9118800E+02  0.7816164E-02  0.1184000E+00
        -11   -1    0    0    0    0  0.00000000000E+00  0.00000000000E+00  0.45593999997E+02  0.45594000000E+02  0.51100000000E-03 0. -1.
         11   -1    0    0    0    0 -0.00000000000E+00 -0.00000000000E+00 -0.45593999997E+02  0.45594000000E+02  0.51100000000E-03 0.  1.
         23    2    1    2    0    0 -0.35527136788E-14  0.35527136788E-14  0.35527136788E-14  0.91188000000E+02  0.91188000000E+02 0.  0.
    9900012    2    3    3    0    0 -0.22827900457E+02  0.31896611511E+02  0.18577321982E+02  0.47787265477E+02  0.19999974615E+02 0.  0.
        -12    1    3    3    0    0  0.22827900457E+02 -0.31896611511E+02 -0.18577321982E+02  0.43400734523E+02  0.00000000000E+00 0.  1.
         11    1    4    4    0    0 -0.35891332969E+01  0.14527946927E+02  0.33745207126E+01  0.15340485977E+02  0.51100000000E-03 0. -1.
        -11    1    4    4    0    0 -0.16034569136E+02  0.12961473966E+02  0.16985642540E+02  0.26713653204E+02  0.51100000000E-03 0.  1.
         12    1    4    4    0    0 -0.32041980237E+01  0.44071906184E+01 -0.17828412705E+01  0.57331262953E+01  0.00000000000E+00 0. -1.
</event>
<event>
 8    1  0.4798632E-010  0.9118800E+02  0.7816164E-02  0.1184000E+00
        -11   -1    0    0    0    0  0.00000000000E+00  0.00000000000E+00  0.45593999997E+02  0.45594000000E+02  0.51100000000E-03 0. -1.
         11   -1    0    0    0    0 -0.00000000000E+00 -0.00000000000E+00 -0.45593999997E+02  0.45594000000E+02  0.51100000000E-03 0.  1.
         23    2    1    2    0    0 -0.44408920985E-15  0.00000000000E+00  0.00000000000E+00  0.91188000000E+02  0.91188000000E+02 0.  0.
    9900012    2    3    3    0    0 -0.25120129508E+01 -0.31264061071E+02  0.29997859830E+02  0.47787270535E+02  0.19999997677E+02 0.  0.
        -12    1    3    3    0    0  0.25120129508E+01  0.31264061071E+02 -0.29997859830E+02  0.43400729465E+02  0.00000000000E+00 0.  1.
         11    1    4    4    0    0 -0.95525752898E-01 -0.21793035519E+02  0.10488213909E+02  0.24185701428E+02  0.51100000000E-03 0. -1.
        -11    1    4    4    0    0  0.25491045629E+01 -0.17375722693E+01  0.16086149970E+01  0.34791858147E+01  0.51100000000E-03 0.  1.
         12    1    4    4    0    0 -0.49655917608E+01 -0.77334532825E+01  0.17901030925E+02  0.20122383293E+02  0.00000000000E+00 0. -1.
</event>
<event>
 8    1  0.4798632E-010  0.9118800E+02  0.7816164E-02  0.1184000E+00
        -11   -1    0    0    0    0  0.00000000000E+00  0.00000000000E+00  0.45593999997E+02  0.45594000000E+02  0.51100000000E-03 0. -1.
         11   -1    0    0    0    0 -0.00000000000E+00 -0.00000000000E+00 -0.45593999997E+02  0.45594000000E+02  0.51100000000E-03 0.  1.
         23    2    1    2    0    0  0.00000000000E+00  0.00000000000E+00  0.00000000000E+00  0.91188000000E+02  0.91188000000E+02 0.  0.
    9900012    2    3    3    0    0 -0.22239404848E+02  0.16119637357E+01 -0.37234851157E+02  0.47787266184E+02  0.19999977840E+02 0.  0.
         12    1    3    3    0    0  0.22239404848E+02 -0.16119637357E+01  0.37234851157E+02  0.43400733816E+02  0.00000000000E+00 0. -1.
         11    1    4    4    0    0  0.55372636545E+00  0.12351604402E+01 -0.26413612358E+01  0.29679999393E+01  0.51100000000E-03 0. -1.
        -11    1    4    4    0    0 -0.20077105557E+01  0.25086104134E+01 -0.17588433144E+02  0.17879513657E+02  0.51100000000E-03 0.  1.
        -12    1    4    4    0    0 -0.20785420658E+02 -0.21318071180E+01 -0.17005056777E+02  0.26939752588E+02  0.00000000000E+00 0.  1.
</event>
<event>
 8    1  0.4798632E-010  0.9118800E+02  0.7816164E-02  0.1184000E+00
        -11   -1    0    0    0    0  0.00000000000E+00  0.00000000000E+00  0.45593999997E+02  0.45594000000E+02  0.51100000000E-03 0. -1.
         11   -1    0    0    0    0 -0.00000000000E+00 -0.00000000000E+00 -0.45593999997E+02  0.45594000000E+02  0.51100000000E-03 0.  1.
         23    2    1    2    0    0  0.00000000000E+00  0.00000000000E+00  0.00000000000E+00  0.91188000000E+02  0.91188000000E+02 0.  0.
    9900012    2    3    3    0    0  0.16987225143E+02 -0.23052383662E+02 -0.32613568752E+02  0.47787273310E+02  0.20000010329E+02 0.  0.
         12    1    3    3    0    0 -0.16987225143E+02  0.23052383662E+02  0.32613568752E+02  0.43400726690E+02  0.00000000000E+00 0. -1.
         11    1    4    4    0    0 -0.11760900678E+01 -0.49944273314E+01 -0.21444994426E+01  0.55611482930E+01  0.51100000000E-03 0. -1.
        -11    1    4    4    0    0  0.18872823620E+02 -0.10737776906E+02 -0.20712855031E+02  0.30008426951E+02  0.51100000000E-03 0.  1.
        -12    1    4    4    0    0 -0.70950840975E+00 -0.73201794246E+01 -0.97562142776E+01  0.12217698066E+02  0.00000000000E+00 0.  1.
</event>
<event>
 8    1  0.4798632E-010  0.9118800E+02  0.7816164E-02  0.1184000E+00
        -11   -1    0    0    0    0  0.00000000000E+00  0.00000000000E+00  0.45593999997E+02  0.45594000000E+02  0.51100000000E-03 0.  1.
         11   -1    0    0    0    0 -0.00000000000E+00 -0.00000000000E+00 -0.45593999997E+02  0.45594000000E+02  0.51100000000E-03 0. -1.
         23    2    1    2    0    0 -0.44408920985E-15  0.35527136788E-14  0.00000000000E+00  0.91188000000E+02  0.91188000000E+02 0.  0.
    9900012    2    3    3    0    0  0.12045317715E+01  0.31121147246E+02 -0.30226582644E+02  0.47787274188E+02  0.20000014331E+02 0.  0.
         12    1    3    3    0    0 -0.12045317715E+01 -0.31121147246E+02  0.30226582644E+02  0.43400725812E+02  0.00000000000E+00 0. -1.
         11    1    4    4    0    0  0.36878376512E+01  0.21046653296E+02 -0.10598091828E+02  0.23851232927E+02  0.51100000000E-03 0. -1.
        -11    1    4    4    0    0 -0.44241490243E-01  0.33441347108E+01 -0.33964286319E+00  0.33616293385E+01  0.51100000000E-03 0.  1.
         12    1    4    4    0    0 -0.24390643894E+01  0.67303592398E+01 -0.19288847953E+02  0.20574411922E+02  0.00000000000E+00 0. -1.
</event>
<event>
 8    1  0.4798632E-010  0.9118800E+02  0.7816164E-02  0.1184000E+00
        -11   -1    0    0    0    0  0.00000000000E+00  0.00000000000E+00  0.45593999997E+02  0.45594000000E+02  0.51100000000E-03 0. -1.
         11   -1    0    0    0    0 -0.00000000000E+00 -0.00000000000E+00 -0.45593999997E+02  0.45594000000E+02  0.51100000000E-03 0.  1.
         23    2    1    2    0    0  0.00000000000E+00  0.00000000000E+00 -0.17763568394E-14  0.91188000000E+02  0.91188000000E+02 0.  0.
    9900012    2    3    3    0    0 -0.29577562810E+02  0.28037734680E+02  0.14922350839E+02  0.47787270256E+02  0.19999996404E+02 0.  0.
        -12    1    3    3    0    0  0.29577562810E+02 -0.28037734680E+02 -0.14922350839E+02  0.43400729744E+02  0.00000000000E+00 0.  1.
         11    1    4    4    0    0 -0.21583048111E+02  0.23916919343E+02  0.34884230724E+01  0.32403951803E+02  0.51100000000E-03 0. -1.
        -11    1    4    4    0    0 -0.36123070457E+01  0.38670098643E+01  0.87872382565E+01  0.10257586652E+02  0.51100000000E-03 0.  1.
         12    1    4    4    0    0 -0.43822076536E+01  0.25380547216E+00  0.26466895099E+01  0.51257318012E+01  0.00000000000E+00 0. -1.
</event>
<event>
 8    1  0.4798632E-010  0.9118800E+02  0.7816164E-02  0.1184000E+00
        -11   -1    0    0    0    0  0.00000000000E+00  0.00000000000E+00  0.45593999997E+02  0.45594000000E+02  0.51100000000E-03 0. -1.
         11   -1    0    0    0    0 -0.00000000000E+00 -0.00000000000E+00 -0.45593999997E+02  0.45594000000E+02  0.51100000000E-03 0.  1.
         23    2    1    2    0    0  0.33306690739E-15  0.00000000000E+00 -0.71054273576E-14  0.91188000000E+02  0.91188000000E+02 0.  0.
    9900012    2    3    3    0    0 -0.30574688990E+00  0.13339711142E+02 -0.41298694289E+02  0.47787268158E+02  0.19999986838E+02 0.  0.
         12    1    3    3    0    0  0.30574688990E+00 -0.13339711142E+02  0.41298694289E+02  0.43400731842E+02  0.00000000000E+00 0. -1.
         11    1    4    4    0    0 -0.16178938792E+01  0.20591404180E+01  0.94145908331E+00  0.27828017055E+01  0.51100000000E-03 0. -1.
        -11    1    4    4    0    0  0.10818515303E+00  0.13229529906E+02 -0.35448528241E+02  0.37836890997E+02  0.51100000000E-03 0.  1.
         12    1    4    4    0    0  0.12039618362E+01 -0.19489591816E+01 -0.67916251306E+01  0.71675754554E+01  0.00000000000E+00 0. -1.
</event>
<event>
 8    1  0.4798632E-010  0.9118800E+02  0.7816164E-02  0.1184000E+00
        -11   -1    0    0    0    0  0.00000000000E+00  0.00000000000E+00  0.45593999997E+02  0.45594000000E+02  0.51100000000E-03 0. -1.
         11   -1    0    0    0    0 -0.00000000000E+00 -0.00000000000E+00 -0.45593999997E+02  0.45594000000E+02  0.51100000000E-03 0.  1.
         23    2    1    2    0    0  0.00000000000E+00  0.00000000000E+00  0.00000000000E+00  0.91188000000E+02  0.91188000000E+02 0.  0.
    9900012    2    3    3    0    0  0.10644992925E+02 -0.25645843012E+02  0.33355648794E+02  0.47787257557E+02  0.19999938505E+02 0.  0.
        -12    1    3    3    0    0 -0.10644992925E+02  0.25645843012E+02 -0.33355648794E+02  0.43400742443E+02  0.00000000000E+00 0.  1.
         11    1    4    4    0    0  0.46187423564E+01 -0.14970015372E+02  0.27414599808E+02  0.31575218513E+02  0.51100000000E-03 0. -1.
        -11    1    4    4    0    0 -0.20451043727E+01 -0.23217152939E+01  0.28138856971E+01  0.41821964060E+01  0.51100000000E-03 0.  1.
         12    1    4    4    0    0  0.80713549416E+01 -0.83541123456E+01  0.31271632880E+01  0.12029842638E+02  0.00000000000E+00 0. -1.
</event>
<event>
 8    1  0.4798632E-010  0.9118800E+02  0.7816164E-02  0.1184000E+00
        -11   -1    0    0    0    0  0.00000000000E+00  0.00000000000E+00  0.45593999997E+02  0.45594000000E+02  0.51100000000E-03 0. -1.
         11   -1    0    0    0    0 -0.00000000000E+00 -0.00000000000E+00 -0.45593999997E+02  0.45594000000E+02  0.51100000000E-03 0.  1.
         23    2    1    2    0    0  0.00000000000E+00  0.00000000000E+00  0.00000000000E+00  0.91188000000E+02  0.91188000000E+02 0.  0.
    9900012    2    3    3    0    0 -0.40150424872E+01 -0.17216544229E+02  0.39637027293E+02  0.47787263901E+02  0.19999967430E+02 0.  0.
        -12    1    3    3    0    0  0.40150424872E+01  0.17216544229E+02 -0.39637027293E+02  0.43400736099E+02  0.00000000000E+00 0.  1.
         11    1    4    4    0    0 -0.63966322562E+01 -0.46052372483E+01  0.12755388818E+02  0.14994167482E+02  0.51100000000E-03 0. -1.
        -11    1    4    4    0    0  0.66269756178E+01 -0.63833472617E+01  0.70937425662E+01  0.11618309342E+02  0.51100000000E-03 0.  1.
        -12    1    4    4    0    0 -0.42453858487E+01 -0.62279597186E+01  0.19787895909E+02  0.21174787077E+02  0.00000000000E+00 0.  1.
</event>
<event>
 8    1  0.4798632E-010  0.9118800E+02  0.7816164E-02  0.1184000E+00
        -11   -1    0    0    0    0  0.00000000000E+00  0.00000000000E+00  0.45593999997E+02  0.45594000000E+02  0.51100000000E-03 0. -1.
         11   -1    0    0    0    0 -0.00000000000E+00 -0.00000000000E+00 -0.45593999997E+02  0.45594000000E+02  0.51100000000E-03 0.  1.
         23    2    1    2    0    0  0.00000000000E+00  0.00000000000E+00  0.00000000000E+00  0.91188000000E+02  0.91188000000E+02 0.  0.
    9900012    2    3    3    0    0 -0.40474530618E+02  0.53699297661E+01 -0.14717313209E+02  0.47787273248E+02  0.20000010048E+02 0.  0.
        -12    1    3    3    0    0  0.40474530618E+02 -0.53699297661E+01  0.14717313209E+02  0.43400726752E+02  0.00000000000E+00 0.  1.
         11    1    4    4    0    0 -0.26312028291E+02  0.81208283094E+01 -0.13612983814E+02  0.30717812647E+02  0.51100000000E-03 0. -1.
        -11    1    4    4    0    0 -0.27629904552E+00  0.87711287629E+00  0.21626160386E+01  0.23500162876E+01  0.51100000000E-03 0.  1.
         12    1    4    4    0    0 -0.13886203282E+02 -0.36280114196E+01 -0.32669454344E+01  0.14719444314E+02  0.00000000000E+00 0. -1.
</event>
<event>
 8    1  0.4798632E-010  0.9118800E+02  0.7816164E-02  0.1184000E+00
        -11   -1    0    0    0    0  0.00000000000E+00  0.00000000000E+00  0.45593999997E+02  0.45594000000E+02  0.51100000000E-03 0. -1.
         11   -1    0    0    0    0 -0.00000000000E+00 -0.00000000000E+00 -0.45593999997E+02  0.45594000000E+02  0.51100000000E-03 0.  1.
         23    2    1    2    0    0  0.00000000000E+00  0.00000000000E+00 -0.35527136788E-14  0.91188000000E+02  0.91188000000E+02 0.  0.
    9900012    2    3    3    0    0 -0.25013107336E+02 -0.15537724996E+02 -0.31883332561E+02  0.47787270376E+02  0.19999996953E+02 0.  0.
         12    1    3    3    0    0  0.25013107336E+02  0.15537724996E+02  0.31883332561E+02  0.43400729624E+02  0.00000000000E+00 0. -1.
         11    1    4    4    0    0 -0.18336161021E+02 -0.88837061272E+01 -0.97510318762E+01  0.22587998107E+02  0.51100000000E-03 0.  1.
        -11    1    4    4    0    0 -0.37886318852E+01 -0.75531157341E+01 -0.19240968479E+02  0.21014712873E+02  0.51100000000E-03 0. -1.
         12    1    4    4    0    0 -0.28883144300E+01  0.89909686533E+00 -0.28913322059E+01  0.41845593967E+01  0.00000000000E+00 0. -1.
</event>
<event>
 8    1  0.4798632E-010  0.9118800E+02  0.7816164E-02  0.1184000E+00
        -11   -1    0    0    0    0  0.00000000000E+00  0.00000000000E+00  0.45593999997E+02  0.45594000000E+02  0.51100000000E-03 0. -1.
         11   -1    0    0    0    0 -0.00000000000E+00 -0.00000000000E+00 -0.45593999997E+02  0.45594000000E+02  0.51100000000E-03 0.  1.
         23    2    1    2    0    0  0.00000000000E+00  0.00000000000E+00  0.00000000000E+00  0.91188000000E+02  0.91188000000E+02 0.  0.
    9900012    2    3    3    0    0  0.12958307236E+02  0.25847857136E+02 -0.32366554548E+02  0.47787270764E+02  0.19999998721E+02 0.  0.
         12    1    3    3    0    0 -0.12958307236E+02 -0.25847857136E+02  0.32366554548E+02  0.43400729236E+02  0.00000000000E+00 0. -1.
         11    1    4    4    0    0  0.59029042450E+01  0.94576614635E+01 -0.21483176084E+02  0.24203687607E+02  0.51100000000E-03 0. -1.
        -11    1    4    4    0    0  0.37971768983E+01  0.17159098191E+02 -0.91827151084E+01  0.19828652504E+02  0.51100000000E-03 0.  1.
        -12    1    4    4    0    0  0.32582260930E+01 -0.76890251824E+00 -0.17006633557E+01  0.37549306525E+01  0.00000000000E+00 0.  1.
</event>
<event>
 8    1  0.4798632E-010  0.9118800E+02  0.7816164E-02  0.1184000E+00
        -11   -1    0    0    0    0  0.00000000000E+00  0.00000000000E+00  0.45593999997E+02  0.45594000000E+02  0.51100000000E-03 0. -1.
         11   -1    0    0    0    0 -0.00000000000E+00 -0.00000000000E+00 -0.45593999997E+02  0.45594000000E+02  0.51100000000E-03 0.  1.
         23    2    1    2    0    0  0.00000000000E+00  0.17763568394E-14  0.00000000000E+00  0.91188000000E+02  0.91188000000E+02 0.  0.
    9900012    2    3    3    0    0 -0.40757863356E+02 -0.12046107959E+02 -0.87926649294E+01  0.47787273060E+02  0.20000009191E+02 0.  0.
         12    1    3    3    0    0  0.40757863356E+02  0.12046107959E+02  0.87926649294E+01  0.43400726940E+02  0.00000000000E+00 0. -1.
         11    1    4    4    0    0 -0.69095414385E-03  0.11650388870E+01 -0.96485976926E+00  0.15127031173E+01  0.51100000000E-03 0.  1.
        -11    1    4    4    0    0 -0.10112267197E+02 -0.10811402656E+02 -0.13874227327E+01  0.14868399960E+02  0.51100000000E-03 0. -1.
        -12    1    4    4    0    0 -0.30644905205E+02 -0.23997441899E+01 -0.64403824275E+01  0.31406169983E+02  0.00000000000E+00 0.  1.
</event>
<event>
 8    1  0.4798632E-010  0.9118800E+02  0.7816164E-02  0.1184000E+00
        -11   -1    0    0    0    0  0.00000000000E+00  0.00000000000E+00  0.45593999997E+02  0.45594000000E+02  0.51100000000E-03 0. -1.
         11   -1    0    0    0    0 -0.00000000000E+00 -0.00000000000E+00 -0.45593999997E+02  0.45594000000E+02  0.51100000000E-03 0.  1.
         23    2    1    2    0    0  0.00000000000E+00  0.00000000000E+00  0.71054273576E-14  0.91188000000E+02  0.91188000000E+02 0.  0.
    9900012    2    3    3    0    0 -0.96191451954E+01  0.20130014606E+02 -0.37227387693E+02  0.47787264560E+02  0.19999970433E+02 0.  0.
         12    1    3    3    0    0  0.96191451954E+01 -0.20130014606E+02  0.37227387693E+02  0.43400735440E+02  0.00000000000E+00 0. -1.
         11    1    4    4    0    0  0.63494264444E+00  0.65122746858E+01 -0.38598103440E+00  0.65545293779E+01  0.51100000000E-03 0. -1.
        -11    1    4    4    0    0 -0.24739482414E+01  0.25781529387E+01 -0.16027829165E+02  0.16421284983E+02  0.51100000000E-03 0.  1.
         12    1    4    4    0    0 -0.77801395984E+01  0.11039586982E+02 -0.20813577493E+02  0.24811450199E+02  0.00000000000E+00 0. -1.
</event>
<event>
 8    1  0.4798632E-010  0.9118800E+02  0.7816164E-02  0.1184000E+00
        -11   -1    0    0    0    0  0.00000000000E+00  0.00000000000E+00  0.45593999997E+02  0.45594000000E+02  0.51100000000E-03 0. -1.
         11   -1    0    0    0    0 -0.00000000000E+00 -0.00000000000E+00 -0.45593999997E+02  0.45594000000E+02  0.51100000000E-03 0.  1.
         23    2    1    2    0    0  0.00000000000E+00  0.00000000000E+00  0.00000000000E+00  0.91188000000E+02  0.91188000000E+02 0.  0.
    9900012    2    3    3    0    0 -0.91068900334E+01 -0.12960297729E+02  0.40406913972E+02  0.47787268900E+02  0.19999990223E+02 0.  0.
        -12    1    3    3    0    0  0.91068900334E+01  0.12960297729E+02 -0.40406913972E+02  0.43400731100E+02  0.00000000000E+00 0.  1.
         11    1    4    4    0    0  0.20000548583E+00 -0.11739277034E+02  0.29082878496E+02  0.31363425345E+02  0.51100000000E-03 0. -1.
        -11    1    4    4    0    0 -0.71257311125E+01 -0.37179042925E+01  0.55556933976E+01  0.97705980168E+01  0.51100000000E-03 0.  1.
         12    1    4    4    0    0 -0.21811644066E+01  0.24968835976E+01  0.57683420780E+01  0.66532455386E+01  0.00000000000E+00 0. -1.
</event>
<event>
 8    1  0.4798632E-010  0.9118800E+02  0.7816164E-02  0.1184000E+00
        -11   -1    0    0    0    0  0.00000000000E+00  0.00000000000E+00  0.45593999997E+02  0.45594000000E+02  0.51100000000E-03 0. -1.
         11   -1    0    0    0    0 -0.00000000000E+00 -0.00000000000E+00 -0.45593999997E+02  0.45594000000E+02  0.51100000000E-03 0.  1.
         23    2    1    2    0    0 -0.44408920985E-15  0.00000000000E+00  0.00000000000E+00  0.91188000000E+02  0.91188000000E+02 0.  0.
    9900012    2    3    3    0    0 -0.24545265809E+01 -0.81149318643E+01  0.42564618811E+02  0.47787267352E+02  0.19999983163E+02 0.  0.
        -12    1    3    3    0    0  0.24545265809E+01  0.81149318643E+01 -0.42564618811E+02  0.43400732648E+02  0.00000000000E+00 0.  1.
         11    1    4    4    0    0  0.17538395530E+01  0.53330588999E+01  0.11537416551E+02  0.12830800885E+02  0.51100000000E-03 0. -1.
        -11    1    4    4    0    0 -0.32604484920E+01 -0.11989503196E+02  0.30788045088E+02  0.33200639028E+02  0.51100000000E-03 0.  1.
        -12    1    4    4    0    0 -0.94791764193E+00 -0.14584875683E+01  0.23915717181E+00  0.17558274390E+01  0.00000000000E+00 0.  1.
</event>
<event>
 8    1  0.4798632E-010  0.9118800E+02  0.7816164E-02  0.1184000E+00
        -11   -1    0    0    0    0  0.00000000000E+00  0.00000000000E+00  0.45593999997E+02  0.45594000000E+02  0.51100000000E-03 0.  1.
         11   -1    0    0    0    0 -0.00000000000E+00 -0.00000000000E+00 -0.45593999997E+02  0.45594000000E+02  0.51100000000E-03 0. -1.
         23    2    1    2    0    0  0.17763568394E-14 -0.71054273576E-14  0.56812193838E-16  0.91188000000E+02  0.91188000000E+02 0.  0.
    9900012    2    3    3    0    0  0.14218313148E+02 -0.41005642960E+02  0.35989698999E-02  0.47787271938E+02  0.20000004075E+02 0.  0.
         12    1    3    3    0    0 -0.14218313148E+02  0.41005642960E+02 -0.35989698999E-02  0.43400728062E+02  0.00000000000E+00 0. -1.
         11    1    4    4    0    0 -0.11291683003E+01 -0.10980575704E-01 -0.18112340751E+01  0.21344111036E+01  0.51100000000E-03 0. -1.
        -11    1    4    4    0    0  0.16707961290E+02 -0.34530789533E+02 -0.12280420444E+01  0.38380196505E+02  0.51100000000E-03 0.  1.
        -12    1    4    4    0    0 -0.13604798422E+01 -0.64638728516E+01  0.30428750894E+01  0.72726643297E+01  0.00000000000E+00 0.  1.
</event>
<event>
 8    1  0.4798632E-010  0.9118800E+02  0.7816164E-02  0.1184000E+00
        -11   -1    0    0    0    0  0.00000000000E+00  0.00000000000E+00  0.45593999997E+02  0.45594000000E+02  0.51100000000E-03 0. -1.
         11   -1    0    0    0    0 -0.00000000000E+00 -0.00000000000E+00 -0.45593999997E+02  0.45594000000E+02  0.51100000000E-03 0.  1.
         23    2    1    2    0    0  0.00000000000E+00  0.00000000000E+00  0.00000000000E+00  0.91188000000E+02  0.91188000000E+02 0.  0.
    9900012    2    3    3    0    0  0.26674289616E+02 -0.11288699106E+02  0.32321370008E+02  0.47787269439E+02  0.19999992680E+02 0.  0.
        -12    1    3    3    0    0 -0.26674289616E+02  0.11288699106E+02 -0.32321370008E+02  0.43400730561E+02  0.00000000000E+00 0.  1.
         11    1    4    4    0    0  0.85001167814E+01 -0.11670592338E+02  0.15875201700E+02  0.21458721772E+02  0.51100000000E-03 0. -1.
        -11    1    4    4    0    0  0.96336463820E+00  0.21396944465E+01 -0.15471699749E+00  0.23516592782E+01  0.51100000000E-03 0.  1.
         12    1    4    4    0    0  0.17210808196E+02 -0.17578012149E+01  0.16600885306E+02  0.23976888389E+02  0.00000000000E+00 0. -1.
</event>
<event>
 8    1  0.4798632E-010  0.9118800E+02  0.7816164E-02  0.1184000E+00
        -11   -1    0    0    0    0  0.00000000000E+00  0.00000000000E+00  0.45593999997E+02  0.45594000000E+02  0.51100000000E-03 0. -1.
         11   -1    0    0    0    0 -0.00000000000E+00 -0.00000000000E+00 -0.45593999997E+02  0.45594000000E+02  0.51100000000E-03 0.  1.
         23    2    1    2    0    0 -0.17763568394E-14  0.00000000000E+00 -0.35527136788E-14  0.91188000000E+02  0.91188000000E+02 0.  0.
    9900012    2    3    3    0    0  0.13613754869E+02 -0.28658356891E+02  0.29613957532E+02  0.47787283163E+02  0.20000055251E+02 0.  0.
        -12    1    3    3    0    0 -0.13613754869E+02  0.28658356891E+02 -0.29613957532E+02  0.43400716837E+02  0.00000000000E+00 0.  1.
         11    1    4    4    0    0 -0.21103256866E+01 -0.10542817139E+02  0.79857136632E+01  0.13393135955E+02  0.51100000000E-03 0. -1.
        -11    1    4    4    0    0  0.11561463403E+02 -0.61088409015E+01  0.63945122982E+01  0.14555932157E+02  0.51100000000E-03 0.  1.
         12    1    4    4    0    0  0.41626171532E+01 -0.12006698850E+02  0.15233731570E+02  0.19838215051E+02  0.00000000000E+00 0. -1.
</event>
<event>
 8    1  0.4798632E-010  0.9118800E+02  0.7816164E-02  0.1184000E+00
        -11   -1    0    0    0    0  0.00000000000E+00  0.00000000000E+00  0.45593999997E+02  0.45594000000E+02  0.51100000000E-03 0. -1.
         11   -1    0    0    0    0 -0.00000000000E+00 -0.00000000000E+00 -0.45593999997E+02  0.45594000000E+02  0.51100000000E-03 0.  1.
         23    2    1    2    0    0  0.00000000000E+00  0.71054273576E-14  0.00000000000E+00  0.91188000000E+02  0.91188000000E+02 0.  0.
    9900012    2    3    3    0    0  0.86309470533E+01 -0.39684083442E+02 -0.15306958219E+02  0.47787277707E+02  0.20000030376E+02 0.  0.
         12    1    3    3    0    0 -0.86309470533E+01  0.39684083442E+02  0.15306958219E+02  0.43400722293E+02  0.00000000000E+00 0. -1.
         11    1    4    4    0    0  0.89922560288E+00 -0.23504054900E+02 -0.89515594187E+01  0.25167034385E+02  0.51100000000E-03 0. -1.
        -11    1    4    4    0    0  0.63915322376E+01 -0.54134822189E+01 -0.80757210723E+01  0.11635065328E+02  0.51100000000E-03 0.  1.
        -12    1    4    4    0    0  0.13401892128E+01 -0.10766546323E+02  0.17203222718E+01  0.10985177994E+02  0.00000000000E+00 0.  1.
</event>
<event>
 8    1  0.4798632E-010  0.9118800E+02  0.7816164E-02  0.1184000E+00
        -11   -1    0    0    0    0  0.00000000000E+00  0.00000000000E+00  0.45593999997E+02  0.45594000000E+02  0.51100000000E-03 0. -1.
         11   -1    0    0    0    0 -0.00000000000E+00 -0.00000000000E+00 -0.45593999997E+02  0.45594000000E+02  0.51100000000E-03 0.  1.
         23    2    1    2    0    0  0.00000000000E+00  0.35527136788E-14  0.00000000000E+00  0.91188000000E+02  0.91188000000E+02 0.  0.
    9900012    2    3    3    0    0 -0.23161326076E+02  0.28023314285E+02  0.23703795623E+02  0.47787273093E+02  0.20000009340E+02 0.  0.
        -12    1    3    3    0    0  0.23161326076E+02 -0.28023314285E+02 -0.23703795623E+02  0.43400726907E+02  0.00000000000E+00 0.  1.
         11    1    4    4    0    0 -0.53824408079E+01  0.11729234610E+02  0.19519822875E+01  0.13052043851E+02  0.51100000000E-03 0. -1.
        -11    1    4    4    0    0 -0.70468618796E+00  0.13560686625E+01 -0.15758776638E+01  0.21951982856E+01  0.51100000000E-03 0.  1.
         12    1    4    4    0    0 -0.17074199080E+02  0.14938011013E+02  0.23327690999E+02  0.32540030956E+02  0.00000000000E+00 0. -1.
</event>
<event>
 8    1  0.4798632E-010  0.9118800E+02  0.7816164E-02  0.1184000E+00
        -11   -1    0    0    0    0  0.00000000000E+00  0.00000000000E+00  0.45593999997E+02  0.45594000000E+02  0.51100000000E-03 0. -1.
         11   -1    0    0    0    0 -0.00000000000E+00 -0.00000000000E+00 -0.45593999997E+02  0.45594000000E+02  0.51100000000E-03 0.  1.
         23    2    1    2    0    0  0.00000000000E+00  0.11102230246E-15  0.00000000000E+00  0.91188000000E+02  0.91188000000E+02 0.  0.
    9900012    2    3    3    0    0 -0.19111045761E+02  0.46400291988E+00 -0.38963777385E+02  0.47787270549E+02  0.19999997742E+02 0.  0.
         12    1    3    3    0    0  0.19111045761E+02 -0.46400291988E+00  0.38963777385E+02  0.43400729451E+02  0.00000000000E+00 0. -1.
         11    1    4    4    0    0 -0.73991315358E+01 -0.59713022884E+00 -0.15038636695E+01  0.75739895822E+01  0.51100000000E-03 0. -1.
        -11    1    4    4    0    0 -0.51321198031E+01  0.23041097240E+01 -0.67745756036E+01  0.88058191080E+01  0.51100000000E-03 0.  1.
         12    1    4    4    0    0 -0.65797944219E+01 -0.12429765753E+01 -0.30685338112E+02  0.31407461859E+02  0.00000000000E+00 0. -1.
</event>
<event>
 8    1  0.4798632E-010  0.9118800E+02  0.7816164E-02  0.1184000E+00
        -11   -1    0    0    0    0  0.00000000000E+00  0.00000000000E+00  0.45593999997E+02  0.45594000000E+02  0.51100000000E-03 0. -1.
         11   -1    0    0    0    0 -0.00000000000E+00 -0.00000000000E+00 -0.45593999997E+02  0.45594000000E+02  0.51100000000E-03 0.  1.
         23    2    1    2    0    0  0.00000000000E+00 -0.22204460493E-15  0.35527136788E-14  0.91188000000E+02  0.91188000000E+02 0.  0.
    9900012    2    3    3    0    0 -0.36647254160E+02 -0.68264331600E+00  0.23240824025E+02  0.47787272578E+02  0.20000006994E+02 0.  0.
        -12    1    3    3    0    0  0.36647254160E+02  0.68264331600E+00 -0.23240824025E+02  0.43400727422E+02  0.00000000000E+00 0.  1.
         11    1    4    4    0    0 -0.14330794286E+02 -0.74772418087E+01  0.82964013642E+01  0.18168959403E+02  0.51100000000E-03 0. -1.
        -11    1    4    4    0    0 -0.41255251974E+01  0.49292217894E+01  0.74924523691E+01  0.98718806905E+01  0.51100000000E-03 0.  1.
        -12    1    4    4    0    0 -0.18190934677E+02  0.18653767033E+01  0.74519702912E+01  0.19746432485E+02  0.00000000000E+00 0.  1.
</event>
<event>
 8    1  0.4798632E-010  0.9118800E+02  0.7816164E-02  0.1184000E+00
        -11   -1    0    0    0    0  0.00000000000E+00  0.00000000000E+00  0.45593999997E+02  0.45594000000E+02  0.51100000000E-03 0. -1.
         11   -1    0    0    0    0 -0.00000000000E+00 -0.00000000000E+00 -0.45593999997E+02  0.45594000000E+02  0.51100000000E-03 0.  1.
         23    2    1    2    0    0  0.00000000000E+00  0.00000000000E+00  0.00000000000E+00  0.91188000000E+02  0.91188000000E+02 0.  0.
    9900012    2    3    3    0    0 -0.11039735713E+02  0.16815330806E+02  0.38457666614E+02  0.47787271479E+02  0.20000001982E+02 0.  0.
        -12    1    3    3    0    0  0.11039735713E+02 -0.16815330806E+02 -0.38457666614E+02  0.43400728521E+02  0.00000000000E+00 0.  1.
         11    1    4    4    0    0 -0.44518219580E+01  0.10889331252E+02  0.59014111715E+01  0.13161417398E+02  0.51100000000E-03 0. -1.
        -11    1    4    4    0    0  0.15763752312E+01 -0.73200990116E-01  0.59554809562E+01  0.61610121681E+01  0.51100000000E-03 0.  1.
         12    1    4    4    0    0 -0.81642889865E+01  0.59992005441E+01  0.26600774487E+02  0.28464841913E+02  0.00000000000E+00 0. -1.
</event>
<event>
 8    1  0.4798632E-010  0.9118800E+02  0.7816164E-02  0.1184000E+00
        -11   -1    0    0    0    0  0.00000000000E+00  0.00000000000E+00  0.45593999997E+02  0.45594000000E+02  0.51100000000E-03 0.  1.
         11   -1    0    0    0    0 -0.00000000000E+00 -0.00000000000E+00 -0.45593999997E+02  0.45594000000E+02  0.51100000000E-03 0. -1.
         23    2    1    2    0    0  0.00000000000E+00  0.00000000000E+00  0.00000000000E+00  0.91188000000E+02  0.91188000000E+02 0.  0.
    9900012    2    3    3    0    0  0.12527965781E+02 -0.39317845015E+02  0.13445461163E+02  0.47787270868E+02  0.19999999197E+02 0.  0.
         12    1    3    3    0    0 -0.12527965781E+02  0.39317845015E+02 -0.13445461163E+02  0.43400729132E+02  0.00000000000E+00 0. -1.
         11    1    4    4    0    0  0.11663783742E+01 -0.26325556678E+01  0.54939191668E+01  0.62027361647E+01  0.51100000000E-03 0. -1.
        -11    1    4    4    0    0  0.28289781413E+01 -0.29554215660E+02  0.54225588379E+01  0.30180439447E+02  0.51100000000E-03 0.  1.
        -12    1    4    4    0    0  0.85326092651E+01 -0.71310736880E+01  0.25289831587E+01  0.11404095257E+02  0.00000000000E+00 0.  1.
</event>
<event>
 8    1  0.4798632E-010  0.9118800E+02  0.7816164E-02  0.1184000E+00
        -11   -1    0    0    0    0  0.00000000000E+00  0.00000000000E+00  0.45593999997E+02  0.45594000000E+02  0.51100000000E-03 0. -1.
         11   -1    0    0    0    0 -0.00000000000E+00 -0.00000000000E+00 -0.45593999997E+02  0.45594000000E+02  0.51100000000E-03 0.  1.
         23    2    1    2    0    0  0.00000000000E+00  0.00000000000E+00  0.00000000000E+00  0.91188000000E+02  0.91188000000E+02 0.  0.
    9900012    2    3    3    0    0  0.24297855567E+02 -0.46587088968E+01  0.35658575233E+02  0.47787270266E+02  0.19999996451E+02 0.  0.
        -12    1    3    3    0    0 -0.24297855567E+02  0.46587088968E+01 -0.35658575233E+02  0.43400729734E+02  0.00000000000E+00 0.  1.
         11    1    4    4    0    0  0.12345363698E+02 -0.69310574298E+01  0.11240820674E+02  0.18077710354E+02  0.51100000000E-03 0. -1.
        -11    1    4    4    0    0 -0.32505189412E+00 -0.31597239365E+01  0.26600463878E+01  0.41431100800E+01  0.51100000000E-03 0.  1.
         12    1    4    4    0    0  0.12277543763E+02  0.54320724694E+01  0.21757708171E+02  0.25566449833E+02  0.00000000000E+00 0. -1.
</event>
<event>
 8    1  0.4798632E-010  0.9118800E+02  0.7816164E-02  0.1184000E+00
        -11   -1    0    0    0    0  0.00000000000E+00  0.00000000000E+00  0.45593999997E+02  0.45594000000E+02  0.51100000000E-03 0. -1.
         11   -1    0    0    0    0 -0.00000000000E+00 -0.00000000000E+00 -0.45593999997E+02  0.45594000000E+02  0.51100000000E-03 0.  1.
         23    2    1    2    0    0 -0.35527136788E-14 -0.17763568394E-14  0.00000000000E+00  0.91188000000E+02  0.91188000000E+02 0.  0.
    9900012    2    3    3    0    0  0.21932100277E+02  0.93185806347E+01  0.36273550362E+02  0.47787269321E+02  0.19999992141E+02 0.  0.
        -12    1    3    3    0    0 -0.21932100277E+02 -0.93185806347E+01 -0.36273550362E+02  0.43400730679E+02  0.00000000000E+00 0.  1.
         11    1    4    4    0    0  0.37852251793E+01 -0.83727917674E+00  0.79499210044E+01  0.88447843566E+01  0.51100000000E-03 0. -1.
        -11    1    4    4    0    0  0.62092066642E+01  0.12547600597E+02  0.11183258297E+02  0.17918197301E+02  0.51100000000E-03 0.  1.
        -12    1    4    4    0    0  0.11937668433E+02 -0.23917407855E+01  0.17140371062E+02  0.21024287663E+02  0.00000000000E+00 0.  1.
</event>
<event>
 8    1  0.4798632E-010  0.9118800E+02  0.7816164E-02  0.1184000E+00
        -11   -1    0    0    0    0  0.00000000000E+00  0.00000000000E+00  0.45593999997E+02  0.45594000000E+02  0.51100000000E-03 0. -1.
         11   -1    0    0    0    0 -0.00000000000E+00 -0.00000000000E+00 -0.45593999997E+02  0.45594000000E+02  0.51100000000E-03 0.  1.
         23    2    1    2    0    0  0.00000000000E+00 -0.35527136788E-14  0.00000000000E+00  0.91188000000E+02  0.91188000000E+02 0.  0.
    9900012    2    3    3    0    0  0.83592841883E+01  0.22333915372E+02  0.36262123080E+02  0.47787274450E+02  0.20000015530E+02 0.  0.
        -12    1    3    3    0    0 -0.83592841883E+01 -0.22333915372E+02 -0.36262123080E+02  0.43400725550E+02  0.00000000000E+00 0.  1.
         11    1    4    4    0    0  0.86857347770E+01  0.47538421194E+01  0.12906815457E+02  0.16267356546E+02  0.51100000000E-03 0. -1.
        -11    1    4    4    0    0  0.13510254647E+01  0.17281363153E+02  0.14788505817E+02  0.22785317351E+02  0.51100000000E-03 0.  1.
        -12    1    4    4    0    0 -0.16774760534E+01  0.29871009939E+00  0.85668018064E+01  0.87346005532E+01  0.00000000000E+00 0.  1.
</event>
<event>
 8    1  0.4798632E-010  0.9118800E+02  0.7816164E-02  0.1184000E+00
        -11   -1    0    0    0    0  0.00000000000E+00  0.00000000000E+00  0.45593999997E+02  0.45594000000E+02  0.51100000000E-03 0. -1.
         11   -1    0    0    0    0 -0.00000000000E+00 -0.00000000000E+00 -0.45593999997E+02  0.45594000000E+02  0.51100000000E-03 0.  1.
         23    2    1    2    0    0  0.00000000000E+00  0.17763568394E-14  0.00000000000E+00  0.91188000000E+02  0.91188000000E+02 0.  0.
    9900012    2    3    3    0    0 -0.11260936401E+02 -0.11903441339E+02 -0.40188586853E+02  0.47787272845E+02  0.20000008209E+02 0.  0.
         12    1    3    3    0    0  0.11260936401E+02  0.11903441339E+02  0.40188586853E+02  0.43400727155E+02  0.00000000000E+00 0. -1.
         11    1    4    4    0    0 -0.46531983102E+01 -0.15802158175E+01 -0.48420015876E+01  0.68988633976E+01  0.51100000000E-03 0. -1.
        -11    1    4    4    0    0 -0.99308154342E+01 -0.95323942336E+01 -0.34807049321E+02  0.37430179236E+02  0.51100000000E-03 0.  1.
        -12    1    4    4    0    0  0.33230773434E+01 -0.79083128760E+00 -0.53953594503E+00  0.34582302109E+01  0.00000000000E+00 0.  1.
</event>
<event>
 8    1  0.4798632E-010  0.9118800E+02  0.7816164E-02  0.1184000E+00
        -11   -1    0    0    0    0  0.00000000000E+00  0.00000000000E+00  0.45593999997E+02  0.45594000000E+02  0.51100000000E-03 0.  1.
         11   -1    0    0    0    0 -0.00000000000E+00 -0.00000000000E+00 -0.45593999997E+02  0.45594000000E+02  0.51100000000E-03 0. -1.
         23    2    1    2    0    0  0.00000000000E+00  0.00000000000E+00  0.00000000000E+00  0.91188000000E+02  0.91188000000E+02 0.  0.
    9900012    2    3    3    0    0  0.91844403404E+01  0.35251259919E+02  0.23592780717E+02  0.47787256087E+02  0.19999931801E+02 0.  0.
        -12    1    3    3    0    0 -0.91844403404E+01 -0.35251259919E+02 -0.23592780717E+02  0.43400743913E+02  0.00000000000E+00 0.  1.
         11    1    4    4    0    0  0.72004776862E+01  0.39129293964E+01  0.74096627281E+01  0.11048121894E+02  0.51100000000E-03 0. -1.
        -11    1    4    4    0    0 -0.19750758150E+01  0.23610470093E+02  0.14829769569E+02  0.27951337861E+02  0.51100000000E-03 0.  1.
        -12    1    4    4    0    0  0.39590384693E+01  0.77278604298E+01  0.13533484200E+01  0.87877963319E+01  0.00000000000E+00 0.  1.
</event>
<event>
 8    1  0.4798632E-010  0.9118800E+02  0.7816164E-02  0.1184000E+00
        -11   -1    0    0    0    0  0.00000000000E+00  0.00000000000E+00  0.45593999997E+02  0.45594000000E+02  0.51100000000E-03 0. -1.
         11   -1    0    0    0    0 -0.00000000000E+00 -0.00000000000E+00 -0.45593999997E+02  0.45594000000E+02  0.51100000000E-03 0.  1.
         23    2    1    2    0    0  0.00000000000E+00  0.00000000000E+00  0.71054273576E-14  0.91188000000E+02  0.91188000000E+02 0.  0.
    9900012    2    3    3    0    0  0.37273531465E+02 -0.86934072220E+01  0.20462932817E+02  0.47787273089E+02  0.20000009320E+02 0.  0.
        -12    1    3    3    0    0 -0.37273531465E+02  0.86934072220E+01 -0.20462932817E+02  0.43400726911E+02  0.00000000000E+00 0.  1.
         11    1    4    4    0    0  0.12228297209E+02 -0.29358242746E+01 -0.17906844204E+01  0.12702632316E+02  0.51100000000E-03 0. -1.
        -11    1    4    4    0    0 -0.57861280538E+00 -0.83794076176E+00  0.63294434420E+00  0.11989813605E+01  0.51100000000E-03 0.  1.
         12    1    4    4    0    0  0.25623847061E+02 -0.49196421856E+01  0.21620672893E+02  0.33885659412E+02  0.00000000000E+00 0. -1.
</event>
<event>
 8    1  0.4798632E-010  0.9118800E+02  0.7816164E-02  0.1184000E+00
        -11   -1    0    0    0    0  0.00000000000E+00  0.00000000000E+00  0.45593999997E+02  0.45594000000E+02  0.51100000000E-03 0. -1.
         11   -1    0    0    0    0 -0.00000000000E+00 -0.00000000000E+00 -0.45593999997E+02  0.45594000000E+02  0.51100000000E-03 0.  1.
         23    2    1    2    0    0  0.00000000000E+00  0.00000000000E+00  0.71054273576E-14  0.91188000000E+02  0.91188000000E+02 0.  0.
    9900012    2    3    3    0    0  0.30844977459E+01 -0.94487176072E+01  0.42247255822E+02  0.47787274024E+02  0.20000013586E+02 0.  0.
        -12    1    3    3    0    0 -0.30844977459E+01  0.94487176072E+01 -0.42247255822E+02  0.43400725976E+02  0.00000000000E+00 0.  1.
         11    1    4    4    0    0 -0.32858886437E+01  0.89159929442E+00  0.10673778264E+01  0.35680960141E+01  0.51100000000E-03 0.  1.
        -11    1    4    4    0    0  0.41895236825E+01 -0.38030207348E+01  0.33185634741E+02  0.33664542605E+02  0.51100000000E-03 0. -1.
         12    1    4    4    0    0  0.21808627072E+01 -0.65372961669E+01  0.79942432543E+01  0.10554635405E+02  0.00000000000E+00 0. -1.
</event>
<event>
 8    1  0.4798632E-010  0.9118800E+02  0.7816164E-02  0.1184000E+00
        -11   -1    0    0    0    0  0.00000000000E+00  0.00000000000E+00  0.45593999997E+02  0.45594000000E+02  0.51100000000E-03 0.  1.
         11   -1    0    0    0    0 -0.00000000000E+00 -0.00000000000E+00 -0.45593999997E+02  0.45594000000E+02  0.51100000000E-03 0. -1.
         23    2    1    2    0    0  0.00000000000E+00  0.00000000000E+00 -0.35527136788E-14  0.91188000000E+02  0.91188000000E+02 0.  0.
    9900012    2    3    3    0    0  0.19523220758E+02  0.31675662149E+02 -0.22340978198E+02  0.47787273875E+02  0.20000012907E+02 0.  0.
         12    1    3    3    0    0 -0.19523220758E+02 -0.31675662149E+02  0.22340978198E+02  0.43400726125E+02  0.00000000000E+00 0. -1.
         11    1    4    4    0    0 -0.22950040090E+01  0.30447155935E+01  0.62567128032E+00  0.38637806950E+01  0.51100000000E-03 0. -1.
        -11    1    4    4    0    0  0.17282393837E+02  0.15140726992E+02 -0.16521093411E+02  0.28299633890E+02  0.51100000000E-03 0.  1.
         12    1    4    4    0    0  0.45358309300E+01  0.13490219564E+02 -0.64455560671E+01  0.15623859290E+02  0.00000000000E+00 0. -1.
</event>
<event>
 8    1  0.4798632E-010  0.9118800E+02  0.7816164E-02  0.1184000E+00
        -11   -1    0    0    0    0  0.00000000000E+00  0.00000000000E+00  0.45593999997E+02  0.45594000000E+02  0.51100000000E-03 0.  1.
         11   -1    0    0    0    0 -0.00000000000E+00 -0.00000000000E+00 -0.45593999997E+02  0.45594000000E+02  0.51100000000E-03 0. -1.
         23    2    1    2    0    0  0.00000000000E+00 -0.88817841970E-15  0.88817841970E-15  0.91188000000E+02  0.91188000000E+02 0.  0.
    9900012    2    3    3    0    0  0.42962578456E+02 -0.31541118057E+01  0.52813110579E+01  0.47787264806E+02  0.19999971556E+02 0.  0.
         12    1    3    3    0    0 -0.42962578456E+02  0.31541118057E+01 -0.52813110579E+01  0.43400735194E+02  0.00000000000E+00 0. -1.
         11    1    4    4    0    0  0.23019300683E+02  0.35285700807E+01 -0.11526927202E+01  0.23316683116E+02  0.51100000000E-03 0. -1.
        -11    1    4    4    0    0  0.14093002931E+02  0.27234844945E+00  0.16268760807E+01  0.14189208271E+02  0.51100000000E-03 0.  1.
         12    1    4    4    0    0  0.58502748418E+01 -0.69550303358E+01  0.48071276974E+01  0.10281373420E+02  0.00000000000E+00 0. -1.
</event>
<event>
 8    1  0.4798632E-010  0.9118800E+02  0.7816164E-02  0.1184000E+00
        -11   -1    0    0    0    0  0.00000000000E+00  0.00000000000E+00  0.45593999997E+02  0.45594000000E+02  0.51100000000E-03 0. -1.
         11   -1    0    0    0    0 -0.00000000000E+00 -0.00000000000E+00 -0.45593999997E+02  0.45594000000E+02  0.51100000000E-03 0.  1.
         23    2    1    2    0    0  0.00000000000E+00  0.00000000000E+00  0.00000000000E+00  0.91188000000E+02  0.91188000000E+02 0.  0.
    9900012    2    3    3    0    0  0.64905483495E+01 -0.14379332595E+02  0.40431803775E+02  0.47787272123E+02  0.20000004917E+02 0.  0.
        -12    1    3    3    0    0 -0.64905483495E+01  0.14379332595E+02 -0.40431803775E+02  0.43400727877E+02  0.00000000000E+00 0.  1.
         11    1    4    4    0    0  0.96332775888E+01 -0.46368475657E+01  0.90538257317E+01  0.14009716382E+02  0.51100000000E-03 0. -1.
        -11    1    4    4    0    0 -0.47528144609E+01 -0.33837174873E+01  0.17019726517E+02  0.17991939314E+02  0.51100000000E-03 0.  1.
        -12    1    4    4    0    0  0.16100852216E+01 -0.63587675422E+01  0.14358251527E+02  0.15785616427E+02  0.00000000000E+00 0.  1.
</event>
<event>
 8    1  0.4798632E-010  0.9118800E+02  0.7816164E-02  0.1184000E+00
        -11   -1    0    0    0    0  0.00000000000E+00  0.00000000000E+00  0.45593999997E+02  0.45594000000E+02  0.51100000000E-03 0. -1.
         11   -1    0    0    0    0 -0.00000000000E+00 -0.00000000000E+00 -0.45593999997E+02  0.45594000000E+02  0.51100000000E-03 0.  1.
         23    2    1    2    0    0  0.00000000000E+00  0.00000000000E+00  0.71054273576E-14  0.91188000000E+02  0.91188000000E+02 0.  0.
    9900012    2    3    3    0    0  0.19697213103E+02 -0.15168097110E+02 -0.35574883836E+02  0.47787265745E+02  0.19999975838E+02 0.  0.
         12    1    3    3    0    0 -0.19697213103E+02  0.15168097110E+02  0.35574883836E+02  0.43400734255E+02  0.00000000000E+00 0. -1.
         11    1    4    4    0    0  0.17864353749E+02 -0.14213854917E+02 -0.19782837003E+02  0.30208102334E+02  0.51100000000E-03 0.  1.
        -11    1    4    4    0    0 -0.28958528769E+01 -0.50069752015E+00 -0.52585602710E+01  0.60240450095E+01  0.51100000000E-03 0. -1.
        -12    1    4    4    0    0  0.47287122308E+01 -0.45354467224E+00 -0.10533486561E+02  0.11555118401E+02  0.00000000000E+00 0.  1.
</event>
<event>
 8    1  0.4798632E-010  0.9118800E+02  0.7816164E-02  0.1184000E+00
        -11   -1    0    0    0    0  0.00000000000E+00  0.00000000000E+00  0.45593999997E+02  0.45594000000E+02  0.51100000000E-03 0. -1.
         11   -1    0    0    0    0 -0.00000000000E+00 -0.00000000000E+00 -0.45593999997E+02  0.45594000000E+02  0.51100000000E-03 0.  1.
         23    2    1    2    0    0  0.35527136788E-14 -0.88817841970E-15  0.14210854715E-13  0.91188000000E+02  0.91188000000E+02 0.  0.
    9900012    2    3    3    0    0 -0.20583280070E+02  0.50350314132E+01 -0.37876119879E+02  0.47787269397E+02  0.19999992490E+02 0.  0.
         12    1    3    3    0    0  0.20583280070E+02 -0.50350314132E+01  0.37876119879E+02  0.43400730603E+02  0.00000000000E+00 0. -1.
         11    1    4    4    0    0 -0.19599943488E+02  0.58527771151E+01 -0.28645981612E+02  0.35199503512E+02  0.51100000000E-03 0.  1.
        -11    1    4    4    0    0  0.33129326844E+01  0.14834477215E+01 -0.46557606645E+01  0.59035792312E+01  0.51100000000E-03 0. -1.
        -12    1    4    4    0    0 -0.42962692665E+01 -0.23011934234E+01 -0.45743776021E+01  0.66841866542E+01  0.00000000000E+00 0.  1.
</event>
<event>
 8    1  0.4798632E-010  0.9118800E+02  0.7816164E-02  0.1184000E+00
        -11   -1    0    0    0    0  0.00000000000E+00  0.00000000000E+00  0.45593999997E+02  0.45594000000E+02  0.51100000000E-03 0. -1.
         11   -1    0    0    0    0 -0.00000000000E+00 -0.00000000000E+00 -0.45593999997E+02  0.45594000000E+02  0.51100000000E-03 0.  1.
         23    2    1    2    0    0 -0.35527136788E-14  0.00000000000E+00  0.00000000000E+00  0.91188000000E+02  0.91188000000E+02 0.  0.
    9900012    2    3    3    0    0  0.18797888915E+02 -0.25205070057E+02  0.29915979603E+02  0.47787285492E+02  0.20000065870E+02 0.  0.
        -12    1    3    3    0    0 -0.18797888915E+02  0.25205070057E+02 -0.29915979603E+02  0.43400714508E+02  0.00000000000E+00 0.  1.
         11    1    4    4    0    0 -0.94990492749E+00 -0.65125670266E+01  0.10157528022E+02  0.12103355916E+02  0.51100000000E-03 0. -1.
        -11    1    4    4    0    0  0.86183340291E+01 -0.95482503515E+00  0.44611391918E+01  0.97513658241E+01  0.51100000000E-03 0.  1.
        -12    1    4    4    0    0  0.11129459814E+02 -0.17737677995E+02  0.15297312388E+02  0.25932563751E+02  0.00000000000E+00 0.  1.
</event>
<event>
 8    1  0.4798632E-010  0.9118800E+02  0.7816164E-02  0.1184000E+00
        -11   -1    0    0    0    0  0.00000000000E+00  0.00000000000E+00  0.45593999997E+02  0.45594000000E+02  0.51100000000E-03 0. -1.
         11   -1    0    0    0    0 -0.00000000000E+00 -0.00000000000E+00 -0.45593999997E+02  0.45594000000E+02  0.51100000000E-03 0.  1.
         23    2    1    2    0    0 -0.88817841970E-15  0.00000000000E+00 -0.35527136788E-14  0.91188000000E+02  0.91188000000E+02 0.  0.
    9900012    2    3    3    0    0  0.72645340769E+01  0.34808420435E+02 -0.24884200765E+02  0.47787273782E+02  0.20000012482E+02 0.  0.
         12    1    3    3    0    0 -0.72645340769E+01 -0.34808420435E+02  0.24884200765E+02  0.43400726218E+02  0.00000000000E+00 0. -1.
         11    1    4    4    0    0 -0.21113898333E+01  0.15290483320E+01 -0.12444630204E+01  0.28887097985E+01  0.51100000000E-03 0. -1.
        -11    1    4    4    0    0  0.44076057038E+01  0.18700355757E+02 -0.34751659201E+01  0.19524524883E+02  0.51100000000E-03 0.  1.
        -12    1    4    4    0    0  0.49683182064E+01  0.14579016346E+02 -0.20164571824E+02  0.25374039101E+02  0.00000000000E+00 0.  1.
</event>
<event>
 8    1  0.4798632E-010  0.9118800E+02  0.7816164E-02  0.1184000E+00
        -11   -1    0    0    0    0  0.00000000000E+00  0.00000000000E+00  0.45593999997E+02  0.45594000000E+02  0.51100000000E-03 0. -1.
         11   -1    0    0    0    0 -0.00000000000E+00 -0.00000000000E+00 -0.45593999997E+02  0.45594000000E+02  0.51100000000E-03 0.  1.
         23    2    1    2    0    0  0.00000000000E+00  0.88817841970E-15  0.71054273576E-14  0.91188000000E+02  0.91188000000E+02 0.  0.
    9900012    2    3    3    0    0  0.14017248360E+02 -0.71276665876E+01  0.40451652706E+02  0.47787273172E+02  0.20000009700E+02 0.  0.
        -12    1    3    3    0    0 -0.14017248360E+02  0.71276665876E+01 -0.40451652706E+02  0.43400726828E+02  0.00000000000E+00 0.  1.
         11    1    4    4    0    0  0.66671246482E+01  0.54128073051E+01  0.10175309808E+02  0.13314877542E+02  0.51100000000E-03 0. -1.
        -11    1    4    4    0    0  0.51052053252E+01 -0.72601350614E+01  0.98649776357E+01  0.13269908309E+02  0.51100000000E-03 0.  1.
         12    1    4    4    0    0  0.22449183869E+01 -0.52803388313E+01  0.20411365262E+02  0.21202487321E+02  0.00000000000E+00 0. -1.
</event>
<event>
 8    1  0.4798632E-010  0.9118800E+02  0.7816164E-02  0.1184000E+00
        -11   -1    0    0    0    0  0.00000000000E+00  0.00000000000E+00  0.45593999997E+02  0.45594000000E+02  0.51100000000E-03 0. -1.
         11   -1    0    0    0    0 -0.00000000000E+00 -0.00000000000E+00 -0.45593999997E+02  0.45594000000E+02  0.51100000000E-03 0.  1.
         23    2    1    2    0    0  0.00000000000E+00 -0.44408920985E-15  0.35527136788E-14  0.91188000000E+02  0.91188000000E+02 0.  0.
    9900012    2    3    3    0    0  0.36168729114E+02  0.39253620184E+01 -0.23665116920E+02  0.47787271994E+02  0.20000004328E+02 0.  0.
         12    1    3    3    0    0 -0.36168729114E+02 -0.39253620184E+01  0.23665116920E+02  0.43400728006E+02  0.00000000000E+00 0. -1.
         11    1    4    4    0    0  0.13786924420E+02  0.72681718599E+01 -0.15855345756E+02  0.22232804512E+02  0.51100000000E-03 0. -1.
        -11    1    4    4    0    0  0.18019995390E+02  0.20257733342E+00 -0.84375163214E+01  0.19898566616E+02  0.51100000000E-03 0.  1.
         12    1    4    4    0    0  0.43618093031E+01 -0.35453871750E+01  0.62774515825E+00  0.56559008656E+01  0.00000000000E+00 0. -1.
</event>
<event>
 8    1  0.4798632E-010  0.9118800E+02  0.7816164E-02  0.1184000E+00
        -11   -1    0    0    0    0  0.00000000000E+00  0.00000000000E+00  0.45593999997E+02  0.45594000000E+02  0.51100000000E-03 0. -1.
         11   -1    0    0    0    0 -0.00000000000E+00 -0.00000000000E+00 -0.45593999997E+02  0.45594000000E+02  0.51100000000E-03 0.  1.
         23    2    1    2    0    0  0.17763568394E-14  0.00000000000E+00  0.35527136788E-14  0.91188000000E+02  0.91188000000E+02 0.  0.
    9900012    2    3    3    0    0  0.13662947176E+02  0.32574133735E+02  0.25216519520E+02  0.47787272232E+02  0.20000005414E+02 0.  0.
        -12    1    3    3    0    0 -0.13662947176E+02 -0.32574133735E+02 -0.25216519520E+02  0.43400727768E+02  0.00000000000E+00 0.  1.
         11    1    4    4    0    0  0.59723073959E+01  0.10822054199E+02  0.69366505322E+01  0.14174005559E+02  0.51100000000E-03 0. -1.
        -11    1    4    4    0    0  0.74323458078E+01  0.57855186725E+01  0.14355418323E+02  0.17169450370E+02  0.51100000000E-03 0.  1.
        -12    1    4    4    0    0  0.25829397227E+00  0.15966560864E+02  0.39244506642E+01  0.16443816303E+02  0.00000000000E+00 0.  1.
</event>
<event>
 8    1  0.4798632E-010  0.9118800E+02  0.7816164E-02  0.1184000E+00
        -11   -1    0    0    0    0  0.00000000000E+00  0.00000000000E+00  0.45593999997E+02  0.45594000000E+02  0.51100000000E-03 0. -1.
         11   -1    0    0    0    0 -0.00000000000E+00 -0.00000000000E+00 -0.45593999997E+02  0.45594000000E+02  0.51100000000E-03 0.  1.
         23    2    1    2    0    0  0.00000000000E+00  0.35527136788E-14  0.17763568394E-14  0.91188000000E+02  0.91188000000E+02 0.  0.
    9900012    2    3    3    0    0  0.30413976554E+02 -0.29413187990E+02 -0.96684005464E+01  0.47787267671E+02  0.19999984618E+02 0.  0.
         12    1    3    3    0    0 -0.30413976554E+02  0.29413187990E+02  0.96684005464E+01  0.43400732329E+02  0.00000000000E+00 0. -1.
         11    1    4    4    0    0  0.11922682921E+02 -0.11443231392E+02  0.49732226552E+01  0.17257776698E+02  0.51100000000E-03 0. -1.
        -11    1    4    4    0    0  0.13942356745E+02 -0.17054595627E+02 -0.13153235980E+02  0.25656503281E+02  0.51100000000E-03 0.  1.
         12    1    4    4    0    0  0.45489368878E+01 -0.91536097052E+00 -0.14883872220E+01  0.48729876912E+01  0.00000000000E+00 0. -1.
</event>
<event>
 8    1  0.5309994E-010  0.9118800E+02  0.7816164E-02  0.1184000E+00
        -11   -1    0    0    0    0  0.00000000000E+00  0.00000000000E+00  0.45593999997E+02  0.45594000000E+02  0.51100000000E-03 0. -1.
         11   -1    0    0    0    0 -0.00000000000E+00 -0.00000000000E+00 -0.45593999997E+02  0.45594000000E+02  0.51100000000E-03 0.  1.
         23    2    1    2    0    0 -0.17763568394E-14  0.35527136788E-14 -0.71054273576E-14  0.91188000000E+02  0.91188000000E+02 0.  0.
    9900012    2    3    3    0    0  0.12940240216E+02 -0.23280673428E+02  0.34266363700E+02  0.47787271281E+02  0.20000001078E+02 0.  0.
        -12    1    3    3    0    0 -0.12940240216E+02  0.23280673428E+02 -0.34266363700E+02  0.43400728719E+02  0.00000000000E+00 0.  1.
         11    1    4    4    0    0  0.90715187481E+01 -0.14216625708E+02  0.18099755620E+02  0.24738756086E+02  0.51100000000E-03 0. -1.
        -11    1    4    4    0    0 -0.65875324388E+00 -0.20199618076E+00 -0.21201508568E+01  0.22293044229E+01  0.51100000000E-03 0.  1.
        -12    1    4    4    0    0  0.45274747121E+01 -0.88620515394E+01  0.18286758937E+02  0.20819210772E+02  0.00000000000E+00 0.  1.
</event>
<event>
 8    1  0.4798632E-010  0.9118800E+02  0.7816164E-02  0.1184000E+00
        -11   -1    0    0    0    0  0.00000000000E+00  0.00000000000E+00  0.45593999997E+02  0.45594000000E+02  0.51100000000E-03 0.  1.
         11   -1    0    0    0    0 -0.00000000000E+00 -0.00000000000E+00 -0.45593999997E+02  0.45594000000E+02  0.51100000000E-03 0. -1.
         23    2    1    2    0    0  0.00000000000E+00  0.00000000000E+00  0.00000000000E+00  0.91188000000E+02  0.91188000000E+02 0.  0.
    9900012    2    3    3    0    0 -0.33112220577E+02  0.85326970162E+01  0.26728207969E+02  0.47787272228E+02  0.20000005397E+02 0.  0.
        -12    1    3    3    0    0  0.33112220577E+02 -0.85326970162E+01 -0.26728207969E+02  0.43400727772E+02  0.00000000000E+00 0.  1.
         11    1    4    4    0    0 -0.22704982823E+02  0.91622908392E+01  0.97144504318E+01  0.26340735864E+02  0.51100000000E-03 0. -1.
        -11    1    4    4    0    0 -0.23218497339E+01  0.24755944594E+01  0.91078049848E+01  0.97196535955E+01  0.51100000000E-03 0.  1.
         12    1    4    4    0    0 -0.80853880201E+01 -0.31051882824E+01  0.79059525519E+01  0.11726882768E+02  0.00000000000E+00 0. -1.
</event>
<event>
 8    1  0.5084204E-010  0.9118800E+02  0.7816164E-02  0.1184000E+00
        -11   -1    0    0    0    0  0.00000000000E+00  0.00000000000E+00  0.45593999997E+02  0.45594000000E+02  0.51100000000E-03 0. -1.
         11   -1    0    0    0    0 -0.00000000000E+00 -0.00000000000E+00 -0.45593999997E+02  0.45594000000E+02  0.51100000000E-03 0.  1.
         23    2    1    2    0    0  0.00000000000E+00  0.00000000000E+00  0.71054273576E-14  0.91188000000E+02  0.91188000000E+02 0.  0.
    9900012    2    3    3    0    0  0.96008873406E+01 -0.11266285568E+01  0.42310478548E+02  0.47787275069E+02  0.20000018349E+02 0.  0.
        -12    1    3    3    0    0 -0.96008873406E+01  0.11266285568E+01 -0.42310478548E+02  0.43400724931E+02  0.00000000000E+00 0.  1.
         11    1    4    4    0    0  0.65186870242E+01 -0.52802725136E+01  0.31836701631E+02  0.32923397901E+02  0.51100000000E-03 0. -1.
        -11    1    4    4    0    0  0.18302126605E+01  0.70483527977E+01  0.62762947773E+01  0.96135753982E+01  0.51100000000E-03 0.  1.
        -12    1    4    4    0    0  0.12519876559E+01 -0.28947088409E+01  0.41974821389E+01  0.52503017695E+01  0.00000000000E+00 0.  1.
</event>
<event>
 8    1  0.4798632E-010  0.9118800E+02  0.7816164E-02  0.1184000E+00
        -11   -1    0    0    0    0  0.00000000000E+00  0.00000000000E+00  0.45593999997E+02  0.45594000000E+02  0.51100000000E-03 0. -1.
         11   -1    0    0    0    0 -0.00000000000E+00 -0.00000000000E+00 -0.45593999997E+02  0.45594000000E+02  0.51100000000E-03 0.  1.
         23    2    1    2    0    0  0.00000000000E+00  0.00000000000E+00  0.00000000000E+00  0.91188000000E+02  0.91188000000E+02 0.  0.
    9900012    2    3    3    0    0 -0.76437959648E+01  0.12309679408E+02  0.40910479297E+02  0.47787272584E+02  0.20000007020E+02 0.  0.
        -12    1    3    3    0    0  0.76437959648E+01 -0.12309679408E+02 -0.40910479297E+02  0.43400727416E+02  0.00000000000E+00 0.  1.
         11    1    4    4    0    0 -0.13282191470E+01  0.13290637052E+02  0.22870123547E+02  0.26484858895E+02  0.51100000000E-03 0. -1.
        -11    1    4    4    0    0 -0.74011508730E+01 -0.14573950570E+01  0.73012221886E+01  0.10498041737E+02  0.51100000000E-03 0.  1.
         12    1    4    4    0    0  0.10855740552E+01  0.47643741343E+00  0.10739133561E+02  0.10804371953E+02  0.00000000000E+00 0. -1.
</event>
<event>
 8    1  0.4798632E-010  0.9118800E+02  0.7816164E-02  0.1184000E+00
        -11   -1    0    0    0    0  0.00000000000E+00  0.00000000000E+00  0.45593999997E+02  0.45594000000E+02  0.51100000000E-03 0. -1.
         11   -1    0    0    0    0 -0.00000000000E+00 -0.00000000000E+00 -0.45593999997E+02  0.45594000000E+02  0.51100000000E-03 0.  1.
         23    2    1    2    0    0 -0.17763568394E-14 -0.35527136788E-14  0.00000000000E+00  0.91188000000E+02  0.91188000000E+02 0.  0.
    9900012    2    3    3    0    0 -0.12756765841E+02 -0.23752339373E+02  0.34010507794E+02  0.47787270273E+02  0.19999996484E+02 0.  0.
        -12    1    3    3    0    0  0.12756765841E+02  0.23752339373E+02 -0.34010507794E+02  0.43400729727E+02  0.00000000000E+00 0.  1.
         11    1    4    4    0    0 -0.10446459624E+02 -0.21473623199E+02  0.21441383485E+02  0.32093269357E+02  0.51100000000E-03 0. -1.
        -11    1    4    4    0    0  0.22207850576E+01 -0.11792987215E+01  0.25578739246E+00  0.25274610181E+01  0.51100000000E-03 0.  1.
         12    1    4    4    0    0 -0.45310912743E+01 -0.10994174515E+01  0.12313336917E+02  0.13166539899E+02  0.00000000000E+00 0. -1.
</event>
<event>
 8    1  0.4798632E-010  0.9118800E+02  0.7816164E-02  0.1184000E+00
        -11   -1    0    0    0    0  0.00000000000E+00  0.00000000000E+00  0.45593999997E+02  0.45594000000E+02  0.51100000000E-03 0. -1.
         11   -1    0    0    0    0 -0.00000000000E+00 -0.00000000000E+00 -0.45593999997E+02  0.45594000000E+02  0.51100000000E-03 0.  1.
         23    2    1    2    0    0 -0.35527136788E-14  0.00000000000E+00  0.00000000000E+00  0.91188000000E+02  0.91188000000E+02 0.  0.
    9900012    2    3    3    0    0  0.21018114813E+02  0.17883892935E+02 -0.33496700157E+02  0.47787266156E+02  0.19999977710E+02 0.  0.
         12    1    3    3    0    0 -0.21018114813E+02 -0.17883892935E+02  0.33496700157E+02  0.43400733844E+02  0.00000000000E+00 0. -1.
         11    1    4    4    0    0  0.39421762446E+01  0.65901713429E+01 -0.37274044190E+01  0.85360796527E+01  0.51100000000E-03 0. -1.
        -11    1    4    4    0    0  0.13082346615E+02  0.14056843788E+02 -0.28258031582E+02  0.34165172316E+02  0.51100000000E-03 0.  1.
        -12    1    4    4    0    0  0.39935919533E+01 -0.27631221959E+01 -0.15112641558E+01  0.50860141867E+01  0.00000000000E+00 0.  1.
</event>
<event>
 8    1  0.4798632E-010  0.9118800E+02  0.7816164E-02  0.1184000E+00
        -11   -1    0    0    0    0  0.00000000000E+00  0.00000000000E+00  0.45593999997E+02  0.45594000000E+02  0.51100000000E-03 0. -1.
         11   -1    0    0    0    0 -0.00000000000E+00 -0.00000000000E+00 -0.45593999997E+02  0.45594000000E+02  0.51100000000E-03 0.  1.
         23    2    1    2    0    0  0.71054273576E-14  0.17763568394E-14  0.00000000000E+00  0.91188000000E+02  0.91188000000E+02 0.  0.
    9900012    2    3    3    0    0  0.34611619529E+02  0.14401475231E+02 -0.21869060270E+02  0.47787280048E+02  0.20000041051E+02 0.  0.
         12    1    3    3    0    0 -0.34611619529E+02 -0.14401475231E+02  0.21869060270E+02  0.43400719952E+02  0.00000000000E+00 0. -1.
         11    1    4    4    0    0  0.32346640793E+01  0.74425725838E+01 -0.51822222066E+01  0.96286222083E+01  0.51100000000E-03 0. -1.
        -11    1    4    4    0    0  0.27131645913E+02  0.91065816768E+01 -0.10798845613E+02  0.30588741501E+02  0.51100000000E-03 0.  1.
         12    1    4    4    0    0  0.42453095367E+01 -0.21476790298E+01 -0.58879924503E+01  0.75699163386E+01  0.00000000000E+00 0. -1.
</event>
<event>
 8    1  0.4798632E-010  0.9118800E+02  0.7816164E-02  0.1184000E+00
        -11   -1    0    0    0    0  0.00000000000E+00  0.00000000000E+00  0.45593999997E+02  0.45594000000E+02  0.51100000000E-03 0.  1.
         11   -1    0    0    0    0 -0.00000000000E+00 -0.00000000000E+00 -0.45593999997E+02  0.45594000000E+02  0.51100000000E-03 0. -1.
         23    2    1    2    0    0  0.71054273576E-14  0.10658141036E-13 -0.44408920985E-15  0.91188000000E+02  0.91188000000E+02 0.  0.
    9900012    2    3    3    0    0 -0.35090215292E+02 -0.25300835788E+02  0.34882190124E+01  0.47787272210E+02  0.20000005314E+02 0.  0.
        -12    1    3    3    0    0  0.35090215292E+02  0.25300835788E+02 -0.34882190124E+01  0.43400727790E+02  0.00000000000E+00 0.  1.
         11    1    4    4    0    0 -0.76275698081E+01 -0.11978940622E+01 -0.54574672048E+01  0.94550896302E+01  0.51100000000E-03 0. -1.
        -11    1    4    4    0    0 -0.20419777169E+02 -0.16949694440E+02  0.97246071592E+01  0.28263535269E+02  0.51100000000E-03 0.  1.
         12    1    4    4    0    0 -0.70428683156E+01 -0.71532472855E+01 -0.77892094193E+00  0.10068647311E+02  0.00000000000E+00 0. -1.
</event>
<event>
 8    1  0.4798632E-010  0.9118800E+02  0.7816164E-02  0.1184000E+00
        -11   -1    0    0    0    0  0.00000000000E+00  0.00000000000E+00  0.45593999997E+02  0.45594000000E+02  0.51100000000E-03 0. -1.
         11   -1    0    0    0    0 -0.00000000000E+00 -0.00000000000E+00 -0.45593999997E+02  0.45594000000E+02  0.51100000000E-03 0.  1.
         23    2    1    2    0    0  0.00000000000E+00  0.35527136788E-14  0.71054273576E-14  0.91188000000E+02  0.91188000000E+02 0.  0.
    9900012    2    3    3    0    0 -0.18522034523E+01  0.25572397805E+02  0.35017782626E+02  0.47787270891E+02  0.19999999302E+02 0.  0.
        -12    1    3    3    0    0  0.18522034523E+01 -0.25572397805E+02 -0.35017782626E+02  0.43400729109E+02  0.00000000000E+00 0.  1.
         11    1    4    4    0    0 -0.55170641174E+01  0.67427500610E+01  0.19712755653E+01  0.89324466120E+01  0.51100000000E-03 0.  1.
        -11    1    4    4    0    0  0.25608909905E+01  0.18861349755E+02  0.32393199313E+02  0.37571638762E+02  0.51100000000E-03 0. -1.
         12    1    4    4    0    0  0.11039696746E+01 -0.31702010443E-01  0.65330774690E+00  0.12831855174E+01  0.00000000000E+00 0. -1.
</event>
<event>
 8    1  0.4798632E-010  0.9118800E+02  0.7816164E-02  0.1184000E+00
        -11   -1    0    0    0    0  0.00000000000E+00  0.00000000000E+00  0.45593999997E+02  0.45594000000E+02  0.51100000000E-03 0.  1.
         11   -1    0    0    0    0 -0.00000000000E+00 -0.00000000000E+00 -0.45593999997E+02  0.45594000000E+02  0.51100000000E-03 0. -1.
         23    2    1    2    0    0  0.00000000000E+00 -0.35527136788E-14  0.00000000000E+00  0.91188000000E+02  0.91188000000E+02 0.  0.
    9900012    2    3    3    0    0  0.33744850300E+02  0.17621811527E+02 -0.20841779736E+02  0.47787274823E+02  0.20000017230E+02 0.  0.
         12    1    3    3    0    0 -0.33744850300E+02 -0.17621811527E+02  0.20841779736E+02  0.43400725177E+02  0.00000000000E+00 0. -1.
         11    1    4    4    0    0  0.27986375659E+02  0.82596500527E+01 -0.15867017805E+02  0.33214775264E+02  0.51100000000E-03 0. -1.
        -11    1    4    4    0    0  0.44466176955E+01  0.21957596778E+00 -0.13744213021E+01  0.46593622646E+01  0.51100000000E-03 0.  1.
         12    1    4    4    0    0  0.13118569457E+01  0.91425855067E+01 -0.36003406289E+01  0.99131372954E+01  0.00000000000E+00 0. -1.
</event>
<event>
 8    1  0.4798632E-010  0.9118800E+02  0.7816164E-02  0.1184000E+00
        -11   -1    0    0    0    0  0.00000000000E+00  0.00000000000E+00  0.45593999997E+02  0.45594000000E+02  0.51100000000E-03 0. -1.
         11   -1    0    0    0    0 -0.00000000000E+00 -0.00000000000E+00 -0.45593999997E+02  0.45594000000E+02  0.51100000000E-03 0.  1.
         23    2    1    2    0    0  0.00000000000E+00  0.00000000000E+00  0.00000000000E+00  0.91188000000E+02  0.91188000000E+02 0.  0.
    9900012    2    3    3    0    0 -0.39194249252E+02  0.76453949884E+01 -0.16999463133E+02  0.47787274364E+02  0.20000015134E+02 0.  0.
        -12    1    3    3    0    0  0.39194249252E+02 -0.76453949884E+01  0.16999463133E+02  0.43400725636E+02  0.00000000000E+00 0.  1.
         11    1    4    4    0    0 -0.25254773077E+02  0.16535617606E+00 -0.65311519377E+01  0.26086142906E+02  0.51100000000E-03 0. -1.
        -11    1    4    4    0    0 -0.11050770243E+02  0.79703627257E+01 -0.12207368708E+02  0.18293880288E+02  0.51100000000E-03 0.  1.
        -12    1    4    4    0    0 -0.28887059314E+01 -0.49032391329E+00  0.17390575127E+01  0.34072511692E+01  0.00000000000E+00 0.  1.
</event>
<event>
 8    1  0.6441796E-010  0.9118800E+02  0.7816164E-02  0.1184000E+00
        -11   -1    0    0    0    0  0.00000000000E+00  0.00000000000E+00  0.45593999997E+02  0.45594000000E+02  0.51100000000E-03 0. -1.
         11   -1    0    0    0    0 -0.00000000000E+00 -0.00000000000E+00 -0.45593999997E+02  0.45594000000E+02  0.51100000000E-03 0.  1.
         23    2    1    2    0    0  0.00000000000E+00  0.00000000000E+00  0.00000000000E+00  0.91188000000E+02  0.91188000000E+02 0.  0.
    9900012    2    3    3    0    0 -0.13909048560E+02  0.23956248357E+02 -0.33410474162E+02  0.47787271310E+02  0.20000001209E+02 0.  0.
         12    1    3    3    0    0  0.13909048560E+02 -0.23956248357E+02  0.33410474162E+02  0.43400728690E+02  0.00000000000E+00 0. -1.
         11    1    4    4    0    0 -0.12268625885E+01 -0.11598776920E+01 -0.29850426444E+01  0.34294296787E+01  0.51100000000E-03 0. -1.
        -11    1    4    4    0    0 -0.26352827832E+01  0.11305983355E+02 -0.22942356231E+02  0.25712286648E+02  0.51100000000E-03 0.  1.
        -12    1    4    4    0    0 -0.10046903188E+02  0.13810142693E+02 -0.74830752864E+01  0.18645554983E+02  0.00000000000E+00 0.  1.
</event>
<event>
 8    1  0.4798632E-010  0.9118800E+02  0.7816164E-02  0.1184000E+00
        -11   -1    0    0    0    0  0.00000000000E+00  0.00000000000E+00  0.45593999997E+02  0.45594000000E+02  0.51100000000E-03 0. -1.
         11   -1    0    0    0    0 -0.00000000000E+00 -0.00000000000E+00 -0.45593999997E+02  0.45594000000E+02  0.51100000000E-03 0.  1.
         23    2    1    2    0    0  0.00000000000E+00  0.00000000000E+00 -0.35527136788E-14  0.91188000000E+02  0.91188000000E+02 0.  0.
    9900012    2    3    3    0    0 -0.19980565093E+02 -0.21785615333E+02 -0.31777157107E+02  0.47787265782E+02  0.19999976006E+02 0.  0.
         12    1    3    3    0    0  0.19980565093E+02  0.21785615333E+02  0.31777157107E+02  0.43400734218E+02  0.00000000000E+00 0. -1.
         11    1    4    4    0    0 -0.12024193000E+02 -0.15782777359E+02 -0.25991666443E+02  0.32699296678E+02  0.51100000000E-03 0.  1.
        -11    1    4    4    0    0 -0.30522120863E+01  0.18525961110E+01  0.88085383039E+00  0.36775011492E+01  0.51100000000E-03 0. -1.
         12    1    4    4    0    0 -0.49041600071E+01 -0.78554340848E+01 -0.66663444937E+01  0.11410467955E+02  0.00000000000E+00 0. -1.
</event>
<event>
 8    1  0.5719000E-010  0.9118800E+02  0.7816164E-02  0.1184000E+00
        -11   -1    0    0    0    0  0.00000000000E+00  0.00000000000E+00  0.45593999997E+02  0.45594000000E+02  0.51100000000E-03 0. -1.
         11   -1    0    0    0    0 -0.00000000000E+00 -0.00000000000E+00 -0.45593999997E+02  0.45594000000E+02  0.51100000000E-03 0.  1.
         23    2    1    2    0    0  0.00000000000E+00  0.00000000000E+00  0.71054273576E-14  0.91188000000E+02  0.91188000000E+02 0.  0.
    9900012    2    3    3    0    0 -0.23501236637E+02 -0.87573801800E+01 -0.35420667981E+02  0.47787267848E+02  0.19999985427E+02 0.  0.
         12    1    3    3    0    0  0.23501236637E+02  0.87573801800E+01  0.35420667981E+02  0.43400732152E+02  0.00000000000E+00 0. -1.
         11    1    4    4    0    0  0.20126118235E+00  0.14984923285E+00  0.12053317701E+01  0.12311725278E+01  0.51100000000E-03 0. -1.
        -11    1    4    4    0    0 -0.23669806977E+02 -0.54899548682E+01 -0.35376677796E+02  0.42917463798E+02  0.51100000000E-03 0.  1.
        -12    1    4    4    0    0 -0.32690842726E-01 -0.34172745446E+01 -0.12493219556E+01  0.36386315221E+01  0.00000000000E+00 0.  1.
</event>
<event>
 8    1  0.4798632E-010  0.9118800E+02  0.7816164E-02  0.1184000E+00
        -11   -1    0    0    0    0  0.00000000000E+00  0.00000000000E+00  0.45593999997E+02  0.45594000000E+02  0.51100000000E-03 0.  1.
         11   -1    0    0    0    0 -0.00000000000E+00 -0.00000000000E+00 -0.45593999997E+02  0.45594000000E+02  0.51100000000E-03 0. -1.
         23    2    1    2    0    0  0.00000000000E+00  0.00000000000E+00  0.88817841970E-15  0.91188000000E+02  0.91188000000E+02 0.  0.
    9900012    2    3    3    0    0 -0.41635999048E+02 -0.12216321937E+02  0.91005442346E+00  0.47787272617E+02  0.20000007168E+02 0.  0.
         12    1    3    3    0    0  0.41635999048E+02  0.12216321937E+02 -0.91005442346E+00  0.43400727383E+02  0.00000000000E+00 0. -1.
         11    1    4    4    0    0 -0.11902605718E+02 -0.18749030821E+01 -0.58719868089E+01  0.13404011109E+02  0.51100000000E-03 0. -1.
        -11    1    4    4    0    0 -0.25231043919E+02 -0.11107520025E+02  0.93911428100E+01  0.29123463769E+02  0.51100000000E-03 0.  1.
        -12    1    4    4    0    0 -0.45023494099E+01  0.76610117039E+00 -0.26091015776E+01  0.52597977389E+01  0.00000000000E+00 0.  1.
</event>
<event>
 8    1  0.4798632E-010  0.9118800E+02  0.7816164E-02  0.1184000E+00
        -11   -1    0    0    0    0  0.00000000000E+00  0.00000000000E+00  0.45593999997E+02  0.45594000000E+02  0.51100000000E-03 0. -1.
         11   -1    0    0    0    0 -0.00000000000E+00 -0.00000000000E+00 -0.45593999997E+02  0.45594000000E+02  0.51100000000E-03 0.  1.
         23    2    1    2    0    0 -0.71054273576E-14  0.00000000000E+00  0.00000000000E+00  0.91188000000E+02  0.91188000000E+02 0.  0.
    9900012    2    3    3    0    0 -0.39180782663E+02  0.61525843782E+01 -0.17624844046E+02  0.47787272445E+02  0.20000006388E+02 0.  0.
         12    1    3    3    0    0  0.39180782663E+02 -0.61525843782E+01  0.17624844046E+02  0.43400727555E+02  0.00000000000E+00 0. -1.
         11    1    4    4    0    0  0.10397011301E+01  0.98714697727E+00  0.76071353246E+00  0.16229981313E+01  0.51100000000E-03 0. -1.
        -11    1    4    4    0    0 -0.38697623419E+02  0.20737587468E+01 -0.17887126294E+02  0.42682031594E+02  0.51100000000E-03 0.  1.
        -12    1    4    4    0    0 -0.15228603735E+01  0.30916786541E+01 -0.49843128486E+00  0.34822427203E+01  0.00000000000E+00 0.  1.
</event>
<event>
 8    1  0.4798632E-010  0.9118800E+02  0.7816164E-02  0.1184000E+00
        -11   -1    0    0    0    0  0.00000000000E+00  0.00000000000E+00  0.45593999997E+02  0.45594000000E+02  0.51100000000E-03 0. -1.
         11   -1    0    0    0    0 -0.00000000000E+00 -0.00000000000E+00 -0.45593999997E+02  0.45594000000E+02  0.51100000000E-03 0.  1.
         23    2    1    2    0    0 -0.35527136788E-14  0.17763568394E-14  0.71054273576E-14  0.91188000000E+02  0.91188000000E+02 0.  0.
    9900012    2    3    3    0    0 -0.24553659113E+02  0.14556989470E+02  0.32693040637E+02  0.47787273919E+02  0.20000013107E+02 0.  0.
        -12    1    3    3    0    0  0.24553659113E+02 -0.14556989470E+02 -0.32693040637E+02  0.43400726081E+02  0.00000000000E+00 0.  1.
         11    1    4    4    0    0 -0.11970183899E+02  0.13981990013E+02  0.84110208875E+01  0.20236764068E+02  0.51100000000E-03 0. -1.
        -11    1    4    4    0    0 -0.69579123063E+01 -0.11055866642E+01  0.11534705883E+02  0.13516075821E+02  0.51100000000E-03 0.  1.
         12    1    4    4    0    0 -0.56255629079E+01  0.16805861204E+01  0.12747313867E+02  0.14034434030E+02  0.00000000000E+00 0. -1.
</event>
<event>
 8    1  0.4798632E-010  0.9118800E+02  0.7816164E-02  0.1184000E+00
        -11   -1    0    0    0    0  0.00000000000E+00  0.00000000000E+00  0.45593999997E+02  0.45594000000E+02  0.51100000000E-03 0. -1.
         11   -1    0    0    0    0 -0.00000000000E+00 -0.00000000000E+00 -0.45593999997E+02  0.45594000000E+02  0.51100000000E-03 0.  1.
         23    2    1    2    0    0 -0.35527136788E-14  0.35527136788E-14  0.00000000000E+00  0.91188000000E+02  0.91188000000E+02 0.  0.
    9900012    2    3    3    0    0  0.27214755502E+02 -0.22504206560E+02  0.25229764404E+02  0.47787271414E+02  0.20000001683E+02 0.  0.
        -12    1    3    3    0    0 -0.27214755502E+02  0.22504206560E+02 -0.25229764404E+02  0.43400728586E+02  0.00000000000E+00 0.  1.
         11    1    4    4    0    0  0.81932301789E+01 -0.10305150303E+02  0.43936847611E+00  0.13172630279E+02  0.51100000000E-03 0. -1.
        -11    1    4    4    0    0  0.25024504953E+01 -0.40791706534E+01  0.16848810920E+01  0.50735309456E+01  0.51100000000E-03 0.  1.
         12    1    4    4    0    0  0.16519074828E+02 -0.81198856036E+01  0.23105514836E+02  0.29541110189E+02  0.00000000000E+00 0. -1.
</event>
<event>
 8    1  0.4798632E-010  0.9118800E+02  0.7816164E-02  0.1184000E+00
        -11   -1    0    0    0    0  0.00000000000E+00  0.00000000000E+00  0.45593999997E+02  0.45594000000E+02  0.51100000000E-03 0. -1.
         11   -1    0    0    0    0 -0.00000000000E+00 -0.00000000000E+00 -0.45593999997E+02  0.45594000000E+02  0.51100000000E-03 0.  1.
         23    2    1    2    0    0  0.00000000000E+00  0.35527136788E-14  0.00000000000E+00  0.91188000000E+02  0.91188000000E+02 0.  0.
    9900012    2    3    3    0    0 -0.25042245835E+02  0.23791896733E+02 -0.26276531850E+02  0.47787256312E+02  0.19999932827E+02 0.  0.
         12    1    3    3    0    0  0.25042245835E+02 -0.23791896733E+02  0.26276531850E+02  0.43400743688E+02  0.00000000000E+00 0. -1.
         11    1    4    4    0    0 -0.10274553231E+02  0.55984823849E+01 -0.14795402852E+01  0.11794002239E+02  0.51100000000E-03 0. -1.
        -11    1    4    4    0    0 -0.95747573977E+01  0.17942143964E+02 -0.22441309795E+02  0.30285456820E+02  0.51100000000E-03 0.  1.
        -12    1    4    4    0    0 -0.51929352067E+01  0.25127038464E+00 -0.23556817698E+01  0.57077972518E+01  0.00000000000E+00 0.  1.
</event>
<event>
 8    1  0.4798632E-010  0.9118800E+02  0.7816164E-02  0.1184000E+00
        -11   -1    0    0    0    0  0.00000000000E+00  0.00000000000E+00  0.45593999997E+02  0.45594000000E+02  0.51100000000E-03 0. -1.
         11   -1    0    0    0    0 -0.00000000000E+00 -0.00000000000E+00 -0.45593999997E+02  0.45594000000E+02  0.51100000000E-03 0.  1.
         23    2    1    2    0    0 -0.71054273576E-14  0.00000000000E+00  0.35527136788E-14  0.91188000000E+02  0.91188000000E+02 0.  0.
    9900012    2    3    3    0    0  0.22067711865E+02  0.31634689451E+02 -0.19896904132E+02  0.47787259481E+02  0.19999947276E+02 0.  0.
         12    1    3    3    0    0 -0.22067711865E+02 -0.31634689451E+02  0.19896904132E+02  0.43400740519E+02  0.00000000000E+00 0. -1.
         11    1    4    4    0    0  0.73291629438E+01  0.19753871267E+02 -0.10089077717E+02  0.23360683828E+02  0.51100000000E-03 0. -1.
        -11    1    4    4    0    0  0.17752829430E+01 -0.62129716584E+00  0.21131135497E+01  0.28289377566E+01  0.51100000000E-03 0.  1.
        -12    1    4    4    0    0  0.12963265978E+02  0.12502115350E+02 -0.11920939964E+02  0.21597637896E+02  0.00000000000E+00 0.  1.
</event>
<event>
 8    1  0.4798632E-010  0.9118800E+02  0.7816164E-02  0.1184000E+00
        -11   -1    0    0    0    0  0.00000000000E+00  0.00000000000E+00  0.45593999997E+02  0.45594000000E+02  0.51100000000E-03 0. -1.
         11   -1    0    0    0    0 -0.00000000000E+00 -0.00000000000E+00 -0.45593999997E+02  0.45594000000E+02  0.51100000000E-03 0.  1.
         23    2    1    2    0    0  0.00000000000E+00  0.00000000000E+00  0.00000000000E+00  0.91188000000E+02  0.91188000000E+02 0.  0.
    9900012    2    3    3    0    0 -0.22437211725E+02 -0.32350808635E+01 -0.37009842729E+02  0.47787277921E+02  0.20000031353E+02 0.  0.
         12    1    3    3    0    0  0.22437211725E+02  0.32350808635E+01  0.37009842729E+02  0.43400722079E+02  0.00000000000E+00 0. -1.
         11    1    4    4    0    0 -0.10171693036E+02  0.44045514419E+01 -0.68385967350E+01  0.13024201249E+02  0.51100000000E-03 0. -1.
        -11    1    4    4    0    0 -0.13386951227E+02 -0.84960923210E+01 -0.27808485880E+02  0.32011028335E+02  0.51100000000E-03 0.  1.
        -12    1    4    4    0    0  0.11214325371E+01  0.85646001555E+00 -0.23627601131E+01  0.27520483364E+01  0.00000000000E+00 0.  1.
</event>
<event>
 8    1  0.4798632E-010  0.9118800E+02  0.7816164E-02  0.1184000E+00
        -11   -1    0    0    0    0  0.00000000000E+00  0.00000000000E+00  0.45593999997E+02  0.45594000000E+02  0.51100000000E-03 0. -1.
         11   -1    0    0    0    0 -0.00000000000E+00 -0.00000000000E+00 -0.45593999997E+02  0.45594000000E+02  0.51100000000E-03 0.  1.
         23    2    1    2    0    0  0.00000000000E+00 -0.35527136788E-14  0.00000000000E+00  0.91188000000E+02  0.91188000000E+02 0.  0.
    9900012    2    3    3    0    0 -0.10543887444E+02  0.27214814130E+02 -0.32121697121E+02  0.47787273088E+02  0.20000009315E+02 0.  0.
         12    1    3    3    0    0  0.10543887444E+02 -0.27214814130E+02  0.32121697121E+02  0.43400726912E+02  0.00000000000E+00 0. -1.
         11    1    4    4    0    0  0.16783557399E+01  0.34084822208E+01 -0.41443865209E+01  0.56223277150E+01  0.51100000000E-03 0. -1.
        -11    1    4    4    0    0 -0.67407454084E+01  0.13484020332E+02 -0.26359871519E+02  0.30366087659E+02  0.51100000000E-03 0.  1.
        -12    1    4    4    0    0 -0.54814977754E+01  0.10322311577E+02 -0.16174390818E+01  0.11798857713E+02  0.00000000000E+00 0.  1.
</event>
<event>
 8    1  0.4798632E-010  0.9118800E+02  0.7816164E-02  0.1184000E+00
        -11   -1    0    0    0    0  0.00000000000E+00  0.00000000000E+00  0.45593999997E+02  0.45594000000E+02  0.51100000000E-03 0. -1.
         11   -1    0    0    0    0 -0.00000000000E+00 -0.00000000000E+00 -0.45593999997E+02  0.45594000000E+02  0.51100000000E-03 0.  1.
         23    2    1    2    0    0  0.00000000000E+00  0.00000000000E+00  0.17763568394E-14  0.91188000000E+02  0.91188000000E+02 0.  0.
    9900012    2    3    3    0    0  0.39570337409E+02 -0.87471442224E+01 -0.15533783582E+02  0.47787279187E+02  0.20000037125E+02 0.  0.
         12    1    3    3    0    0 -0.39570337409E+02  0.87471442224E+01  0.15533783582E+02  0.43400720813E+02  0.00000000000E+00 0. -1.
         11    1    4    4    0    0  0.14613563775E+02 -0.59138635666E+01 -0.38410995002E+01  0.16226030757E+02  0.51100000000E-03 0. -1.
        -11    1    4    4    0    0  0.15273559506E+02  0.86300189708E+00  0.81205806510E+00  0.15319459221E+02  0.51100000000E-03 0.  1.
        -12    1    4    4    0    0  0.96832141276E+01 -0.36962825528E+01 -0.12504742146E+02  0.16241789209E+02  0.00000000000E+00 0.  1.
</event>
<event>
 8    1  0.4798632E-010  0.9118800E+02  0.7816164E-02  0.1184000E+00
        -11   -1    0    0    0    0  0.00000000000E+00  0.00000000000E+00  0.45593999997E+02  0.45594000000E+02  0.51100000000E-03 0. -1.
         11   -1    0    0    0    0 -0.00000000000E+00 -0.00000000000E+00 -0.45593999997E+02  0.45594000000E+02  0.51100000000E-03 0.  1.
         23    2    1    2    0    0  0.35527136788E-14 -0.35527136788E-14 -0.35527136788E-14  0.91188000000E+02  0.91188000000E+02 0.  0.
    9900012    2    3    3    0    0  0.19059813317E+02 -0.25396072689E+02 -0.29586929204E+02  0.47787269921E+02  0.19999994876E+02 0.  0.
         12    1    3    3    0    0 -0.19059813317E+02  0.25396072689E+02  0.29586929204E+02  0.43400730079E+02  0.00000000000E+00 0. -1.
         11    1    4    4    0    0 -0.11859419247E+01 -0.12374431434E+02 -0.88493323848E+01  0.15259216739E+02  0.51100000000E-03 0. -1.
        -11    1    4    4    0    0  0.11905367952E+02 -0.87541362524E+01 -0.16775376106E+02  0.22355892542E+02  0.51100000000E-03 0.  1.
         12    1    4    4    0    0  0.83403872901E+01 -0.42675050017E+01 -0.39622207136E+01  0.10172160639E+02  0.00000000000E+00 0. -1.
</event>
<event>
 8    1  0.4798632E-010  0.9118800E+02  0.7816164E-02  0.1184000E+00
        -11   -1    0    0    0    0  0.00000000000E+00  0.00000000000E+00  0.45593999997E+02  0.45594000000E+02  0.51100000000E-03 0. -1.
         11   -1    0    0    0    0 -0.00000000000E+00 -0.00000000000E+00 -0.45593999997E+02  0.45594000000E+02  0.51100000000E-03 0.  1.
         23    2    1    2    0    0  0.88817841970E-15  0.35527136788E-14 -0.71054273576E-14  0.91188000000E+02  0.91188000000E+02 0.  0.
    9900012    2    3    3    0    0 -0.47450582972E+01 -0.22445539560E+02  0.36841615424E+02  0.47787280519E+02  0.20000043201E+02 0.  0.
        -12    1    3    3    0    0  0.47450582972E+01  0.22445539560E+02 -0.36841615424E+02  0.43400719481E+02  0.00000000000E+00 0.  1.
         11    1    4    4    0    0 -0.76293130590E+01 -0.18353435479E+02  0.34205834598E+02  0.39561270612E+02  0.51100000000E-03 0. -1.
        -11    1    4    4    0    0  0.39321875917E+01 -0.49161139094E+01  0.14923935546E+01  0.64697383262E+01  0.51100000000E-03 0.  1.
         12    1    4    4    0    0 -0.10479328300E+01  0.82400982891E+00  0.11433872719E+01  0.17562715814E+01  0.00000000000E+00 0. -1.
</event>
<event>
 8    1  0.4798632E-010  0.9118800E+02  0.7816164E-02  0.1184000E+00
        -11   -1    0    0    0    0  0.00000000000E+00  0.00000000000E+00  0.45593999997E+02  0.45594000000E+02  0.51100000000E-03 0. -1.
         11   -1    0    0    0    0 -0.00000000000E+00 -0.00000000000E+00 -0.45593999997E+02  0.45594000000E+02  0.51100000000E-03 0.  1.
         23    2    1    2    0    0 -0.44408920985E-15 -0.44408920985E-15 -0.21316282073E-13  0.91188000000E+02  0.91188000000E+02 0.  0.
    9900012    2    3    3    0    0  0.29083685876E+01  0.26557470172E+01 -0.43221655661E+02  0.47787272839E+02  0.20000008181E+02 0.  0.
         12    1    3    3    0    0 -0.29083685876E+01 -0.26557470172E+01  0.43221655661E+02  0.43400727161E+02  0.00000000000E+00 0. -1.
         11    1    4    4    0    0 -0.59739628817E+01  0.20237073707E+01 -0.71135067439E+01  0.95071342943E+01  0.51100000000E-03 0. -1.
        -11    1    4    4    0    0  0.60191064057E+01  0.47524917362E+01 -0.20655912033E+02  0.22033667916E+02  0.51100000000E-03 0.  1.
         12    1    4    4    0    0  0.28632250636E+01 -0.41204520898E+01 -0.15452236883E+02  0.16246470629E+02  0.00000000000E+00 0. -1.
</event>
<event>
 8    1  0.4798632E-010  0.9118800E+02  0.7816164E-02  0.1184000E+00
        -11   -1    0    0    0    0  0.00000000000E+00  0.00000000000E+00  0.45593999997E+02  0.45594000000E+02  0.51100000000E-03 0. -1.
         11   -1    0    0    0    0 -0.00000000000E+00 -0.00000000000E+00 -0.45593999997E+02  0.45594000000E+02  0.51100000000E-03 0.  1.
         23    2    1    2    0    0  0.44408920985E-15  0.71054273576E-14  0.00000000000E+00  0.91188000000E+02  0.91188000000E+02 0.  0.
    9900012    2    3    3    0    0 -0.32659894571E+01 -0.32723396912E+02  0.28322006145E+02  0.47787269307E+02  0.19999992079E+02 0.  0.
        -12    1    3    3    0    0  0.32659894571E+01  0.32723396912E+02 -0.28322006145E+02  0.43400730693E+02  0.00000000000E+00 0.  1.
         11    1    4    4    0    0 -0.38481179547E+00 -0.44580457696E+00  0.94223950247E+01  0.94407812230E+01  0.51100000000E-03 0.  1.
        -11    1    4    4    0    0 -0.27556721211E+01 -0.31892167096E+02  0.16691322708E+02  0.36101306139E+02  0.51100000000E-03 0. -1.
         12    1    4    4    0    0 -0.12550554049E+00 -0.38542523861E+00  0.22082884120E+01  0.22451819450E+01  0.00000000000E+00 0. -1.
</event>
<event>
 8    1  0.4798632E-010  0.9118800E+02  0.7816164E-02  0.1184000E+00
        -11   -1    0    0    0    0  0.00000000000E+00  0.00000000000E+00  0.45593999997E+02  0.45594000000E+02  0.51100000000E-03 0. -1.
         11   -1    0    0    0    0 -0.00000000000E+00 -0.00000000000E+00 -0.45593999997E+02  0.45594000000E+02  0.51100000000E-03 0.  1.
         23    2    1    2    0    0 -0.22204460493E-15  0.00000000000E+00 -0.71054273576E-14  0.91188000000E+02  0.91188000000E+02 0.  0.
    9900012    2    3    3    0    0 -0.14656489208E+01 -0.80810061092E+01  0.42616511608E+02  0.47787333552E+02  0.20000284995E+02 0.  0.
        -12    1    3    3    0    0  0.14656489208E+01  0.80810061092E+01 -0.42616511608E+02  0.43400666448E+02  0.00000000000E+00 0.  1.
         11    1    4    4    0    0 -0.21033351504E+01 -0.98620750132E+01  0.85007114080E+01  0.13188883085E+02  0.51100000000E-03 0. -1.
        -11    1    4    4    0    0 -0.10693229989E+01  0.29052031282E+01  0.12165969660E+02  0.12553663804E+02  0.51100000000E-03 0.  1.
         12    1    4    4    0    0  0.17070092285E+01 -0.11241342243E+01  0.21949830540E+02  0.22044786663E+02  0.00000000000E+00 0. -1.
</event>
<event>
 8    1  0.5333455E-010  0.9118800E+02  0.7816164E-02  0.1184000E+00
        -11   -1    0    0    0    0  0.00000000000E+00  0.00000000000E+00  0.45593999997E+02  0.45594000000E+02  0.51100000000E-03 0. -1.
         11   -1    0    0    0    0 -0.00000000000E+00 -0.00000000000E+00 -0.45593999997E+02  0.45594000000E+02  0.51100000000E-03 0.  1.
         23    2    1    2    0    0 -0.77715611724E-15  0.17763568394E-14  0.00000000000E+00  0.91188000000E+02  0.91188000000E+02 0.  0.
    9900012    2    3    3    0    0  0.74453924596E+00 -0.85082636993E+01 -0.42552058490E+02  0.47787279135E+02  0.20000036887E+02 0.  0.
         12    1    3    3    0    0 -0.74453924596E+00  0.85082636993E+01  0.42552058490E+02  0.43400720865E+02  0.00000000000E+00 0. -1.
         11    1    4    4    0    0  0.24434852170E+00 -0.33955778206E+00  0.14339851426E+01  0.14937601339E+01  0.51100000000E-03 0. -1.
        -11    1    4    4    0    0  0.28445668652E+01 -0.93765034207E+01 -0.41595732253E+02  0.42734240592E+02  0.51100000000E-03 0.  1.
        -12    1    4    4    0    0 -0.23443761409E+01  0.12077975034E+01 -0.23903113796E+01  0.35592784087E+01  0.00000000000E+00 0.  1.
</event>
<event>
 8    1  0.4798632E-010  0.9118800E+02  0.7816164E-02  0.1184000E+00
        -11   -1    0    0    0    0  0.00000000000E+00  0.00000000000E+00  0.45593999997E+02  0.45594000000E+02  0.51100000000E-03 0. -1.
         11   -1    0    0    0    0 -0.00000000000E+00 -0.00000000000E+00 -0.45593999997E+02  0.45594000000E+02  0.51100000000E-03 0.  1.
         23    2    1    2    0    0 -0.17763568394E-14 -0.35527136788E-14  0.00000000000E+00  0.91188000000E+02  0.91188000000E+02 0.  0.
    9900012    2    3    3    0    0 -0.11582454385E+02 -0.24873330564E+02 -0.33627182364E+02  0.47787271704E+02  0.20000003006E+02 0.  0.
         12    1    3    3    0    0  0.11582454385E+02  0.24873330564E+02  0.33627182364E+02  0.43400728296E+02  0.00000000000E+00 0. -1.
         11    1    4    4    0    0  0.32667563542E+01  0.41180364818E+00 -0.54989468959E+01  0.64093444709E+01  0.51100000000E-03 0. -1.
        -11    1    4    4    0    0 -0.14862349696E+02 -0.21465843173E+02 -0.26575876226E+02  0.37255188351E+02  0.51100000000E-03 0.  1.
        -12    1    4    4    0    0  0.13138957213E-01 -0.38192910390E+01 -0.15523592422E+01  0.41227388821E+01  0.00000000000E+00 0.  1.
</event>
<event>
 8    1  0.4798632E-010  0.9118800E+02  0.7816164E-02  0.1184000E+00
        -11   -1    0    0    0    0  0.00000000000E+00  0.00000000000E+00  0.45593999997E+02  0.45594000000E+02  0.51100000000E-03 0. -1.
         11   -1    0    0    0    0 -0.00000000000E+00 -0.00000000000E+00 -0.45593999997E+02  0.45594000000E+02  0.51100000000E-03 0.  1.
         23    2    1    2    0    0  0.00000000000E+00  0.00000000000E+00  0.00000000000E+00  0.91188000000E+02  0.91188000000E+02 0.  0.
    9900012    2    3    3    0    0 -0.37231660743E+02 -0.14239879812E+02 -0.17165447256E+02  0.47787270534E+02  0.19999997671E+02 0.  0.
         12    1    3    3    0    0  0.37231660743E+02  0.14239879812E+02  0.17165447256E+02  0.43400729466E+02  0.00000000000E+00 0. -1.
         11    1    4    4    0    0 -0.31184076735E+02 -0.10595497492E+02 -0.90586560211E+01  0.34158021870E+02  0.51100000000E-03 0. -1.
        -11    1    4    4    0    0 -0.55442934880E+01  0.86558744992E+00 -0.69754341063E+01  0.89523803062E+01  0.51100000000E-03 0.  1.
         12    1    4    4    0    0 -0.50329051941E+00 -0.45099697707E+01 -0.11313571282E+01  0.46768683573E+01  0.00000000000E+00 0. -1.
</event>
<event>
 8    1  0.4798632E-010  0.9118800E+02  0.7816164E-02  0.1184000E+00
        -11   -1    0    0    0    0  0.00000000000E+00  0.00000000000E+00  0.45593999997E+02  0.45594000000E+02  0.51100000000E-03 0.  1.
         11   -1    0    0    0    0 -0.00000000000E+00 -0.00000000000E+00 -0.45593999997E+02  0.45594000000E+02  0.51100000000E-03 0. -1.
         23    2    1    2    0    0  0.00000000000E+00  0.00000000000E+00  0.00000000000E+00  0.91188000000E+02  0.91188000000E+02 0.  0.
    9900012    2    3    3    0    0 -0.91604877526E+01 -0.41861094054E+02  0.68816720411E+01  0.47787272572E+02  0.20000006963E+02 0.  0.
        -12    1    3    3    0    0  0.91604877526E+01  0.41861094054E+02 -0.68816720411E+01  0.43400727428E+02  0.00000000000E+00 0.  1.
         11    1    4    4    0    0 -0.71765692646E+01 -0.89134232172E+01  0.70891601499E+01  0.13461368866E+02  0.51100000000E-03 0. -1.
        -11    1    4    4    0    0  0.13192309730E+01 -0.28937423996E+01 -0.24403418391E+01  0.40086636163E+01  0.51100000000E-03 0.  1.
         12    1    4    4    0    0 -0.33031494610E+01 -0.30053928437E+02  0.22328537304E+01  0.30317240089E+02  0.00000000000E+00 0. -1.
</event>
<event>
 8    1  0.4798632E-010  0.9118800E+02  0.7816164E-02  0.1184000E+00
        -11   -1    0    0    0    0  0.00000000000E+00  0.00000000000E+00  0.45593999997E+02  0.45594000000E+02  0.51100000000E-03 0. -1.
         11   -1    0    0    0    0 -0.00000000000E+00 -0.00000000000E+00 -0.45593999997E+02  0.45594000000E+02  0.51100000000E-03 0.  1.
         23    2    1    2    0    0  0.00000000000E+00  0.44408920985E-15  0.00000000000E+00  0.91188000000E+02  0.91188000000E+02 0.  0.
    9900012    2    3    3    0    0  0.38288452863E+02  0.33735647096E+01  0.20155315823E+02  0.47787270543E+02  0.19999997714E+02 0.  0.
        -12    1    3    3    0    0 -0.38288452863E+02 -0.33735647096E+01 -0.20155315823E+02  0.43400729457E+02  0.00000000000E+00 0.  1.
         11    1    4    4    0    0  0.24072481282E+02  0.62723450867E+01  0.80747883588E+01  0.26153945692E+02  0.51100000000E-03 0. -1.
        -11    1    4    4    0    0  0.51273833902E+01 -0.15754017504E+01  0.11185813561E+02  0.12405417220E+02  0.51100000000E-03 0.  1.
        -12    1    4    4    0    0  0.90885881902E+01 -0.13233786267E+01  0.89471390335E+00  0.92279076312E+01  0.00000000000E+00 0.  1.
</event>
<event>
 8    1  0.4798632E-010  0.9118800E+02  0.7816164E-02  0.1184000E+00
        -11   -1    0    0    0    0  0.00000000000E+00  0.00000000000E+00  0.45593999997E+02  0.45594000000E+02  0.51100000000E-03 0. -1.
         11   -1    0    0    0    0 -0.00000000000E+00 -0.00000000000E+00 -0.45593999997E+02  0.45594000000E+02  0.51100000000E-03 0.  1.
         23    2    1    2    0    0  0.00000000000E+00  0.00000000000E+00  0.00000000000E+00  0.91188000000E+02  0.91188000000E+02 0.  0.
    9900012    2    3    3    0    0  0.11758613175E+02  0.28998159679E+02 -0.30074325898E+02  0.47787270435E+02  0.19999997222E+02 0.  0.
         12    1    3    3    0    0 -0.11758613175E+02 -0.28998159679E+02  0.30074325898E+02  0.43400729565E+02  0.00000000000E+00 0. -1.
         11    1    4    4    0    0  0.78117239980E+01  0.89828748654E+01 -0.94871757872E+01  0.15222403797E+02  0.51100000000E-03 0. -1.
        -11    1    4    4    0    0 -0.54455975214E+01  0.65642905307E+01 -0.94842445538E+01  0.12755208252E+02  0.51100000000E-03 0.  1.
        -12    1    4    4    0    0  0.93924866989E+01  0.13450994283E+02 -0.11102905557E+02  0.19809658386E+02  0.00000000000E+00 0.  1.
</event>
<event>
 8    1  0.4798632E-010  0.9118800E+02  0.7816164E-02  0.1184000E+00
        -11   -1    0    0    0    0  0.00000000000E+00  0.00000000000E+00  0.45593999997E+02  0.45594000000E+02  0.51100000000E-03 0. -1.
         11   -1    0    0    0    0 -0.00000000000E+00 -0.00000000000E+00 -0.45593999997E+02  0.45594000000E+02  0.51100000000E-03 0.  1.
         23    2    1    2    0    0  0.17763568394E-14  0.17763568394E-14  0.00000000000E+00  0.91188000000E+02  0.91188000000E+02 0.  0.
    9900012    2    3    3    0    0 -0.14610385653E+02  0.10489545199E+02  0.39498466991E+02  0.47787276250E+02  0.20000023734E+02 0.  0.
        -12    1    3    3    0    0  0.14610385653E+02 -0.10489545199E+02 -0.39498466991E+02  0.43400723750E+02  0.00000000000E+00 0.  1.
         11    1    4    4    0    0  0.20351317064E+01  0.71945214243E+01  0.11147062695E+02  0.13422365908E+02  0.51100000000E-03 0. -1.
        -11    1    4    4    0    0 -0.87785606212E+01 -0.10289939674E+01  0.72442588930E+01  0.11428090056E+02  0.51100000000E-03 0.  1.
         12    1    4    4    0    0 -0.78669567385E+01  0.43240177420E+01  0.21107145403E+02  0.22936820286E+02  0.00000000000E+00 0. -1.
</event>
<event>
 8    1  0.4798632E-010  0.9118800E+02  0.7816164E-02  0.1184000E+00
        -11   -1    0    0    0    0  0.00000000000E+00  0.00000000000E+00  0.45593999997E+02  0.45594000000E+02  0.51100000000E-03 0. -1.
         11   -1    0    0    0    0 -0.00000000000E+00 -0.00000000000E+00 -0.45593999997E+02  0.45594000000E+02  0.51100000000E-03 0.  1.
         23    2    1    2    0    0  0.00000000000E+00 -0.17763568394E-14  0.00000000000E+00  0.91188000000E+02  0.91188000000E+02 0.  0.
    9900012    2    3    3    0    0 -0.12888080694E+02  0.15287360638E+02  0.38520345180E+02  0.47787274061E+02  0.20000013753E+02 0.  0.
        -12    1    3    3    0    0  0.12888080694E+02 -0.15287360638E+02 -0.38520345180E+02  0.43400725939E+02  0.00000000000E+00 0.  1.
         11    1    4    4    0    0  0.31150103870E+00  0.73886295238E+01  0.28154754084E+01  0.79130134066E+01  0.51100000000E-03 0.  1.
        -11    1    4    4    0    0 -0.50533517889E+01 -0.14389788503E+01  0.12705942663E+02  0.13749472850E+02  0.51100000000E-03 0. -1.
        -12    1    4    4    0    0 -0.81462299435E+01  0.93377099642E+01  0.22998927108E+02  0.26124787804E+02  0.00000000000E+00 0.  1.
</event>
<event>
 8    1  0.4798632E-010  0.9118800E+02  0.7816164E-02  0.1184000E+00
        -11   -1    0    0    0    0  0.00000000000E+00  0.00000000000E+00  0.45593999997E+02  0.45594000000E+02  0.51100000000E-03 0. -1.
         11   -1    0    0    0    0 -0.00000000000E+00 -0.00000000000E+00 -0.45593999997E+02  0.45594000000E+02  0.51100000000E-03 0.  1.
         23    2    1    2    0    0  0.00000000000E+00  0.00000000000E+00  0.00000000000E+00  0.91188000000E+02  0.91188000000E+02 0.  0.
    9900012    2    3    3    0    0  0.26436270945E+02 -0.34074803956E+01 -0.34251083923E+02  0.47787261596E+02  0.19999956919E+02 0.  0.
         12    1    3    3    0    0 -0.26436270945E+02  0.34074803956E+01  0.34251083923E+02  0.43400738404E+02  0.00000000000E+00 0. -1.
         11    1    4    4    0    0 -0.16111439907E+01 -0.32660766500E+01 -0.19123599092E+01  0.41134124916E+01  0.51100000000E-03 0. -1.
        -11    1    4    4    0    0  0.27208213060E+02  0.16807916920E+01 -0.30895676627E+02  0.41202606145E+02  0.51100000000E-03 0.  1.
        -12    1    4    4    0    0  0.83920187581E+00 -0.18221954376E+01 -0.14430473866E+01  0.24712429587E+01  0.00000000000E+00 0.  1.
</event>
<event>
 8    1  0.4798632E-010  0.9118800E+02  0.7816164E-02  0.1184000E+00
        -11   -1    0    0    0    0  0.00000000000E+00  0.00000000000E+00  0.45593999997E+02  0.45594000000E+02  0.51100000000E-03 0. -1.
         11   -1    0    0    0    0 -0.00000000000E+00 -0.00000000000E+00 -0.45593999997E+02  0.45594000000E+02  0.51100000000E-03 0.  1.
         23    2    1    2    0    0  0.00000000000E+00  0.00000000000E+00  0.11102230246E-14  0.91188000000E+02  0.91188000000E+02 0.  0.
    9900012    2    3    3    0    0  0.30393038786E+02 -0.30956175376E+02  0.12656137761E+01  0.47787269836E+02  0.19999994490E+02 0.  0.
        -12    1    3    3    0    0 -0.30393038786E+02  0.30956175376E+02 -0.12656137761E+01  0.43400730164E+02  0.00000000000E+00 0.  1.
         11    1    4    4    0    0  0.11921549546E+02 -0.21677758881E+02 -0.55470480930E+01  0.25353861964E+02  0.51100000000E-03 0. -1.
        -11    1    4    4    0    0  0.15517365097E+02 -0.63209573930E+01  0.35416913650E+01  0.17125615315E+02  0.51100000000E-03 0.  1.
         12    1    4    4    0    0  0.29541241429E+01 -0.29574591020E+01  0.32709705041E+01  0.53077925572E+01  0.00000000000E+00 0. -1.
</event>
<event>
 8    1  0.5395996E-010  0.9118800E+02  0.7816164E-02  0.1184000E+00
        -11   -1    0    0    0    0  0.00000000000E+00  0.00000000000E+00  0.45593999997E+02  0.45594000000E+02  0.51100000000E-03 0. -1.
         11   -1    0    0    0    0 -0.00000000000E+00 -0.00000000000E+00 -0.45593999997E+02  0.45594000000E+02  0.51100000000E-03 0.  1.
         23    2    1    2    0    0  0.00000000000E+00  0.00000000000E+00  0.00000000000E+00  0.91188000000E+02  0.91188000000E+02 0.  0.
    9900012    2    3    3    0    0 -0.71447290425E+01 -0.13971797263E+02 -0.40464373956E+02  0.47787264621E+02  0.19999970711E+02 0.  0.
         12    1    3    3    0    0  0.71447290425E+01  0.13971797263E+02  0.40464373956E+02  0.43400735379E+02  0.00000000000E+00 0. -1.
         11    1    4    4    0    0 -0.66617804299E+01 -0.44998475950E+01 -0.32694991138E+01  0.86785696742E+01  0.51100000000E-03 0. -1.
        -11    1    4    4    0    0  0.13929253552E+01 -0.95127776574E+01 -0.25270301723E+02  0.27037406111E+02  0.51100000000E-03 0.  1.
        -12    1    4    4    0    0 -0.18758739678E+01  0.40827988967E-01 -0.11924573119E+02  0.12071288835E+02  0.00000000000E+00 0.  1.
</event>
<event>
 8    1  0.4798632E-010  0.9118800E+02  0.7816164E-02  0.1184000E+00
        -11   -1    0    0    0    0  0.00000000000E+00  0.00000000000E+00  0.45593999997E+02  0.45594000000E+02  0.51100000000E-03 0. -1.
         11   -1    0    0    0    0 -0.00000000000E+00 -0.00000000000E+00 -0.45593999997E+02  0.45594000000E+02  0.51100000000E-03 0.  1.
         23    2    1    2    0    0 -0.17763568394E-14  0.35527136788E-14  0.00000000000E+00  0.91188000000E+02  0.91188000000E+02 0.  0.
    9900012    2    3    3    0    0  0.87126751214E+01 -0.25661433997E+02 -0.33899893587E+02  0.47787277797E+02  0.20000030787E+02 0.  0.
         12    1    3    3    0    0 -0.87126751214E+01  0.25661433997E+02  0.33899893587E+02  0.43400722203E+02  0.00000000000E+00 0. -1.
         11    1    4    4    0    0  0.17030246229E+01 -0.35812545440E+01 -0.12374730517E+01  0.41541565678E+01  0.51100000000E-03 0. -1.
        -11    1    4    4    0    0 -0.55931012582E+01 -0.71432992650E+01 -0.74898082305E+01  0.11764639122E+02  0.51100000000E-03 0.  1.
        -12    1    4    4    0    0  0.12602751757E+02 -0.14936880188E+02 -0.25172612305E+02  0.31868482107E+02  0.00000000000E+00 0.  1.
</event>
<event>
 8    1  0.4798632E-010  0.9118800E+02  0.7816164E-02  0.1184000E+00
        -11   -1    0    0    0    0  0.00000000000E+00  0.00000000000E+00  0.45593999997E+02  0.45594000000E+02  0.51100000000E-03 0. -1.
         11   -1    0    0    0    0 -0.00000000000E+00 -0.00000000000E+00 -0.45593999997E+02  0.45594000000E+02  0.51100000000E-03 0.  1.
         23    2    1    2    0    0  0.00000000000E+00 -0.66613381478E-15  0.00000000000E+00  0.91188000000E+02  0.91188000000E+02 0.  0.
    9900012    2    3    3    0    0 -0.35570256685E+02 -0.18563084299E+01  0.24797879302E+02  0.47787264298E+02  0.19999969238E+02 0.  0.
        -12    1    3    3    0    0  0.35570256685E+02  0.18563084299E+01 -0.24797879302E+02  0.43400735702E+02  0.00000000000E+00 0.  1.
         11    1    4    4    0    0 -0.77571367756E+01  0.25256494673E+01 -0.18131222159E+00  0.81599602064E+01  0.51100000000E-03 0. -1.
        -11    1    4    4    0    0 -0.28206460646E+02 -0.48155364689E+01  0.25860760360E+02  0.38569064550E+02  0.51100000000E-03 0.  1.
        -12    1    4    4    0    0  0.39334073614E+00  0.43357857167E+00 -0.88156883627E+00  0.10582395407E+01  0.00000000000E+00 0.  1.
</event>
<event>
 8    1  0.4798632E-010  0.9118800E+02  0.7816164E-02  0.1184000E+00
        -11   -1    0    0    0    0  0.00000000000E+00  0.00000000000E+00  0.45593999997E+02  0.45594000000E+02  0.51100000000E-03 0. -1.
         11   -1    0    0    0    0 -0.00000000000E+00 -0.00000000000E+00 -0.45593999997E+02  0.45594000000E+02  0.51100000000E-03 0.  1.
         23    2    1    2    0    0  0.00000000000E+00  0.54643789493E-16  0.00000000000E+00  0.91188000000E+02  0.91188000000E+02 0.  0.
    9900012    2    3    3    0    0 -0.28646609704E+02 -0.43582518486E-02 -0.32603601839E+02  0.47787272824E+02  0.20000008112E+02 0.  0.
         12    1    3    3    0    0  0.28646609704E+02  0.43582518486E-02  0.32603601839E+02  0.43400727176E+02  0.00000000000E+00 0. -1.
         11    1    4    4    0    0 -0.57951809241E+01  0.43423384954E+00  0.12373951209E+01  0.59417024434E+01  0.51100000000E-03 0. -1.
        -11    1    4    4    0    0 -0.18054018913E+02 -0.41726307106E+01 -0.25824311222E+02  0.31784485151E+02  0.51100000000E-03 0.  1.
        -12    1    4    4    0    0 -0.47974098679E+01  0.37340386092E+01 -0.80166857381E+01  0.10061085230E+02  0.00000000000E+00 0.  1.
</event>
<event>
 8    1  0.4798632E-010  0.9118800E+02  0.7816164E-02  0.1184000E+00
        -11   -1    0    0    0    0  0.00000000000E+00  0.00000000000E+00  0.45593999997E+02  0.45594000000E+02  0.51100000000E-03 0. -1.
         11   -1    0    0    0    0 -0.00000000000E+00 -0.00000000000E+00 -0.45593999997E+02  0.45594000000E+02  0.51100000000E-03 0.  1.
         23    2    1    2    0    0  0.00000000000E+00  0.00000000000E+00  0.00000000000E+00  0.91188000000E+02  0.91188000000E+02 0.  0.
    9900012    2    3    3    0    0  0.65454299400E+01  0.15756122071E+02  0.39906453502E+02  0.47787273429E+02  0.20000010871E+02 0.  0.
        -12    1    3    3    0    0 -0.65454299400E+01 -0.15756122071E+02 -0.39906453502E+02  0.43400726571E+02  0.00000000000E+00 0.  1.
         11    1    4    4    0    0 -0.18279684625E+01 -0.18471788132E+01  0.12250131975E+02  0.12522750175E+02  0.51100000000E-03 0. -1.
        -11    1    4    4    0    0  0.85667431374E+01  0.14835609771E+02  0.27606008573E+02  0.32489630882E+02  0.51100000000E-03 0.  1.
        -12    1    4    4    0    0 -0.19334473490E+00  0.27676911126E+01  0.50312953755E-01  0.27748923717E+01  0.00000000000E+00 0.  1.
</event>
<event>
 8    1  0.4798632E-010  0.9118800E+02  0.7816164E-02  0.1184000E+00
        -11   -1    0    0    0    0  0.00000000000E+00  0.00000000000E+00  0.45593999997E+02  0.45594000000E+02  0.51100000000E-03 0. -1.
         11   -1    0    0    0    0 -0.00000000000E+00 -0.00000000000E+00 -0.45593999997E+02  0.45594000000E+02  0.51100000000E-03 0.  1.
         23    2    1    2    0    0  0.00000000000E+00  0.00000000000E+00  0.35527136788E-14  0.91188000000E+02  0.91188000000E+02 0.  0.
    9900012    2    3    3    0    0  0.11769452387E+02  0.33626571223E+02 -0.24786226835E+02  0.47787270255E+02  0.19999996401E+02 0.  0.
         12    1    3    3    0    0 -0.11769452387E+02 -0.33626571223E+02  0.24786226835E+02  0.43400729745E+02  0.00000000000E+00 0. -1.
         11    1    4    4    0    0  0.11747080274E+02  0.28566953876E+02 -0.20217918317E+02  0.36916513514E+02  0.51100000000E-03 0. -1.
        -11    1    4    4    0    0  0.29719166550E+00  0.66555426100E+01 -0.58023861144E+01  0.88347187392E+01  0.51100000000E-03 0.  1.
         12    1    4    4    0    0 -0.27481955272E+00 -0.15959252630E+01  0.12340775963E+01  0.20360380019E+01  0.00000000000E+00 0. -1.
</event>
<event>
 8    1  0.4798632E-010  0.9118800E+02  0.7816164E-02  0.1184000E+00
        -11   -1    0    0    0    0  0.00000000000E+00  0.00000000000E+00  0.45593999997E+02  0.45594000000E+02  0.51100000000E-03 0. -1.
         11   -1    0    0    0    0 -0.00000000000E+00 -0.00000000000E+00 -0.45593999997E+02  0.45594000000E+02  0.51100000000E-03 0.  1.
         23    2    1    2    0    0 -0.11102230246E-14  0.00000000000E+00 -0.71054273576E-14  0.91188000000E+02  0.91188000000E+02 0.  0.
    9900012    2    3    3    0    0 -0.18488441885E+01 -0.56207154760E+01  0.42995494064E+02  0.47787272160E+02  0.20000005085E+02 0.  0.
        -12    1    3    3    0    0  0.18488441885E+01  0.56207154760E+01 -0.42995494064E+02  0.43400727840E+02  0.00000000000E+00 0.  1.
         11    1    4    4    0    0 -0.40264367422E+01  0.91866733569E-01  0.20585316910E+01  0.45230725530E+01  0.51100000000E-03 0. -1.
        -11    1    4    4    0    0  0.56704722351E+01 -0.70578241505E+01  0.19452940629E+02  0.21456561618E+02  0.51100000000E-03 0.  1.
        -12    1    4    4    0    0 -0.34928796815E+01  0.13452419409E+01  0.21484021744E+02  0.21807637988E+02  0.00000000000E+00 0.  1.
</event>
<event>
 8    1  0.4798632E-010  0.9118800E+02  0.7816164E-02  0.1184000E+00
        -11   -1    0    0    0    0  0.00000000000E+00  0.00000000000E+00  0.45593999997E+02  0.45594000000E+02  0.51100000000E-03 0. -1.
         11   -1    0    0    0    0 -0.00000000000E+00 -0.00000000000E+00 -0.45593999997E+02  0.45594000000E+02  0.51100000000E-03 0.  1.
         23    2    1    2    0    0  0.71054273576E-14  0.00000000000E+00  0.00000000000E+00  0.91188000000E+02  0.91188000000E+02 0.  0.
    9900012    2    3    3    0    0 -0.32971659241E+02  0.26723393266E+00 -0.28220936368E+02  0.47787274469E+02  0.20000015615E+02 0.  0.
         12    1    3    3    0    0  0.32971659241E+02 -0.26723393266E+00  0.28220936368E+02  0.43400725531E+02  0.00000000000E+00 0. -1.
         11    1    4    4    0    0 -0.24398665717E+00 -0.10625458367E+01 -0.17765640391E+01  0.20843975605E+01  0.51100000000E-03 0. -1.
        -11    1    4    4    0    0 -0.23547930822E+02 -0.73201468602E+01 -0.17759270759E+02  0.30388835025E+02  0.51100000000E-03 0.  1.
        -12    1    4    4    0    0 -0.91797417623E+01  0.86499266296E+01 -0.86851015699E+01  0.15314041883E+02  0.00000000000E+00 0.  1.
</event>
<event>
 8    1  0.4798632E-010  0.9118800E+02  0.7816164E-02  0.1184000E+00
        -11   -1    0    0    0    0  0.00000000000E+00  0.00000000000E+00  0.45593999997E+02  0.45594000000E+02  0.51100000000E-03 0. -1.
         11   -1    0    0    0    0 -0.00000000000E+00 -0.00000000000E+00 -0.45593999997E+02  0.45594000000E+02  0.51100000000E-03 0.  1.
         23    2    1    2    0    0  0.00000000000E+00  0.44408920985E-15 -0.71054273576E-14  0.91188000000E+02  0.91188000000E+02 0.  0.
    9900012    2    3    3    0    0  0.81638087047E+00 -0.19218754520E+01  0.43350521011E+02  0.47787219421E+02  0.19999764625E+02 0.  0.
        -12    1    3    3    0    0 -0.81638087047E+00  0.19218754520E+01 -0.43350521011E+02  0.43400780579E+02  0.00000000000E+00 0.  1.
         11    1    4    4    0    0  0.98824957900E+00 -0.35501116919E+01  0.37419880577E+02  0.37600896172E+02  0.51100000000E-03 0. -1.
        -11    1    4    4    0    0 -0.32899720937E+00  0.23642429944E+01  0.78074727545E+01  0.81642216514E+01  0.51100000000E-03 0.  1.
         12    1    4    4    0    0  0.15712850084E+00 -0.73600675451E+00 -0.18768323209E+01  0.20221015972E+01  0.00000000000E+00 0. -1.
</event>
<event>
 8    1  0.7115857E-010  0.9118800E+02  0.7816164E-02  0.1184000E+00
        -11   -1    0    0    0    0  0.00000000000E+00  0.00000000000E+00  0.45593999997E+02  0.45594000000E+02  0.51100000000E-03 0. -1.
         11   -1    0    0    0    0 -0.00000000000E+00 -0.00000000000E+00 -0.45593999997E+02  0.45594000000E+02  0.51100000000E-03 0.  1.
         23    2    1    2    0    0  0.00000000000E+00  0.88817841970E-15  0.00000000000E+00  0.91188000000E+02  0.91188000000E+02 0.  0.
    9900012    2    3    3    0    0 -0.22064257467E+02  0.64586007887E+01 -0.36811389668E+02  0.47787269695E+02  0.19999993847E+02 0.  0.
         12    1    3    3    0    0  0.22064257467E+02 -0.64586007887E+01  0.36811389668E+02  0.43400730305E+02  0.00000000000E+00 0. -1.
         11    1    4    4    0    0 -0.13233921824E+01 -0.35247119948E+01 -0.28057248761E+01  0.46954290385E+01  0.51100000000E-03 0. -1.
        -11    1    4    4    0    0 -0.20808529737E+02  0.73420995717E+01 -0.33898465418E+02  0.40447586997E+02  0.51100000000E-03 0.  1.
        -12    1    4    4    0    0  0.67664452273E-01  0.26412132118E+01 -0.10719937379E+00  0.26442536592E+01  0.00000000000E+00 0.  1.
</event>
<event>
 8    1  0.4798632E-010  0.9118800E+02  0.7816164E-02  0.1184000E+00
        -11   -1    0    0    0    0  0.00000000000E+00  0.00000000000E+00  0.45593999997E+02  0.45594000000E+02  0.51100000000E-03 0. -1.
         11   -1    0    0    0    0 -0.00000000000E+00 -0.00000000000E+00 -0.45593999997E+02  0.45594000000E+02  0.51100000000E-03 0.  1.
         23    2    1    2    0    0  0.00000000000E+00  0.00000000000E+00  0.00000000000E+00  0.91188000000E+02  0.91188000000E+02 0.  0.
    9900012    2    3    3    0    0  0.58665929556E+01  0.24572321881E+02  0.35290323569E+02  0.47787275892E+02  0.20000022101E+02 0.  0.
        -12    1    3    3    0    0 -0.58665929556E+01 -0.24572321881E+02 -0.35290323569E+02  0.43400724108E+02  0.00000000000E+00 0.  1.
         11    1    4    4    0    0  0.46602503440E+01  0.90141834554E+01  0.22473336301E+01  0.10393456852E+02  0.51100000000E-03 0. -1.
        -11    1    4    4    0    0 -0.22442385648E+01  0.12586519486E+02  0.21940972436E+02  0.25394159786E+02  0.51100000000E-03 0.  1.
         12    1    4    4    0    0  0.34505811763E+01  0.29716189390E+01  0.11102017503E+02  0.11999659254E+02  0.00000000000E+00 0. -1.
</event>
<event>
 8    1  0.4798632E-010  0.9118800E+02  0.7816164E-02  0.1184000E+00
        -11   -1    0    0    0    0  0.00000000000E+00  0.00000000000E+00  0.45593999997E+02  0.45594000000E+02  0.51100000000E-03 0. -1.
         11   -1    0    0    0    0 -0.00000000000E+00 -0.00000000000E+00 -0.45593999997E+02  0.45594000000E+02  0.51100000000E-03 0.  1.
         23    2    1    2    0    0  0.00000000000E+00 -0.35527136788E-14  0.00000000000E+00  0.91188000000E+02  0.91188000000E+02 0.  0.
    9900012    2    3    3    0    0 -0.99180536222E+01 -0.23693242138E+02 -0.34984077921E+02  0.47787271681E+02  0.20000002901E+02 0.  0.
         12    1    3    3    0    0  0.99180536222E+01  0.23693242138E+02  0.34984077921E+02  0.43400728319E+02  0.00000000000E+00 0. -1.
         11    1    4    4    0    0 -0.34827683631E+01  0.10962258421E+01 -0.50318144495E+00  0.36857263050E+01  0.51100000000E-03 0. -1.
        -11    1    4    4    0    0 -0.80627536074E+01 -0.23715543944E+02 -0.29197600561E+02  0.38469922005E+02  0.51100000000E-03 0.  1.
        -12    1    4    4    0    0  0.16274683483E+01 -0.10739240358E+01 -0.52832959157E+01  0.56316233709E+01  0.00000000000E+00 0.  1.
</event>
<event>
 8    1  0.4798632E-010  0.9118800E+02  0.7816164E-02  0.1184000E+00
        -11   -1    0    0    0    0  0.00000000000E+00  0.00000000000E+00  0.45593999997E+02  0.45594000000E+02  0.51100000000E-03 0. -1.
         11   -1    0    0    0    0 -0.00000000000E+00 -0.00000000000E+00 -0.45593999997E+02  0.45594000000E+02  0.51100000000E-03 0.  1.
         23    2    1    2    0    0  0.35527136788E-14  0.71054273576E-14  0.00000000000E+00  0.91188000000E+02  0.91188000000E+02 0.  0.
    9900012    2    3    3    0    0  0.18765511935E+02 -0.38891149527E+02 -0.43540007103E+01  0.47787271067E+02  0.20000000103E+02 0.  0.
         12    1    3    3    0    0 -0.18765511935E+02  0.38891149527E+02  0.43540007103E+01  0.43400728933E+02  0.00000000000E+00 0. -1.
         11    1    4    4    0    0 -0.32683428693E+01 -0.45987600893E+01  0.18457918380E+01  0.59361272932E+01  0.51100000000E-03 0. -1.
        -11    1    4    4    0    0  0.15809445670E+02 -0.29729303427E+02 -0.50209778220E+01  0.34043799335E+02  0.51100000000E-03 0.  1.
         12    1    4    4    0    0  0.62244091350E+01 -0.45630860111E+01 -0.11788147264E+01  0.78073444387E+01  0.00000000000E+00 0. -1.
</event>
<event>
 8    1  0.4798632E-010  0.9118800E+02  0.7816164E-02  0.1184000E+00
        -11   -1    0    0    0    0  0.00000000000E+00  0.00000000000E+00  0.45593999997E+02  0.45594000000E+02  0.51100000000E-03 0. -1.
         11   -1    0    0    0    0 -0.00000000000E+00 -0.00000000000E+00 -0.45593999997E+02  0.45594000000E+02  0.51100000000E-03 0.  1.
         23    2    1    2    0    0 -0.71054273576E-14 -0.35527136788E-14  0.00000000000E+00  0.91188000000E+02  0.91188000000E+02 0.  0.
    9900012    2    3    3    0    0 -0.30755166493E+02 -0.24145064445E+02  0.18835036397E+02  0.47787274210E+02  0.20000014432E+02 0.  0.
        -12    1    3    3    0    0  0.30755166493E+02  0.24145064445E+02 -0.18835036397E+02  0.43400725790E+02  0.00000000000E+00 0.  1.
         11    1    4    4    0    0 -0.89047129541E+01 -0.41659300591E+01 -0.17269061354E+01  0.99815375126E+01  0.51100000000E-03 0.  1.
        -11    1    4    4    0    0 -0.10998731111E+02 -0.61549066228E+01  0.14506700161E+02  0.19217161898E+02  0.51100000000E-03 0. -1.
        -12    1    4    4    0    0 -0.10851722427E+02 -0.13824227763E+02  0.60552423716E+01  0.18588574799E+02  0.00000000000E+00 0.  1.
</event>
<event>
 8    1  0.4798632E-010  0.9118800E+02  0.7816164E-02  0.1184000E+00
        -11   -1    0    0    0    0  0.00000000000E+00  0.00000000000E+00  0.45593999997E+02  0.45594000000E+02  0.51100000000E-03 0. -1.
         11   -1    0    0    0    0 -0.00000000000E+00 -0.00000000000E+00 -0.45593999997E+02  0.45594000000E+02  0.51100000000E-03 0.  1.
         23    2    1    2    0    0  0.00000000000E+00  0.00000000000E+00  0.00000000000E+00  0.91188000000E+02  0.91188000000E+02 0.  0.
    9900012    2    3    3    0    0 -0.49830048762E+01 -0.35664444244E+02  0.24224788958E+02  0.47787270503E+02  0.19999997531E+02 0.  0.
        -12    1    3    3    0    0  0.49830048762E+01  0.35664444244E+02 -0.24224788958E+02  0.43400729497E+02  0.00000000000E+00 0.  1.
         11    1    4    4    0    0 -0.71207876897E+01 -0.24024110290E+02  0.60801420063E+01  0.25784328954E+02  0.51100000000E-03 0. -1.
        -11    1    4    4    0    0  0.31323140265E+01 -0.10178347654E+02  0.16051119876E+02  0.19262621879E+02  0.51100000000E-03 0.  1.
         12    1    4    4    0    0 -0.99453121309E+00 -0.14619862996E+01  0.20935270754E+01  0.27403196692E+01  0.00000000000E+00 0. -1.
</event>
<event>
 8    1  0.4798632E-010  0.9118800E+02  0.7816164E-02  0.1184000E+00
        -11   -1    0    0    0    0  0.00000000000E+00  0.00000000000E+00  0.45593999997E+02  0.45594000000E+02  0.51100000000E-03 0. -1.
         11   -1    0    0    0    0 -0.00000000000E+00 -0.00000000000E+00 -0.45593999997E+02  0.45594000000E+02  0.51100000000E-03 0.  1.
         23    2    1    2    0    0  0.00000000000E+00  0.00000000000E+00  0.00000000000E+00  0.91188000000E+02  0.91188000000E+02 0.  0.
    9900012    2    3    3    0    0  0.11984666191E+02 -0.14223326601E+02 -0.39213377157E+02  0.47787260475E+02  0.19999951809E+02 0.  0.
         12    1    3    3    0    0 -0.11984666191E+02  0.14223326601E+02  0.39213377157E+02  0.43400739525E+02  0.00000000000E+00 0. -1.
         11    1    4    4    0    0  0.15726529748E+02 -0.48498376325E+01 -0.21018196073E+02  0.26694741605E+02  0.51100000000E-03 0. -1.
        -11    1    4    4    0    0 -0.26702274934E+01 -0.23490824068E+01 -0.57135136443E+01  0.67299733614E+01  0.51100000000E-03 0.  1.
         12    1    4    4    0    0 -0.10716360633E+01 -0.70244065618E+01 -0.12481667439E+02  0.14362545508E+02  0.00000000000E+00 0. -1.
</event>
<event>
 8    1  0.4798632E-010  0.9118800E+02  0.7816164E-02  0.1184000E+00
        -11   -1    0    0    0    0  0.00000000000E+00  0.00000000000E+00  0.45593999997E+02  0.45594000000E+02  0.51100000000E-03 0. -1.
         11   -1    0    0    0    0 -0.00000000000E+00 -0.00000000000E+00 -0.45593999997E+02  0.45594000000E+02  0.51100000000E-03 0.  1.
         23    2    1    2    0    0  0.00000000000E+00  0.35527136788E-14  0.00000000000E+00  0.91188000000E+02  0.91188000000E+02 0.  0.
    9900012    2    3    3    0    0 -0.70374792441E+01 -0.18948500698E+02 -0.38406393700E+02  0.47787275699E+02  0.20000021221E+02 0.  0.
         12    1    3    3    0    0  0.70374792441E+01  0.18948500698E+02  0.38406393700E+02  0.43400724301E+02  0.00000000000E+00 0. -1.
         11    1    4    4    0    0 -0.50145055824E+01  0.92133426545E+00 -0.29509755959E+01  0.58908726258E+01  0.51100000000E-03 0. -1.
        -11    1    4    4    0    0 -0.26354185750E+00 -0.96474641596E+01 -0.79622973937E+01  0.12511642541E+02  0.51100000000E-03 0.  1.
         12    1    4    4    0    0 -0.17594318042E+01 -0.10222370804E+02 -0.27493120711E+02  0.29384760532E+02  0.00000000000E+00 0. -1.
</event>
<event>
 8    1  0.4798632E-010  0.9118800E+02  0.7816164E-02  0.1184000E+00
        -11   -1    0    0    0    0  0.00000000000E+00  0.00000000000E+00  0.45593999997E+02  0.45594000000E+02  0.51100000000E-03 0. -1.
         11   -1    0    0    0    0 -0.00000000000E+00 -0.00000000000E+00 -0.45593999997E+02  0.45594000000E+02  0.51100000000E-03 0.  1.
         23    2    1    2    0    0  0.35527136788E-14 -0.35527136788E-14 -0.35527136788E-14  0.91188000000E+02  0.91188000000E+02 0.  0.
    9900012    2    3    3    0    0 -0.17930979908E+02  0.23368728200E+02  0.31874840320E+02  0.47787274850E+02  0.20000017350E+02 0.  0.
        -12    1    3    3    0    0  0.17930979908E+02 -0.23368728200E+02 -0.31874840320E+02  0.43400725150E+02  0.00000000000E+00 0.  1.
         11    1    4    4    0    0 -0.69563851906E+01  0.68413709264E+01  0.83801058993E+01  0.12861641661E+02  0.51100000000E-03 0. -1.
        -11    1    4    4    0    0 -0.11216708765E+02  0.19501020299E+02  0.18585484099E+02  0.29180893881E+02  0.51100000000E-03 0.  1.
        -12    1    4    4    0    0  0.24211404732E+00 -0.29736630254E+01  0.49092503214E+01  0.57447393082E+01  0.00000000000E+00 0.  1.
</event>
<event>
 8    1  0.4798632E-010  0.9118800E+02  0.7816164E-02  0.1184000E+00
        -11   -1    0    0    0    0  0.00000000000E+00  0.00000000000E+00  0.45593999997E+02  0.45594000000E+02  0.51100000000E-03 0. -1.
         11   -1    0    0    0    0 -0.00000000000E+00 -0.00000000000E+00 -0.45593999997E+02  0.45594000000E+02  0.51100000000E-03 0.  1.
         23    2    1    2    0    0  0.00000000000E+00  0.00000000000E+00  0.00000000000E+00  0.91188000000E+02  0.91188000000E+02 0.  0.
    9900012    2    3    3    0    0 -0.20210722532E+02  0.89108456431E+01  0.37359694868E+02  0.47787271020E+02  0.19999999890E+02 0.  0.
        -12    1    3    3    0    0  0.20210722532E+02 -0.89108456431E+01 -0.37359694868E+02  0.43400728980E+02  0.00000000000E+00 0.  1.
         11    1    4    4    0    0 -0.27117116791E+01  0.13936048154E+01 -0.18705790193E+01  0.35769513193E+01  0.51100000000E-03 0. -1.
        -11    1    4    4    0    0 -0.17723168889E+01 -0.20642688508E+00  0.76265754222E+00  0.19404551017E+01  0.51100000000E-03 0.  1.
         12    1    4    4    0    0 -0.15726693964E+02  0.77236677128E+01  0.38467616345E+02  0.42269864599E+02  0.00000000000E+00 0. -1.
</event>
<event>
 8    1  0.4798632E-010  0.9118800E+02  0.7816164E-02  0.1184000E+00
        -11   -1    0    0    0    0  0.00000000000E+00  0.00000000000E+00  0.45593999997E+02  0.45594000000E+02  0.51100000000E-03 0. -1.
         11   -1    0    0    0    0 -0.00000000000E+00 -0.00000000000E+00 -0.45593999997E+02  0.45594000000E+02  0.51100000000E-03 0.  1.
         23    2    1    2    0    0  0.00000000000E+00 -0.71054273576E-14  0.00000000000E+00  0.91188000000E+02  0.91188000000E+02 0.  0.
    9900012    2    3    3    0    0 -0.17188275160E+02  0.32927176944E+02  0.22449666944E+02  0.47787270394E+02  0.19999997033E+02 0.  0.
        -12    1    3    3    0    0  0.17188275160E+02 -0.32927176944E+02 -0.22449666944E+02  0.43400729606E+02  0.00000000000E+00 0.  1.
         11    1    4    4    0    0  0.28235851903E+01  0.19731148813E+01  0.60722891620E+01  0.69812972712E+01  0.51100000000E-03 0. -1.
        -11    1    4    4    0    0 -0.14234120188E-01  0.29730803443E+01  0.10551641580E+01  0.31548028473E+01  0.51100000000E-03 0.  1.
         12    1    4    4    0    0 -0.19997626230E+02  0.27980981718E+02  0.15322213624E+02  0.37651170275E+02  0.00000000000E+00 0. -1.
</event>
<event>
 8    1  0.4798632E-010  0.9118800E+02  0.7816164E-02  0.1184000E+00
        -11   -1    0    0    0    0  0.00000000000E+00  0.00000000000E+00  0.45593999997E+02  0.45594000000E+02  0.51100000000E-03 0. -1.
         11   -1    0    0    0    0 -0.00000000000E+00 -0.00000000000E+00 -0.45593999997E+02  0.45594000000E+02  0.51100000000E-03 0.  1.
         23    2    1    2    0    0 -0.35527136788E-14  0.00000000000E+00  0.71054273576E-14  0.91188000000E+02  0.91188000000E+02 0.  0.
    9900012    2    3    3    0    0 -0.22098256345E+02  0.19235923213E+02  0.32019829239E+02  0.47787272588E+02  0.20000007037E+02 0.  0.
        -12    1    3    3    0    0  0.22098256345E+02 -0.19235923213E+02 -0.32019829239E+02  0.43400727412E+02  0.00000000000E+00 0.  1.
         11    1    4    4    0    0 -0.14517941843E+02  0.76149475282E+01  0.72846741903E+01  0.17939468764E+02  0.51100000000E-03 0. -1.
        -11    1    4    4    0    0 -0.67992668135E+01  0.70818659955E+01  0.22852506634E+02  0.24872070981E+02  0.51100000000E-03 0.  1.
        -12    1    4    4    0    0 -0.78104768887E+00  0.45391096896E+01  0.18826484153E+01  0.49757328427E+01  0.00000000000E+00 0.  1.
</event>
<event>
 8    1  0.4798632E-010  0.9118800E+02  0.7816164E-02  0.1184000E+00
        -11   -1    0    0    0    0  0.00000000000E+00  0.00000000000E+00  0.45593999997E+02  0.45594000000E+02  0.51100000000E-03 0. -1.
         11   -1    0    0    0    0 -0.00000000000E+00 -0.00000000000E+00 -0.45593999997E+02  0.45594000000E+02  0.51100000000E-03 0.  1.
         23    2    1    2    0    0 -0.35527136788E-14  0.00000000000E+00 -0.35527136788E-14  0.91188000000E+02  0.91188000000E+02 0.  0.
    9900012    2    3    3    0    0 -0.13097056485E+02  0.37345604581E+02 -0.17815617235E+02  0.47787270887E+02  0.19999999284E+02 0.  0.
         12    1    3    3    0    0  0.13097056485E+02 -0.37345604581E+02  0.17815617235E+02  0.43400729113E+02  0.00000000000E+00 0. -1.
         11    1    4    4    0    0  0.13568193847E+00  0.19694118838E+02 -0.52617674791E+01  0.20385360523E+02  0.51100000000E-03 0. -1.
        -11    1    4    4    0    0 -0.71429518891E+01  0.27876487377E+01 -0.70671578090E+01  0.10427725875E+02  0.51100000000E-03 0.  1.
         12    1    4    4    0    0 -0.60897865344E+01  0.14863837005E+02 -0.54866919465E+01  0.16974184488E+02  0.00000000000E+00 0. -1.
</event>
<event>
 8    1  0.4798632E-010  0.9118800E+02  0.7816164E-02  0.1184000E+00
        -11   -1    0    0    0    0  0.00000000000E+00  0.00000000000E+00  0.45593999997E+02  0.45594000000E+02  0.51100000000E-03 0. -1.
         11   -1    0    0    0    0 -0.00000000000E+00 -0.00000000000E+00 -0.45593999997E+02  0.45594000000E+02  0.51100000000E-03 0.  1.
         23    2    1    2    0    0  0.35527136788E-14  0.35527136788E-14  0.00000000000E+00  0.91188000000E+02  0.91188000000E+02 0.  0.
    9900012    2    3    3    0    0  0.20155774115E+02  0.18453000309E+02 -0.33717283574E+02  0.47787266571E+02  0.19999979605E+02 0.  0.
         12    1    3    3    0    0 -0.20155774115E+02 -0.18453000309E+02  0.33717283574E+02  0.43400733429E+02  0.00000000000E+00 0. -1.
         11    1    4    4    0    0  0.28622984979E+01  0.10083839808E+02 -0.99723413893E+01  0.14468039639E+02  0.51100000000E-03 0. -1.
        -11    1    4    4    0    0  0.13035686295E+02  0.30365196537E+00 -0.18984782744E+02  0.23031354667E+02  0.51100000000E-03 0.  1.
        -12    1    4    4    0    0  0.42577893221E+01  0.80655085355E+01 -0.47601594405E+01  0.10287872265E+02  0.00000000000E+00 0.  1.
</event>
<event>
 8    1  0.4798632E-010  0.9118800E+02  0.7816164E-02  0.1184000E+00
        -11   -1    0    0    0    0  0.00000000000E+00  0.00000000000E+00  0.45593999997E+02  0.45594000000E+02  0.51100000000E-03 0. -1.
         11   -1    0    0    0    0 -0.00000000000E+00 -0.00000000000E+00 -0.45593999997E+02  0.45594000000E+02  0.51100000000E-03 0.  1.
         23    2    1    2    0    0  0.00000000000E+00  0.00000000000E+00  0.00000000000E+00  0.91188000000E+02  0.91188000000E+02 0.  0.
    9900012    2    3    3    0    0 -0.16908554737E+02  0.22769429777E+02  0.32852354324E+02  0.47787270279E+02  0.19999996511E+02 0.  0.
        -12    1    3    3    0    0  0.16908554737E+02 -0.22769429777E+02 -0.32852354324E+02  0.43400729721E+02  0.00000000000E+00 0.  1.
         11    1    4    4    0    0 -0.82946871705E+01  0.21532329552E+02  0.18664342322E+02  0.29678287110E+02  0.51100000000E-03 0. -1.
        -11    1    4    4    0    0 -0.11208589180E+01  0.10375813095E+01 -0.50976610989E+00  0.16102054017E+01  0.51100000000E-03 0.  1.
         12    1    4    4    0    0 -0.74930086484E+01  0.19951891536E+00  0.14697778112E+02  0.16498777767E+02  0.00000000000E+00 0. -1.
</event>
<event>
 8    1  0.4798632E-010  0.9118800E+02  0.7816164E-02  0.1184000E+00
        -11   -1    0    0    0    0  0.00000000000E+00  0.00000000000E+00  0.45593999997E+02  0.45594000000E+02  0.51100000000E-03 0. -1.
         11   -1    0    0    0    0 -0.00000000000E+00 -0.00000000000E+00 -0.45593999997E+02  0.45594000000E+02  0.51100000000E-03 0.  1.
         23    2    1    2    0    0  0.00000000000E+00 -0.88817841970E-15  0.00000000000E+00  0.91188000000E+02  0.91188000000E+02 0.  0.
    9900012    2    3    3    0    0  0.20809028519E+02  0.78725017745E+01  0.37264342465E+02  0.47787272225E+02  0.20000005382E+02 0.  0.
        -12    1    3    3    0    0 -0.20809028519E+02 -0.78725017745E+01 -0.37264342465E+02  0.43400727775E+02  0.00000000000E+00 0.  1.
         11    1    4    4    0    0  0.15590170068E+02  0.10191461851E+02  0.19438820613E+02  0.26921869260E+02  0.51100000000E-03 0. -1.
        -11    1    4    4    0    0 -0.15901619491E+01  0.16694367100E+01  0.76425299509E+01  0.79827249899E+01  0.51100000000E-03 0.  1.
         12    1    4    4    0    0  0.68090204001E+01 -0.39883967868E+01  0.10182991901E+02  0.12882677975E+02  0.00000000000E+00 0. -1.
</event>
<event>
 8    1  0.4798632E-010  0.9118800E+02  0.7816164E-02  0.1184000E+00
        -11   -1    0    0    0    0  0.00000000000E+00  0.00000000000E+00  0.45593999997E+02  0.45594000000E+02  0.51100000000E-03 0. -1.
         11   -1    0    0    0    0 -0.00000000000E+00 -0.00000000000E+00 -0.45593999997E+02  0.45594000000E+02  0.51100000000E-03 0.  1.
         23    2    1    2    0    0  0.00000000000E+00  0.00000000000E+00  0.00000000000E+00  0.91188000000E+02  0.91188000000E+02 0.  0.
    9900012    2    3    3    0    0 -0.90381643884E+01  0.17391538991E+02  0.38722981181E+02  0.47787270564E+02  0.19999997811E+02 0.  0.
        -12    1    3    3    0    0  0.90381643884E+01 -0.17391538991E+02 -0.38722981181E+02  0.43400729436E+02  0.00000000000E+00 0.  1.
         11    1    4    4    0    0 -0.12319389946E+02  0.18512254138E+02  0.37227823181E+02  0.43363368654E+02  0.51100000000E-03 0. -1.
        -11    1    4    4    0    0  0.77837376771E+00 -0.51288259499E+00 -0.59588666086E+00  0.11063432796E+01  0.51100000000E-03 0.  1.
         12    1    4    4    0    0  0.25028517903E+01 -0.60783255241E+00  0.20910446608E+01  0.33175586309E+01  0.00000000000E+00 0. -1.
</event>
<event>
 8    1  0.4798632E-010  0.9118800E+02  0.7816164E-02  0.1184000E+00
        -11   -1    0    0    0    0  0.00000000000E+00  0.00000000000E+00  0.45593999997E+02  0.45594000000E+02  0.51100000000E-03 0.  1.
         11   -1    0    0    0    0 -0.00000000000E+00 -0.00000000000E+00 -0.45593999997E+02  0.45594000000E+02  0.51100000000E-03 0. -1.
         23    2    1    2    0    0  0.00000000000E+00  0.00000000000E+00  0.00000000000E+00  0.91188000000E+02  0.91188000000E+02 0.  0.
    9900012    2    3    3    0    0  0.24954148736E+02 -0.34490045295E+02 -0.84469136531E+01  0.47787272888E+02  0.20000008404E+02 0.  0.
         12    1    3    3    0    0 -0.24954148736E+02  0.34490045295E+02  0.84469136531E+01  0.43400727112E+02  0.00000000000E+00 0. -1.
         11    1    4    4    0    0  0.17027668287E+00 -0.87925372004E+01 -0.32961509630E+00  0.88003608416E+01  0.51100000000E-03 0. -1.
        -11    1    4    4    0    0  0.23243740214E+02 -0.27304450501E+02 -0.71701712084E+01  0.36567961821E+02  0.51100000000E-03 0.  1.
        -12    1    4    4    0    0  0.15401318395E+01  0.16069424062E+01 -0.94712734834E+00  0.24189502256E+01  0.00000000000E+00 0.  1.
</event>
<event>
 8    1  0.4798632E-010  0.9118800E+02  0.7816164E-02  0.1184000E+00
        -11   -1    0    0    0    0  0.00000000000E+00  0.00000000000E+00  0.45593999997E+02  0.45594000000E+02  0.51100000000E-03 0. -1.
         11   -1    0    0    0    0 -0.00000000000E+00 -0.00000000000E+00 -0.45593999997E+02  0.45594000000E+02  0.51100000000E-03 0.  1.
         23    2    1    2    0    0  0.88817841970E-15  0.00000000000E+00  0.35527136788E-14  0.91188000000E+02  0.91188000000E+02 0.  0.
    9900012    2    3    3    0    0  0.46610343001E+01 -0.34873473335E+02  0.25411391696E+02  0.47787271768E+02  0.20000003297E+02 0.  0.
        -12    1    3    3    0    0 -0.46610343001E+01  0.34873473335E+02 -0.25411391696E+02  0.43400728232E+02  0.00000000000E+00 0.  1.
         11    1    4    4    0    0  0.79857390182E+01 -0.30275184061E+02  0.25314924679E+02  0.40264180227E+02  0.51100000000E-03 0. -1.
        -11    1    4    4    0    0 -0.54647035634E+00  0.10514897021E+01 -0.27401090799E+00  0.12162823203E+01  0.51100000000E-03 0.  1.
         12    1    4    4    0    0 -0.27782343617E+01 -0.56497789762E+01  0.37047792483E+00  0.63068092203E+01  0.00000000000E+00 0. -1.
</event>
<event>
 8    1  0.4798632E-010  0.9118800E+02  0.7816164E-02  0.1184000E+00
        -11   -1    0    0    0    0  0.00000000000E+00  0.00000000000E+00  0.45593999997E+02  0.45594000000E+02  0.51100000000E-03 0. -1.
         11   -1    0    0    0    0 -0.00000000000E+00 -0.00000000000E+00 -0.45593999997E+02  0.45594000000E+02  0.51100000000E-03 0.  1.
         23    2    1    2    0    0 -0.35527136788E-14  0.88817841970E-15 -0.71054273576E-14  0.91188000000E+02  0.91188000000E+02 0.  0.
    9900012    2    3    3    0    0 -0.21205917849E+02  0.42299976688E+01 -0.37630356118E+02  0.47787221969E+02  0.19999776246E+02 0.  0.
         12    1    3    3    0    0  0.21205917849E+02 -0.42299976688E+01  0.37630356118E+02  0.43400778031E+02  0.00000000000E+00 0. -1.
         11    1    4    4    0    0  0.21269778449E+01  0.51720163569E+01 -0.57476002545E+01  0.80192703468E+01  0.51100000000E-03 0. -1.
        -11    1    4    4    0    0 -0.13030310942E+02 -0.12987536874E+01 -0.21231634321E+02  0.24945100934E+02  0.51100000000E-03 0.  1.
         12    1    4    4    0    0 -0.10302584752E+02  0.35673499924E+00 -0.10651121543E+02  0.14822850689E+02  0.00000000000E+00 0. -1.
</event>
<event>
 8    1  0.4798632E-010  0.9118800E+02  0.7816164E-02  0.1184000E+00
        -11   -1    0    0    0    0  0.00000000000E+00  0.00000000000E+00  0.45593999997E+02  0.45594000000E+02  0.51100000000E-03 0. -1.
         11   -1    0    0    0    0 -0.00000000000E+00 -0.00000000000E+00 -0.45593999997E+02  0.45594000000E+02  0.51100000000E-03 0.  1.
         23    2    1    2    0    0  0.00000000000E+00  0.17763568394E-14  0.17763568394E-14  0.91188000000E+02  0.91188000000E+02 0.  0.
    9900012    2    3    3    0    0  0.40761080629E+02  0.11205302484E+02 -0.98284662066E+01  0.47787271368E+02  0.20000001475E+02 0.  0.
         12    1    3    3    0    0 -0.40761080629E+02 -0.11205302484E+02  0.98284662066E+01  0.43400728632E+02  0.00000000000E+00 0. -1.
         11    1    4    4    0    0  0.61844325017E+01  0.65921913133E+01  0.29169160185E+01  0.94980309011E+01  0.51100000000E-03 0. -1.
        -11    1    4    4    0    0  0.27338058809E+02  0.70061886602E+01 -0.80975798239E+01  0.29360295268E+02  0.51100000000E-03 0.  1.
         12    1    4    4    0    0  0.72385893190E+01 -0.23930774894E+01 -0.46478024013E+01  0.89289451986E+01  0.00000000000E+00 0. -1.
</event>
<event>
 8    1  0.4798632E-010  0.9118800E+02  0.7816164E-02  0.1184000E+00
        -11   -1    0    0    0    0  0.00000000000E+00  0.00000000000E+00  0.45593999997E+02  0.45594000000E+02  0.51100000000E-03 0. -1.
         11   -1    0    0    0    0 -0.00000000000E+00 -0.00000000000E+00 -0.45593999997E+02  0.45594000000E+02  0.51100000000E-03 0.  1.
         23    2    1    2    0    0 -0.35527136788E-14  0.00000000000E+00  0.35527136788E-14  0.91188000000E+02  0.91188000000E+02 0.  0.
    9900012    2    3    3    0    0  0.31980649915E+02 -0.92881052254E+01  0.27831503199E+02  0.47787269154E+02  0.19999991379E+02 0.  0.
        -12    1    3    3    0    0 -0.31980649915E+02  0.92881052254E+01 -0.27831503199E+02  0.43400730846E+02  0.00000000000E+00 0.  1.
         11    1    4    4    0    0  0.13123182975E+02 -0.94318058898E+00  0.13816753358E+02  0.19079051199E+02  0.51100000000E-03 0. -1.
        -11    1    4    4    0    0  0.12053611739E+02 -0.33143927579E+01  0.19349814034E+00  0.12502487636E+02  0.51100000000E-03 0.  1.
        -12    1    4    4    0    0  0.68038552013E+01 -0.50305318785E+01  0.13821251701E+02  0.16205730319E+02  0.00000000000E+00 0.  1.
</event>
<event>
 8    1  0.4798632E-010  0.9118800E+02  0.7816164E-02  0.1184000E+00
        -11   -1    0    0    0    0  0.00000000000E+00  0.00000000000E+00  0.45593999997E+02  0.45594000000E+02  0.51100000000E-03 0. -1.
         11   -1    0    0    0    0 -0.00000000000E+00 -0.00000000000E+00 -0.45593999997E+02  0.45594000000E+02  0.51100000000E-03 0.  1.
         23    2    1    2    0    0  0.00000000000E+00  0.44408920985E-15  0.00000000000E+00  0.91188000000E+02  0.91188000000E+02 0.  0.
    9900012    2    3    3    0    0  0.26407793738E+02 -0.36357172676E+01  0.34249571252E+02  0.47787272574E+02  0.20000006974E+02 0.  0.
        -12    1    3    3    0    0 -0.26407793738E+02  0.36357172676E+01 -0.34249571252E+02  0.43400727426E+02  0.00000000000E+00 0.  1.
         11    1    4    4    0    0  0.65694637377E+01 -0.19986018503E+01  0.57420640150E+01  0.89511766026E+01  0.51100000000E-03 0. -1.
        -11    1    4    4    0    0  0.15580510614E+02  0.66867029637E+01  0.17007364332E+02  0.24014885994E+02  0.51100000000E-03 0.  1.
        -12    1    4    4    0    0  0.42578193862E+01 -0.83238183810E+01  0.11500142905E+02  0.14821209978E+02  0.00000000000E+00 0.  1.
</event>
<event>
 8    1  0.4798632E-010  0.9118800E+02  0.7816164E-02  0.1184000E+00
        -11   -1    0    0    0    0  0.00000000000E+00  0.00000000000E+00  0.45593999997E+02  0.45594000000E+02  0.51100000000E-03 0. -1.
         11   -1    0    0    0    0 -0.00000000000E+00 -0.00000000000E+00 -0.45593999997E+02  0.45594000000E+02  0.51100000000E-03 0.  1.
         23    2    1    2    0    0  0.35527136788E-14  0.00000000000E+00  0.00000000000E+00  0.91188000000E+02  0.91188000000E+02 0.  0.
    9900012    2    3    3    0    0 -0.17016077857E+02  0.23200682633E+02 -0.32493148909E+02  0.47787270671E+02  0.19999998297E+02 0.  0.
         12    1    3    3    0    0  0.17016077857E+02 -0.23200682633E+02  0.32493148909E+02  0.43400729329E+02  0.00000000000E+00 0. -1.
         11    1    4    4    0    0  0.57383904295E+00  0.93821037520E+01 -0.18847986800E+02  0.21061808297E+02  0.51100000000E-03 0. -1.
        -11    1    4    4    0    0 -0.16565887156E+02  0.13671518506E+02 -0.11546499221E+02  0.24385665462E+02  0.51100000000E-03 0.  1.
         12    1    4    4    0    0 -0.10240297445E+01  0.14706037547E+00 -0.20986628875E+01  0.23397969115E+01  0.00000000000E+00 0. -1.
</event>
<event>
 8    1  0.4798632E-010  0.9118800E+02  0.7816164E-02  0.1184000E+00
        -11   -1    0    0    0    0  0.00000000000E+00  0.00000000000E+00  0.45593999997E+02  0.45594000000E+02  0.51100000000E-03 0. -1.
         11   -1    0    0    0    0 -0.00000000000E+00 -0.00000000000E+00 -0.45593999997E+02  0.45594000000E+02  0.51100000000E-03 0.  1.
         23    2    1    2    0    0 -0.71054273576E-14 -0.17763568394E-14 -0.71054273576E-14  0.91188000000E+02  0.91188000000E+02 0.  0.
    9900012    2    3    3    0    0  0.27828489341E+02  0.86395670289E+01  0.32164516838E+02  0.47787273268E+02  0.20000010140E+02 0.  0.
        -12    1    3    3    0    0 -0.27828489341E+02 -0.86395670289E+01 -0.32164516838E+02  0.43400726732E+02  0.00000000000E+00 0.  1.
         11    1    4    4    0    0  0.47076319618E+01 -0.30238661302E+01  0.14886213915E+02  0.15902984942E+02  0.51100000000E-03 0. -1.
        -11    1    4    4    0    0  0.18730267489E+02  0.64103308885E+01  0.11298170931E+02  0.22793945006E+02  0.51100000000E-03 0.  1.
         12    1    4    4    0    0  0.43905898901E+01  0.52531022706E+01  0.59801319913E+01  0.90903433203E+01  0.00000000000E+00 0. -1.
</event>
<event>
 8    1  0.4798632E-010  0.9118800E+02  0.7816164E-02  0.1184000E+00
        -11   -1    0    0    0    0  0.00000000000E+00  0.00000000000E+00  0.45593999997E+02  0.45594000000E+02  0.51100000000E-03 0. -1.
         11   -1    0    0    0    0 -0.00000000000E+00 -0.00000000000E+00 -0.45593999997E+02  0.45594000000E+02  0.51100000000E-03 0.  1.
         23    2    1    2    0    0 -0.44408920985E-15  0.00000000000E+00  0.00000000000E+00  0.91188000000E+02  0.91188000000E+02 0.  0.
    9900012    2    3    3    0    0  0.37550797996E+01 -0.37969765715E+02 -0.20683791032E+02  0.47787274842E+02  0.20000017316E+02 0.  0.
         12    1    3    3    0    0 -0.37550797996E+01  0.37969765715E+02  0.20683791032E+02  0.43400725158E+02  0.00000000000E+00 0. -1.
         11    1    4    4    0    0 -0.17898658312E+01 -0.13971178363E+02  0.86549496107E-01  0.14085628691E+02  0.51100000000E-03 0. -1.
        -11    1    4    4    0    0  0.71392851896E+01 -0.23151541322E+02 -0.17235879981E+02  0.29732790276E+02  0.51100000000E-03 0.  1.
        -12    1    4    4    0    0 -0.15943395588E+01 -0.84704603068E+00 -0.35344605465E+01  0.39688558756E+01  0.00000000000E+00 0.  1.
</event>
<event>
 8    1  0.4798632E-010  0.9118800E+02  0.7816164E-02  0.1184000E+00
        -11   -1    0    0    0    0  0.00000000000E+00  0.00000000000E+00  0.45593999997E+02  0.45594000000E+02  0.51100000000E-03 0. -1.
         11   -1    0    0    0    0 -0.00000000000E+00 -0.00000000000E+00 -0.45593999997E+02  0.45594000000E+02  0.51100000000E-03 0.  1.
         23    2    1    2    0    0  0.00000000000E+00 -0.17763568394E-14 -0.71054273576E-14  0.91188000000E+02  0.91188000000E+02 0.  0.
    9900012    2    3    3    0    0 -0.29460396177E+01 -0.10902794331E+02 -0.41905523974E+02  0.47787274048E+02  0.20000013695E+02 0.  0.
         12    1    3    3    0    0  0.29460396177E+01  0.10902794331E+02  0.41905523974E+02  0.43400725952E+02  0.00000000000E+00 0. -1.
         11    1    4    4    0    0 -0.38225582321E+01 -0.31147224568E+01  0.15451123863E+00  0.49332870791E+01  0.51100000000E-03 0. -1.
        -11    1    4    4    0    0  0.16254722796E+01 -0.63842534481E+01 -0.32284142683E+02  0.32949457071E+02  0.51100000000E-03 0.  1.
         12    1    4    4    0    0 -0.74895366514E+00 -0.14038184258E+01 -0.97758925289E+01  0.99045298981E+01  0.00000000000E+00 0. -1.
</event>
<event>
 8    1  0.4798632E-010  0.9118800E+02  0.7816164E-02  0.1184000E+00
        -11   -1    0    0    0    0  0.00000000000E+00  0.00000000000E+00  0.45593999997E+02  0.45594000000E+02  0.51100000000E-03 0. -1.
         11   -1    0    0    0    0 -0.00000000000E+00 -0.00000000000E+00 -0.45593999997E+02  0.45594000000E+02  0.51100000000E-03 0.  1.
         23    2    1    2    0    0  0.00000000000E+00  0.00000000000E+00  0.00000000000E+00  0.91188000000E+02  0.91188000000E+02 0.  0.
    9900012    2    3    3    0    0 -0.52039361870E+01  0.11059288872E+02  0.41644140339E+02  0.47787271356E+02  0.20000001423E+02 0.  0.
        -12    1    3    3    0    0  0.52039361870E+01 -0.11059288872E+02 -0.41644140339E+02  0.43400728644E+02  0.00000000000E+00 0.  1.
         11    1    4    4    0    0 -0.21625723218E+01 -0.34652277416E+01  0.13936442566E+02  0.14522704775E+02  0.51100000000E-03 0. -1.
        -11    1    4    4    0    0 -0.63166605363E+01  0.13606503359E+02  0.22857197821E+02  0.27340238230E+02  0.51100000000E-03 0.  1.
        -12    1    4    4    0    0  0.32752966711E+01  0.91801325494E+00  0.48504999530E+01  0.59243283513E+01  0.00000000000E+00 0.  1.
</event>
<event>
 8    1  0.4798632E-010  0.9118800E+02  0.7816164E-02  0.1184000E+00
        -11   -1    0    0    0    0  0.00000000000E+00  0.00000000000E+00  0.45593999997E+02  0.45594000000E+02  0.51100000000E-03 0. -1.
         11   -1    0    0    0    0 -0.00000000000E+00 -0.00000000000E+00 -0.45593999997E+02  0.45594000000E+02  0.51100000000E-03 0.  1.
         23    2    1    2    0    0  0.00000000000E+00  0.00000000000E+00  0.00000000000E+00  0.91188000000E+02  0.91188000000E+02 0.  0.
    9900012    2    3    3    0    0 -0.70788963339E+01 -0.27748233184E+02 -0.32612083383E+02  0.47787271887E+02  0.20000003842E+02 0.  0.
         12    1    3    3    0    0  0.70788963339E+01  0.27748233184E+02  0.32612083383E+02  0.43400728113E+02  0.00000000000E+00 0. -1.
         11    1    4    4    0    0 -0.62810864713E+01 -0.14737885541E+02 -0.68897363768E+01  0.17439202535E+02  0.51100000000E-03 0. -1.
        -11    1    4    4    0    0  0.56432579966E+00 -0.67754072496E+01 -0.44176990719E+01  0.81080621826E+01  0.51100000000E-03 0.  1.
         12    1    4    4    0    0 -0.13621356622E+01 -0.62349403942E+01 -0.21304647934E+02  0.22240007169E+02  0.00000000000E+00 0. -1.
</event>
<event>
 8    1  0.4798632E-010  0.9118800E+02  0.7816164E-02  0.1184000E+00
        -11   -1    0    0    0    0  0.00000000000E+00  0.00000000000E+00  0.45593999997E+02  0.45594000000E+02  0.51100000000E-03 0. -1.
         11   -1    0    0    0    0 -0.00000000000E+00 -0.00000000000E+00 -0.45593999997E+02  0.45594000000E+02  0.51100000000E-03 0.  1.
         23    2    1    2    0    0  0.00000000000E+00  0.00000000000E+00  0.00000000000E+00  0.91188000000E+02  0.91188000000E+02 0.  0.
    9900012    2    3    3    0    0  0.56535210295E+01  0.11828609173E+02  0.41373247788E+02  0.47787263514E+02  0.19999965666E+02 0.  0.
        -12    1    3    3    0    0 -0.56535210295E+01 -0.11828609173E+02 -0.41373247788E+02  0.43400736486E+02  0.00000000000E+00 0.  1.
         11    1    4    4    0    0  0.11807297474E+02  0.71425462355E+01  0.29394428957E+02  0.32472460553E+02  0.51100000000E-03 0. -1.
        -11    1    4    4    0    0 -0.35981890653E+01  0.36470186226E+01  0.30340137233E+01  0.59542378956E+01  0.51100000000E-03 0.  1.
         12    1    4    4    0    0 -0.25555873790E+01  0.10390443152E+01  0.89448051073E+01  0.93605650656E+01  0.00000000000E+00 0. -1.
</event>
<event>
 8    1  0.4798632E-010  0.9118800E+02  0.7816164E-02  0.1184000E+00
        -11   -1    0    0    0    0  0.00000000000E+00  0.00000000000E+00  0.45593999997E+02  0.45594000000E+02  0.51100000000E-03 0. -1.
         11   -1    0    0    0    0 -0.00000000000E+00 -0.00000000000E+00 -0.45593999997E+02  0.45594000000E+02  0.51100000000E-03 0.  1.
         23    2    1    2    0    0 -0.35527136788E-14 -0.35527136788E-14  0.00000000000E+00  0.91188000000E+02  0.91188000000E+02 0.  0.
    9900012    2    3    3    0    0 -0.28570634168E+02  0.23303578546E+02  0.22897281701E+02  0.47787269371E+02  0.19999992371E+02 0.  0.
        -12    1    3    3    0    0  0.28570634168E+02 -0.23303578546E+02 -0.22897281701E+02  0.43400730629E+02  0.00000000000E+00 0.  1.
         11    1    4    4    0    0 -0.13473973714E+01 -0.48089153653E+00  0.74068842785E+01  0.75437836211E+01  0.51100000000E-03 0. -1.
        -11    1    4    4    0    0 -0.13964291840E+02  0.16836147683E+02  0.66661806320E+01  0.22866903592E+02  0.51100000000E-03 0.  1.
         12    1    4    4    0    0 -0.13258944957E+02  0.69483223994E+01  0.88242167903E+01  0.17376582158E+02  0.00000000000E+00 0. -1.
</event>
<event>
 8    1  0.4798632E-010  0.9118800E+02  0.7816164E-02  0.1184000E+00
        -11   -1    0    0    0    0  0.00000000000E+00  0.00000000000E+00  0.45593999997E+02  0.45594000000E+02  0.51100000000E-03 0. -1.
         11   -1    0    0    0    0 -0.00000000000E+00 -0.00000000000E+00 -0.45593999997E+02  0.45594000000E+02  0.51100000000E-03 0.  1.
         23    2    1    2    0    0  0.00000000000E+00  0.00000000000E+00  0.00000000000E+00  0.91188000000E+02  0.91188000000E+02 0.  0.
    9900012    2    3    3    0    0  0.23423359613E+02  0.52862594822E+01 -0.36152801489E+02  0.47787269933E+02  0.19999994930E+02 0.  0.
         12    1    3    3    0    0 -0.23423359613E+02 -0.52862594822E+01  0.36152801489E+02  0.43400730067E+02  0.00000000000E+00 0. -1.
         11    1    4    4    0    0  0.99540661804E+01  0.32936874817E+01 -0.27082870246E+02  0.29041585215E+02  0.51100000000E-03 0. -1.
        -11    1    4    4    0    0  0.82186033790E+01  0.26083986409E+01 -0.10182832611E+02  0.13343135509E+02  0.51100000000E-03 0.  1.
         12    1    4    4    0    0  0.52506900540E+01 -0.61582664043E+00  0.11129013684E+01  0.54025492085E+01  0.00000000000E+00 0. -1.
</event>
<event>
 8    1  0.4798632E-010  0.9118800E+02  0.7816164E-02  0.1184000E+00
        -11   -1    0    0    0    0  0.00000000000E+00  0.00000000000E+00  0.45593999997E+02  0.45594000000E+02  0.51100000000E-03 0. -1.
         11   -1    0    0    0    0 -0.00000000000E+00 -0.00000000000E+00 -0.45593999997E+02  0.45594000000E+02  0.51100000000E-03 0.  1.
         23    2    1    2    0    0  0.00000000000E+00  0.00000000000E+00  0.00000000000E+00  0.91188000000E+02  0.91188000000E+02 0.  0.
    9900012    2    3    3    0    0  0.52468984154E+01  0.95384663009E+01 -0.42013221327E+02  0.47787273639E+02  0.20000011829E+02 0.  0.
         12    1    3    3    0    0 -0.52468984154E+01 -0.95384663009E+01  0.42013221327E+02  0.43400726361E+02  0.00000000000E+00 0. -1.
         11    1    4    4    0    0 -0.19165072058E+01 -0.11205786819E+01  0.10193524070E+00  0.22224057925E+01  0.51100000000E-03 0. -1.
        -11    1    4    4    0    0  0.59658225026E+01  0.18108568503E+01 -0.29235660887E+02  0.29893044482E+02  0.51100000000E-03 0.  1.
         12    1    4    4    0    0  0.11975831186E+01  0.88481881324E+01 -0.12879495682E+02  0.15671823364E+02  0.00000000000E+00 0. -1.
</event>
<event>
 8    1  0.4798632E-010  0.9118800E+02  0.7816164E-02  0.1184000E+00
        -11   -1    0    0    0    0  0.00000000000E+00  0.00000000000E+00  0.45593999997E+02  0.45594000000E+02  0.51100000000E-03 0. -1.
         11   -1    0    0    0    0 -0.00000000000E+00 -0.00000000000E+00 -0.45593999997E+02  0.45594000000E+02  0.51100000000E-03 0.  1.
         23    2    1    2    0    0 -0.35527136788E-14  0.00000000000E+00 -0.35527136788E-14  0.91188000000E+02  0.91188000000E+02 0.  0.
    9900012    2    3    3    0    0 -0.31577623721E+02  0.24806220372E+02 -0.16466058823E+02  0.47787239843E+02  0.19999857741E+02 0.  0.
         12    1    3    3    0    0  0.31577623721E+02 -0.24806220372E+02  0.16466058823E+02  0.43400760157E+02  0.00000000000E+00 0. -1.
         11    1    4    4    0    0 -0.37517290908E+01  0.65542369397E+01 -0.36588189206E+00  0.75609101868E+01  0.51100000000E-03 0. -1.
        -11    1    4    4    0    0 -0.19723407892E+02  0.11259394914E+02 -0.23943812143E+01  0.22836809198E+02  0.51100000000E-03 0.  1.
        -12    1    4    4    0    0 -0.81024867386E+01  0.69925885182E+01 -0.13705795717E+02  0.17389520458E+02  0.00000000000E+00 0.  1.
</event>
<event>
 8    1 -0.4798632E-010  0.9118800E+02  0.7816164E-02  0.1184000E+00
        -11   -1    0    0    0    0  0.00000000000E+00  0.00000000000E+00  0.45593999997E+02  0.45594000000E+02  0.51100000000E-03 0. -1.
         11   -1    0    0    0    0 -0.00000000000E+00 -0.00000000000E+00 -0.45593999997E+02  0.45594000000E+02  0.51100000000E-03 0.  1.
         23    2    1    2    0    0  0.71054273576E-14  0.00000000000E+00 -0.35527136788E-14  0.91188000000E+02  0.91188000000E+02 0.  0.
    9900012    2    3    3    0    0 -0.32599661959E+02 -0.19887782233E+02  0.20624293428E+02  0.47787270497E+02  0.19999997505E+02 0.  0.
        -12    1    3    3    0    0  0.32599661959E+02  0.19887782233E+02 -0.20624293428E+02  0.43400729503E+02  0.00000000000E+00 0.  1.
         11    1    4    4    0    0 -0.34270750004E+01 -0.56802999677E+01  0.19420809357E+01  0.69124763582E+01  0.51100000000E-03 0. -1.
        -11    1    4    4    0    0 -0.23580699211E+02 -0.12085163195E+02  0.21631956952E+02  0.34205878246E+02  0.51100000000E-03 0.  1.
        -12    1    4    4    0    0 -0.55918877472E+01 -0.21223190704E+01 -0.29497444598E+01  0.66689158933E+01  0.00000000000E+00 0.  1.
</event>
<event>
 8    1  0.4798632E-010  0.9118800E+02  0.7816164E-02  0.1184000E+00
        -11   -1    0    0    0    0  0.00000000000E+00  0.00000000000E+00  0.45593999997E+02  0.45594000000E+02  0.51100000000E-03 0. -1.
         11   -1    0    0    0    0 -0.00000000000E+00 -0.00000000000E+00 -0.45593999997E+02  0.45594000000E+02  0.51100000000E-03 0.  1.
         23    2    1    2    0    0  0.00000000000E+00  0.13322676296E-14  0.00000000000E+00  0.91188000000E+02  0.91188000000E+02 0.  0.
    9900012    2    3    3    0    0  0.52360279914E+01 -0.18374309562E+01  0.43044525473E+02  0.47787270572E+02  0.19999997847E+02 0.  0.
        -12    1    3    3    0    0 -0.52360279914E+01  0.18374309562E+01 -0.43044525473E+02  0.43400729428E+02  0.00000000000E+00 0.  1.
         11    1    4    4    0    0 -0.32582887101E+01  0.65639933382E+01  0.14101548978E+02  0.15892014904E+02  0.51100000000E-03 0.  1.
        -11    1    4    4    0    0  0.52338439545E+01 -0.75486166934E+01  0.15329991823E+02  0.17871300626E+02  0.51100000000E-03 0. -1.
        -12    1    4    4    0    0  0.32604727470E+01 -0.85280760110E+00  0.13612984672E+02  0.14023955042E+02  0.00000000000E+00 0.  1.
</event>
<event>
 8    1  0.4798632E-010  0.9118800E+02  0.7816164E-02  0.1184000E+00
        -11   -1    0    0    0    0  0.00000000000E+00  0.00000000000E+00  0.45593999997E+02  0.45594000000E+02  0.51100000000E-03 0.  1.
         11   -1    0    0    0    0 -0.00000000000E+00 -0.00000000000E+00 -0.45593999997E+02  0.45594000000E+02  0.51100000000E-03 0. -1.
         23    2    1    2    0    0  0.00000000000E+00  0.00000000000E+00  0.00000000000E+00  0.91188000000E+02  0.91188000000E+02 0.  0.
    9900012    2    3    3    0    0 -0.42543326176E+02 -0.26751321515E+01  0.81567314607E+01  0.47787271869E+02  0.20000003760E+02 0.  0.
        -12    1    3    3    0    0  0.42543326176E+02  0.26751321515E+01 -0.81567314607E+01  0.43400728131E+02  0.00000000000E+00 0.  1.
         11    1    4    4    0    0 -0.67852138426E+01  0.79654371260E+00 -0.64981573734E+00  0.68626430425E+01  0.51100000000E-03 0. -1.
        -11    1    4    4    0    0 -0.26159316658E+02 -0.66434006978E+01  0.13027808671E+02  0.29969458117E+02  0.51100000000E-03 0.  1.
        -12    1    4    4    0    0 -0.95987956759E+01  0.31717248337E+01 -0.42212614726E+01  0.10955170709E+02  0.00000000000E+00 0.  1.
</event>
<event>
 8    1  0.4798632E-010  0.9118800E+02  0.7816164E-02  0.1184000E+00
        -11   -1    0    0    0    0  0.00000000000E+00  0.00000000000E+00  0.45593999997E+02  0.45594000000E+02  0.51100000000E-03 0. -1.
         11   -1    0    0    0    0 -0.00000000000E+00 -0.00000000000E+00 -0.45593999997E+02  0.45594000000E+02  0.51100000000E-03 0.  1.
         23    2    1    2    0    0  0.00000000000E+00 -0.71054273576E-14  0.00000000000E+00  0.91188000000E+02  0.91188000000E+02 0.  0.
    9900012    2    3    3    0    0 -0.12081237500E+01  0.39280500921E+02 -0.18417559922E+02  0.47787264648E+02  0.19999970836E+02 0.  0.
         12    1    3    3    0    0  0.12081237500E+01 -0.39280500921E+02  0.18417559922E+02  0.43400735352E+02  0.00000000000E+00 0. -1.
         11    1    4    4    0    0 -0.36683648612E+01  0.23042996473E+02 -0.20636655935E+01  0.23424246053E+02  0.51100000000E-03 0. -1.
        -11    1    4    4    0    0  0.50144646222E+01  0.84218070459E+01 -0.96385302358E+01  0.13746743423E+02  0.51100000000E-03 0.  1.
         12    1    4    4    0    0 -0.25542235111E+01  0.78156974023E+01 -0.67153640925E+01  0.10616275172E+02  0.00000000000E+00 0. -1.
</event>
<event>
 8    1  0.4798632E-010  0.9118800E+02  0.7816164E-02  0.1184000E+00
        -11   -1    0    0    0    0  0.00000000000E+00  0.00000000000E+00  0.45593999997E+02  0.45594000000E+02  0.51100000000E-03 0. -1.
         11   -1    0    0    0    0 -0.00000000000E+00 -0.00000000000E+00 -0.45593999997E+02  0.45594000000E+02  0.51100000000E-03 0.  1.
         23    2    1    2    0    0  0.00000000000E+00 -0.44408920985E-15 -0.35527136788E-14  0.91188000000E+02  0.91188000000E+02 0.  0.
    9900012    2    3    3    0    0 -0.34040519520E+02 -0.32605347296E+01 -0.26725180259E+02  0.47787270562E+02  0.19999997799E+02 0.  0.
         12    1    3    3    0    0  0.34040519520E+02  0.32605347296E+01  0.26725180259E+02  0.43400729438E+02  0.00000000000E+00 0. -1.
         11    1    4    4    0    0 -0.13073903966E+02  0.14771262183E+01 -0.74855492009E+00  0.13178361109E+02  0.51100000000E-03 0. -1.
        -11    1    4    4    0    0 -0.48659147033E+01  0.18520591866E+01 -0.39206298415E+01  0.65175599534E+01  0.51100000000E-03 0.  1.
         12    1    4    4    0    0 -0.16100700850E+02 -0.65897201345E+01 -0.22055995498E+02  0.28091349500E+02  0.00000000000E+00 0. -1.
</event>
<event>
 8    1  0.4798632E-010  0.9118800E+02  0.7816164E-02  0.1184000E+00
        -11   -1    0    0    0    0  0.00000000000E+00  0.00000000000E+00  0.45593999997E+02  0.45594000000E+02  0.51100000000E-03 0. -1.
         11   -1    0    0    0    0 -0.00000000000E+00 -0.00000000000E+00 -0.45593999997E+02  0.45594000000E+02  0.51100000000E-03 0.  1.
         23    2    1    2    0    0  0.00000000000E+00 -0.88817841970E-15  0.00000000000E+00  0.91188000000E+02  0.91188000000E+02 0.  0.
    9900012    2    3    3    0    0 -0.16154907520E+01 -0.79491507522E+01 -0.42635951598E+02  0.47787272163E+02  0.20000005102E+02 0.  0.
         12    1    3    3    0    0  0.16154907520E+01  0.79491507522E+01  0.42635951598E+02  0.43400727837E+02  0.00000000000E+00 0. -1.
         11    1    4    4    0    0 -0.29449304589E+01  0.10957490786E+01 -0.20197854614E+02  0.20440807536E+02  0.51100000000E-03 0. -1.
        -11    1    4    4    0    0 -0.26105480466E+01 -0.71582541233E+01 -0.44247897827E+01  0.88110344500E+01  0.51100000000E-03 0.  1.
        -12    1    4    4    0    0  0.39399877535E+01 -0.18866457074E+01 -0.18013307201E+02  0.18535430177E+02  0.00000000000E+00 0.  1.
</event>
<event>
 8    1  0.4798632E-010  0.9118800E+02  0.7816164E-02  0.1184000E+00
        -11   -1    0    0    0    0  0.00000000000E+00  0.00000000000E+00  0.45593999997E+02  0.45594000000E+02  0.51100000000E-03 0. -1.
         11   -1    0    0    0    0 -0.00000000000E+00 -0.00000000000E+00 -0.45593999997E+02  0.45594000000E+02  0.51100000000E-03 0.  1.
         23    2    1    2    0    0 -0.35527136788E-14  0.00000000000E+00  0.00000000000E+00  0.91188000000E+02  0.91188000000E+02 0.  0.
    9900012    2    3    3    0    0 -0.24279849604E+02 -0.12450686901E+02  0.33750447366E+02  0.47787269609E+02  0.19999993455E+02 0.  0.
        -12    1    3    3    0    0  0.24279849604E+02  0.12450686901E+02 -0.33750447366E+02  0.43400730391E+02  0.00000000000E+00 0.  1.
         11    1    4    4    0    0 -0.17993764390E+02 -0.43282266717E+00  0.18629877607E+02  0.25904347749E+02  0.51100000000E-03 0. -1.
        -11    1    4    4    0    0 -0.57393693487E+00 -0.78734616672E+01  0.43707069469E+01  0.90235182554E+01  0.51100000000E-03 0.  1.
        -12    1    4    4    0    0 -0.57121482794E+01 -0.41444025669E+01  0.10749862811E+02  0.12859403605E+02  0.00000000000E+00 0.  1.
</event>
<event>
 8    1  0.4798632E-010  0.9118800E+02  0.7816164E-02  0.1184000E+00
        -11   -1    0    0    0    0  0.00000000000E+00  0.00000000000E+00  0.45593999997E+02  0.45594000000E+02  0.51100000000E-03 0.  1.
         11   -1    0    0    0    0 -0.00000000000E+00 -0.00000000000E+00 -0.45593999997E+02  0.45594000000E+02  0.51100000000E-03 0. -1.
         23    2    1    2    0    0  0.00000000000E+00  0.00000000000E+00  0.00000000000E+00  0.91188000000E+02  0.91188000000E+02 0.  0.
    9900012    2    3    3    0    0  0.13885400471E+02 -0.40657162728E+02 -0.61491916626E+01  0.47787288192E+02  0.20000078184E+02 0.  0.
         12    1    3    3    0    0 -0.13885400471E+02  0.40657162728E+02  0.61491916626E+01  0.43400711808E+02  0.00000000000E+00 0. -1.
         11    1    4    4    0    0  0.14860217732E+02 -0.41051641226E+02 -0.55675480443E+01  0.44012054143E+02  0.51100000000E-03 0.  1.
        -11    1    4    4    0    0 -0.14276894886E+01 -0.45969854748E+00 -0.17197473652E+01  0.22819183359E+01  0.51100000000E-03 0. -1.
        -12    1    4    4    0    0  0.45287222734E+00  0.85417704612E+00  0.11381037469E+01  0.14933157132E+01  0.00000000000E+00 0.  1.
</event>
<event>
 8    1  0.4798632E-010  0.9118800E+02  0.7816164E-02  0.1184000E+00
        -11   -1    0    0    0    0  0.00000000000E+00  0.00000000000E+00  0.45593999997E+02  0.45594000000E+02  0.51100000000E-03 0. -1.
         11   -1    0    0    0    0 -0.00000000000E+00 -0.00000000000E+00 -0.45593999997E+02  0.45594000000E+02  0.51100000000E-03 0.  1.
         23    2    1    2    0    0  0.00000000000E+00  0.00000000000E+00  0.00000000000E+00  0.91188000000E+02  0.91188000000E+02 0.  0.
    9900012    2    3    3    0    0  0.35679026451E+02 -0.21052930127E+02  0.12938485202E+02  0.47787271956E+02  0.20000004156E+02 0.  0.
        -12    1    3    3    0    0 -0.35679026451E+02  0.21052930127E+02 -0.12938485202E+02  0.43400728044E+02  0.00000000000E+00 0.  1.
         11    1    4    4    0    0  0.32299055490E+02 -0.20407920721E+02  0.11778861908E+02  0.39980667851E+02  0.51100000000E-03 0. -1.
        -11    1    4    4    0    0  0.10434669393E+01  0.27138466760E+01  0.21266540499E+01  0.36022832680E+01  0.51100000000E-03 0.  1.
         12    1    4    4    0    0  0.23365040219E+01 -0.33588560814E+01 -0.96703075497E+00  0.42043208371E+01  0.00000000000E+00 0. -1.
</event>
<event>
 8    1  0.4798632E-010  0.9118800E+02  0.7816164E-02  0.1184000E+00
        -11   -1    0    0    0    0  0.00000000000E+00  0.00000000000E+00  0.45593999997E+02  0.45594000000E+02  0.51100000000E-03 0. -1.
         11   -1    0    0    0    0 -0.00000000000E+00 -0.00000000000E+00 -0.45593999997E+02  0.45594000000E+02  0.51100000000E-03 0.  1.
         23    2    1    2    0    0  0.00000000000E+00 -0.35527136788E-14 -0.17763568394E-14  0.91188000000E+02  0.91188000000E+02 0.  0.
    9900012    2    3    3    0    0  0.37669483949E+02  0.16401463113E+02  0.13986607248E+02  0.47787271947E+02  0.20000004114E+02 0.  0.
        -12    1    3    3    0    0 -0.37669483949E+02 -0.16401463113E+02 -0.13986607248E+02  0.43400728053E+02  0.00000000000E+00 0.  1.
         11    1    4    4    0    0  0.15693017899E+02  0.11615013576E+02 -0.58141682977E+00  0.19532470324E+02  0.51100000000E-03 0. -1.
        -11    1    4    4    0    0  0.97794400851E+00  0.27020741878E+01  0.31431567200E+01  0.42587573102E+01  0.51100000000E-03 0.  1.
         12    1    4    4    0    0  0.20998522042E+02  0.20843753493E+01  0.11424867358E+02  0.23996044313E+02  0.00000000000E+00 0. -1.
</event>
<event>
 8    1  0.4798632E-010  0.9118800E+02  0.7816164E-02  0.1184000E+00
        -11   -1    0    0    0    0  0.00000000000E+00  0.00000000000E+00  0.45593999997E+02  0.45594000000E+02  0.51100000000E-03 0.  1.
         11   -1    0    0    0    0 -0.00000000000E+00 -0.00000000000E+00 -0.45593999997E+02  0.45594000000E+02  0.51100000000E-03 0. -1.
         23    2    1    2    0    0  0.00000000000E+00  0.00000000000E+00  0.11102230246E-14  0.91188000000E+02  0.91188000000E+02 0.  0.
    9900012    2    3    3    0    0 -0.36190582042E+02  0.23955376049E+02  0.74137704167E-01  0.47787265368E+02  0.19999974120E+02 0.  0.
        -12    1    3    3    0    0  0.36190582042E+02 -0.23955376049E+02 -0.74137704167E-01  0.43400734632E+02  0.00000000000E+00 0.  1.
         11    1    4    4    0    0 -0.14798873483E+02  0.87596202700E+01 -0.20901748002E+01  0.17323580306E+02  0.51100000000E-03 0. -1.
        -11    1    4    4    0    0 -0.18517569389E+02  0.13633851279E+02  0.75151885762E+01  0.24192154438E+02  0.51100000000E-03 0.  1.
        -12    1    4    4    0    0 -0.28741391696E+01  0.15619044999E+01 -0.53508760719E+01  0.62715306242E+01  0.00000000000E+00 0.  1.
</event>
<event>
 8    1  0.4798632E-010  0.9118800E+02  0.7816164E-02  0.1184000E+00
        -11   -1    0    0    0    0  0.00000000000E+00  0.00000000000E+00  0.45593999997E+02  0.45594000000E+02  0.51100000000E-03 0. -1.
         11   -1    0    0    0    0 -0.00000000000E+00 -0.00000000000E+00 -0.45593999997E+02  0.45594000000E+02  0.51100000000E-03 0.  1.
         23    2    1    2    0    0  0.00000000000E+00  0.00000000000E+00 -0.44408920985E-15  0.91188000000E+02  0.91188000000E+02 0.  0.
    9900012    2    3    3    0    0 -0.22956226494E+02 -0.36684766997E+02  0.32957435806E+01  0.47787281225E+02  0.20000046419E+02 0.  0.
        -12    1    3    3    0    0  0.22956226494E+02  0.36684766997E+02 -0.32957435806E+01  0.43400718775E+02  0.00000000000E+00 0.  1.
         11    1    4    4    0    0 -0.92369173098E+01 -0.95655110382E+01 -0.28382134010E+01  0.13596878259E+02  0.51100000000E-03 0. -1.
        -11    1    4    4    0    0 -0.11947381182E+02 -0.22270367368E+02  0.10560108026E+02  0.27390236611E+02  0.51100000000E-03 0.  1.
        -12    1    4    4    0    0 -0.17719280015E+01 -0.48488885900E+01 -0.44261510439E+01  0.68001663556E+01  0.00000000000E+00 0.  1.
</event>
<event>
 8    1  0.4798632E-010  0.9118800E+02  0.7816164E-02  0.1184000E+00
        -11   -1    0    0    0    0  0.00000000000E+00  0.00000000000E+00  0.45593999997E+02  0.45594000000E+02  0.51100000000E-03 0. -1.
         11   -1    0    0    0    0 -0.00000000000E+00 -0.00000000000E+00 -0.45593999997E+02  0.45594000000E+02  0.51100000000E-03 0.  1.
         23    2    1    2    0    0  0.00000000000E+00  0.00000000000E+00  0.00000000000E+00  0.91188000000E+02  0.91188000000E+02 0.  0.
    9900012    2    3    3    0    0 -0.37051855438E+02  0.16121355985E+02  0.15839368569E+02  0.47787266056E+02  0.19999977255E+02 0.  0.
        -12    1    3    3    0    0  0.37051855438E+02 -0.16121355985E+02 -0.15839368569E+02  0.43400733944E+02  0.00000000000E+00 0.  1.
         11    1    4    4    0    0 -0.18405897647E+02  0.58181762246E+01  0.15534589314E+02  0.24778048918E+02  0.51100000000E-03 0. -1.
        -11    1    4    4    0    0 -0.17949138686E+02  0.64843370579E+01 -0.26113162857E+00  0.19086288184E+02  0.51100000000E-03 0.  1.
         12    1    4    4    0    0 -0.69681910556E+00  0.38188427026E+01  0.56591088434E+00  0.39229289545E+01  0.00000000000E+00 0. -1.
</event>
<event>
 8    1  0.4798632E-010  0.9118800E+02  0.7816164E-02  0.1184000E+00
        -11   -1    0    0    0    0  0.00000000000E+00  0.00000000000E+00  0.45593999997E+02  0.45594000000E+02  0.51100000000E-03 0. -1.
         11   -1    0    0    0    0 -0.00000000000E+00 -0.00000000000E+00 -0.45593999997E+02  0.45594000000E+02  0.51100000000E-03 0.  1.
         23    2    1    2    0    0  0.00000000000E+00  0.00000000000E+00  0.35527136788E-14  0.91188000000E+02  0.91188000000E+02 0.  0.
    9900012    2    3    3    0    0  0.34864237300E+02 -0.83043787286E+01  0.24477443292E+02  0.47787274445E+02  0.20000015505E+02 0.  0.
        -12    1    3    3    0    0 -0.34864237300E+02  0.83043787286E+01 -0.24477443292E+02  0.43400725555E+02  0.00000000000E+00 0.  1.
         11    1    4    4    0    0  0.23375897642E+02 -0.13743604132E+02  0.14478476706E+02  0.30739966380E+02  0.51100000000E-03 0. -1.
        -11    1    4    4    0    0  0.11407230976E+02  0.36752893378E+01  0.92023842377E+01  0.15110147126E+02  0.51100000000E-03 0.  1.
         12    1    4    4    0    0  0.81108682167E-01  0.17639360657E+01  0.79658234857E+00  0.19371609381E+01  0.00000000000E+00 0. -1.
</event>
<event>
 8    1  0.4798632E-010  0.9118800E+02  0.7816164E-02  0.1184000E+00
        -11   -1    0    0    0    0  0.00000000000E+00  0.00000000000E+00  0.45593999997E+02  0.45594000000E+02  0.51100000000E-03 0. -1.
         11   -1    0    0    0    0 -0.00000000000E+00 -0.00000000000E+00 -0.45593999997E+02  0.45594000000E+02  0.51100000000E-03 0.  1.
         23    2    1    2    0    0  0.00000000000E+00  0.00000000000E+00  0.00000000000E+00  0.91188000000E+02  0.91188000000E+02 0.  0.
    9900012    2    3    3    0    0  0.34505308788E+02 -0.22873345624E+02  0.13031382994E+02  0.47787271696E+02  0.20000002970E+02 0.  0.
        -12    1    3    3    0    0 -0.34505308788E+02  0.22873345624E+02 -0.13031382994E+02  0.43400728304E+02  0.00000000000E+00 0.  1.
         11    1    4    4    0    0  0.12463126394E+02 -0.37248381205E+01  0.90548123869E+01  0.15849087234E+02  0.51100000000E-03 0. -1.
        -11    1    4    4    0    0  0.20078438359E+02 -0.20935912588E+02  0.40023111886E+01  0.29282667535E+02  0.51100000000E-03 0.  1.
        -12    1    4    4    0    0  0.19637440354E+01  0.17874050846E+01 -0.25740581443E-01  0.26555169272E+01  0.00000000000E+00 0.  1.
</event>
<event>
 8    1 -0.1216614E-009  0.9118800E+02  0.7816164E-02  0.1184000E+00
        -11   -1    0    0    0    0  0.00000000000E+00  0.00000000000E+00  0.45593999997E+02  0.45594000000E+02  0.51100000000E-03 0. -1.
         11   -1    0    0    0    0 -0.00000000000E+00 -0.00000000000E+00 -0.45593999997E+02  0.45594000000E+02  0.51100000000E-03 0.  1.
         23    2    1    2    0    0  0.88817841970E-15 -0.17763568394E-14  0.00000000000E+00  0.91188000000E+02  0.91188000000E+02 0.  0.
    9900012    2    3    3    0    0 -0.66759497005E+01  0.11244620285E+02 -0.41383737252E+02  0.47787268454E+02  0.19999988191E+02 0.  0.
         12    1    3    3    0    0  0.66759497005E+01 -0.11244620285E+02  0.41383737252E+02  0.43400731546E+02  0.00000000000E+00 0. -1.
         11    1    4    4    0    0  0.57863963498E-01  0.47064252113E+01 -0.31671329795E+01  0.56731400546E+01  0.51100000000E-03 0. -1.
        -11    1    4    4    0    0 -0.70865526506E+01 -0.17598234320E+01 -0.82470060473E+01  0.11014958737E+02  0.51100000000E-03 0.  1.
        -12    1    4    4    0    0  0.35273898657E+00  0.82980185059E+01 -0.29969598225E+02  0.31099169662E+02  0.00000000000E+00 0.  1.
</event>
<event>
 8    1  0.4798632E-010  0.9118800E+02  0.7816164E-02  0.1184000E+00
        -11   -1    0    0    0    0  0.00000000000E+00  0.00000000000E+00  0.45593999997E+02  0.45594000000E+02  0.51100000000E-03 0. -1.
         11   -1    0    0    0    0 -0.00000000000E+00 -0.00000000000E+00 -0.45593999997E+02  0.45594000000E+02  0.51100000000E-03 0.  1.
         23    2    1    2    0    0 -0.88817841970E-15  0.00000000000E+00  0.00000000000E+00  0.91188000000E+02  0.91188000000E+02 0.  0.
    9900012    2    3    3    0    0  0.70644315802E+01 -0.27857221295E+02 -0.32522181659E+02  0.47787271069E+02  0.20000000114E+02 0.  0.
         12    1    3    3    0    0 -0.70644315802E+01  0.27857221295E+02  0.32522181659E+02  0.43400728931E+02  0.00000000000E+00 0. -1.
         11    1    4    4    0    0  0.52634575973E+01 -0.53688683821E+01 -0.17674927511E+02  0.19207597361E+02  0.51100000000E-03 0. -1.
        -11    1    4    4    0    0  0.10958603137E+01 -0.93524327402E+01 -0.11763662215E+02  0.15068266555E+02  0.51100000000E-03 0.  1.
         12    1    4    4    0    0  0.70511366924E+00 -0.13135920173E+02 -0.30835919326E+01  0.13511407154E+02  0.00000000000E+00 0. -1.
</event>
<event>
 8    1  0.4798632E-010  0.9118800E+02  0.7816164E-02  0.1184000E+00
        -11   -1    0    0    0    0  0.00000000000E+00  0.00000000000E+00  0.45593999997E+02  0.45594000000E+02  0.51100000000E-03 0. -1.
         11   -1    0    0    0    0 -0.00000000000E+00 -0.00000000000E+00 -0.45593999997E+02  0.45594000000E+02  0.51100000000E-03 0.  1.
         23    2    1    2    0    0  0.00000000000E+00 -0.35527136788E-14  0.00000000000E+00  0.91188000000E+02  0.91188000000E+02 0.  0.
    9900012    2    3    3    0    0 -0.21212984672E+02 -0.17797284278E+02 -0.33419896188E+02  0.47787268352E+02  0.19999987725E+02 0.  0.
         12    1    3    3    0    0  0.21212984672E+02  0.17797284278E+02  0.33419896188E+02  0.43400731648E+02  0.00000000000E+00 0. -1.
         11    1    4    4    0    0 -0.17765750534E+02 -0.94609947526E+01 -0.14429599392E+02  0.24765816212E+02  0.51100000000E-03 0.  1.
        -11    1    4    4    0    0 -0.17565567195E+01  0.15237618735E+01 -0.71613236489E+01  0.75294022619E+01  0.51100000000E-03 0. -1.
         12    1    4    4    0    0 -0.16906774178E+01 -0.98600513993E+01 -0.11828973147E+02  0.15492049878E+02  0.00000000000E+00 0. -1.
</event>
<event>
 8    1  0.4798632E-010  0.9118800E+02  0.7816164E-02  0.1184000E+00
        -11   -1    0    0    0    0  0.00000000000E+00  0.00000000000E+00  0.45593999997E+02  0.45594000000E+02  0.51100000000E-03 0. -1.
         11   -1    0    0    0    0 -0.00000000000E+00 -0.00000000000E+00 -0.45593999997E+02  0.45594000000E+02  0.51100000000E-03 0.  1.
         23    2    1    2    0    0  0.00000000000E+00  0.00000000000E+00 -0.35527136788E-14  0.91188000000E+02  0.91188000000E+02 0.  0.
    9900012    2    3    3    0    0 -0.20875844318E+02  0.28683079927E+02 -0.25002056830E+02  0.47787276552E+02  0.20000025113E+02 0.  0.
         12    1    3    3    0    0  0.20875844318E+02 -0.28683079927E+02  0.25002056830E+02  0.43400723448E+02  0.00000000000E+00 0. -1.
         11    1    4    4    0    0  0.65066951962E+00 -0.94182720637E+00 -0.89679193060E+00  0.14541820169E+01  0.51100000000E-03 0. -1.
        -11    1    4    4    0    0 -0.74843846730E+01  0.21188085962E+02 -0.18208693853E+02  0.28922439951E+02  0.51100000000E-03 0.  1.
        -12    1    4    4    0    0 -0.14042129164E+02  0.84368211709E+01 -0.58965710468E+01  0.17410654584E+02  0.00000000000E+00 0.  1.
</event>
<event>
 8    1  0.4798632E-010  0.9118800E+02  0.7816164E-02  0.1184000E+00
        -11   -1    0    0    0    0  0.00000000000E+00  0.00000000000E+00  0.45593999997E+02  0.45594000000E+02  0.51100000000E-03 0. -1.
         11   -1    0    0    0    0 -0.00000000000E+00 -0.00000000000E+00 -0.45593999997E+02  0.45594000000E+02  0.51100000000E-03 0.  1.
         23    2    1    2    0    0  0.00000000000E+00  0.00000000000E+00  0.00000000000E+00  0.91188000000E+02  0.91188000000E+02 0.  0.
    9900012    2    3    3    0    0 -0.68598519389E+01 -0.94018622030E+01 -0.41811138688E+02  0.47787263833E+02  0.19999967118E+02 0.  0.
         12    1    3    3    0    0  0.68598519389E+01  0.94018622030E+01  0.41811138688E+02  0.43400736167E+02  0.00000000000E+00 0. -1.
         11    1    4    4    0    0 -0.63600706703E+01 -0.11991219764E+01 -0.19126137276E+01  0.67488135237E+01  0.51100000000E-03 0. -1.
        -11    1    4    4    0    0  0.28603605596E+00 -0.24786369493E+01 -0.23875795149E+02  0.24005812880E+02  0.51100000000E-03 0.  1.
         12    1    4    4    0    0 -0.78581732451E+00 -0.57241032772E+01 -0.16022729811E+02  0.17032637429E+02  0.00000000000E+00 0. -1.
</event>
<event>
 8    1  0.4798632E-010  0.9118800E+02  0.7816164E-02  0.1184000E+00
        -11   -1    0    0    0    0  0.00000000000E+00  0.00000000000E+00  0.45593999997E+02  0.45594000000E+02  0.51100000000E-03 0. -1.
         11   -1    0    0    0    0 -0.00000000000E+00 -0.00000000000E+00 -0.45593999997E+02  0.45594000000E+02  0.51100000000E-03 0.  1.
         23    2    1    2    0    0  0.00000000000E+00  0.00000000000E+00  0.00000000000E+00  0.91188000000E+02  0.91188000000E+02 0.  0.
    9900012    2    3    3    0    0  0.59615867958E+01 -0.36837325350E+02 -0.22160643065E+02  0.47787272390E+02  0.20000006134E+02 0.  0.
         12    1    3    3    0    0 -0.59615867958E+01  0.36837325350E+02  0.22160643065E+02  0.43400727610E+02  0.00000000000E+00 0. -1.
         11    1    4    4    0    0  0.74672996017E+00 -0.16168515653E+01  0.14556579207E+01  0.23001640943E+01  0.51100000000E-03 0. -1.
        -11    1    4    4    0    0  0.29121775861E+01 -0.37759334528E+01 -0.10127811289E+02  0.11194240193E+02  0.51100000000E-03 0.  1.
        -12    1    4    4    0    0  0.23026792496E+01 -0.31444540332E+02 -0.13488489697E+02  0.34292868103E+02  0.00000000000E+00 0.  1.
</event>
<event>
 8    1  0.5559608E-010  0.9118800E+02  0.7816164E-02  0.1184000E+00
        -11   -1    0    0    0    0  0.00000000000E+00  0.00000000000E+00  0.45593999997E+02  0.45594000000E+02  0.51100000000E-03 0. -1.
         11   -1    0    0    0    0 -0.00000000000E+00 -0.00000000000E+00 -0.45593999997E+02  0.45594000000E+02  0.51100000000E-03 0.  1.
         23    2    1    2    0    0  0.00000000000E+00  0.35527136788E-14  0.00000000000E+00  0.91188000000E+02  0.91188000000E+02 0.  0.
    9900012    2    3    3    0    0 -0.10167111435E+02  0.24368223260E+02 -0.34444774557E+02  0.47787274729E+02  0.20000016798E+02 0.  0.
         12    1    3    3    0    0  0.10167111435E+02 -0.24368223260E+02  0.34444774557E+02  0.43400725271E+02  0.00000000000E+00 0. -1.
         11    1    4    4    0    0 -0.30162834433E+01 -0.10125595411E+01 -0.69875438872E+01  0.76778260251E+01  0.51100000000E-03 0. -1.
        -11    1    4    4    0    0 -0.52036529339E+01  0.19425229877E+02 -0.11970547071E+02  0.23403238175E+02  0.51100000000E-03 0.  1.
        -12    1    4    4    0    0 -0.19471750583E+01  0.59555529240E+01 -0.15486683599E+02  0.16706210529E+02  0.00000000000E+00 0.  1.
</event>
<event>
 8    1  0.4798632E-010  0.9118800E+02  0.7816164E-02  0.1184000E+00
        -11   -1    0    0    0    0  0.00000000000E+00  0.00000000000E+00  0.45593999997E+02  0.45594000000E+02  0.51100000000E-03 0. -1.
         11   -1    0    0    0    0 -0.00000000000E+00 -0.00000000000E+00 -0.45593999997E+02  0.45594000000E+02  0.51100000000E-03 0.  1.
         23    2    1    2    0    0 -0.35527136788E-14  0.00000000000E+00  0.00000000000E+00  0.91188000000E+02  0.91188000000E+02 0.  0.
    9900012    2    3    3    0    0 -0.19304139655E+02 -0.88445109318E+01 -0.37851659982E+02  0.47787270227E+02  0.19999996273E+02 0.  0.
         12    1    3    3    0    0  0.19304139655E+02  0.88445109318E+01  0.37851659982E+02  0.43400729773E+02  0.00000000000E+00 0. -1.
         11    1    4    4    0    0  0.23854562728E+01 -0.17754001308E+01 -0.14180177076E+00  0.29770044100E+01  0.51100000000E-03 0. -1.
        -11    1    4    4    0    0 -0.20405739295E+02 -0.46152353082E+01 -0.35735224984E+02  0.41408947077E+02  0.51100000000E-03 0.  1.
        -12    1    4    4    0    0 -0.12838566333E+01 -0.24538754928E+01 -0.19746332268E+01  0.34013187397E+01  0.00000000000E+00 0.  1.
</event>
<event>
 8    1  0.4798632E-010  0.9118800E+02  0.7816164E-02  0.1184000E+00
        -11   -1    0    0    0    0  0.00000000000E+00  0.00000000000E+00  0.45593999997E+02  0.45594000000E+02  0.51100000000E-03 0. -1.
         11   -1    0    0    0    0 -0.00000000000E+00 -0.00000000000E+00 -0.45593999997E+02  0.45594000000E+02  0.51100000000E-03 0.  1.
         23    2    1    2    0    0 -0.88817841970E-15  0.88817841970E-15  0.71054273576E-14  0.91188000000E+02  0.91188000000E+02 0.  0.
    9900012    2    3    3    0    0  0.67053241603E+01  0.53900318174E+01  0.42539504931E+02  0.47787270803E+02  0.19999998899E+02 0.  0.
        -12    1    3    3    0    0 -0.67053241603E+01 -0.53900318174E+01 -0.42539504931E+02  0.43400729197E+02  0.00000000000E+00 0.  1.
         11    1    4    4    0    0  0.11788874573E+01  0.45171777933E+01  0.15908585058E+02  0.16579437556E+02  0.51100000000E-03 0. -1.
        -11    1    4    4    0    0  0.59409743351E+01 -0.46912542706E+01  0.55113028034E+01  0.93636265161E+01  0.51100000000E-03 0.  1.
        -12    1    4    4    0    0 -0.41453763207E+00  0.55641082946E+01  0.21119617069E+02  0.21844206731E+02  0.00000000000E+00 0.  1.
</event>
<event>
 8    1  0.4798632E-010  0.9118800E+02  0.7816164E-02  0.1184000E+00
        -11   -1    0    0    0    0  0.00000000000E+00  0.00000000000E+00  0.45593999997E+02  0.45594000000E+02  0.51100000000E-03 0. -1.
         11   -1    0    0    0    0 -0.00000000000E+00 -0.00000000000E+00 -0.45593999997E+02  0.45594000000E+02  0.51100000000E-03 0.  1.
         23    2    1    2    0    0  0.00000000000E+00  0.88817841970E-15  0.00000000000E+00  0.91188000000E+02  0.91188000000E+02 0.  0.
    9900012    2    3    3    0    0 -0.23310368158E+02 -0.50085833842E+01  0.36265189847E+02  0.47787272290E+02  0.20000005677E+02 0.  0.
        -12    1    3    3    0    0  0.23310368158E+02  0.50085833842E+01 -0.36265189847E+02  0.43400727710E+02  0.00000000000E+00 0.  1.
         11    1    4    4    0    0 -0.72261305225E+01  0.60530534784E+01  0.71083172489E+01  0.11806125237E+02  0.51100000000E-03 0. -1.
        -11    1    4    4    0    0 -0.10100075481E+02 -0.10532610550E+02  0.16880174418E+02  0.22313397284E+02  0.51100000000E-03 0.  1.
         12    1    4    4    0    0 -0.59841621553E+01 -0.52902631260E+00  0.12276698180E+02  0.13667749769E+02  0.00000000000E+00 0. -1.
</event>
<event>
 8    1  0.4798632E-010  0.9118800E+02  0.7816164E-02  0.1184000E+00
        -11   -1    0    0    0    0  0.00000000000E+00  0.00000000000E+00  0.45593999997E+02  0.45594000000E+02  0.51100000000E-03 0. -1.
         11   -1    0    0    0    0 -0.00000000000E+00 -0.00000000000E+00 -0.45593999997E+02  0.45594000000E+02  0.51100000000E-03 0.  1.
         23    2    1    2    0    0 -0.71054273576E-14  0.00000000000E+00  0.00000000000E+00  0.91188000000E+02  0.91188000000E+02 0.  0.
    9900012    2    3    3    0    0  0.37185925313E+02 -0.20477389023E+02 -0.90280995652E+01  0.47787273228E+02  0.20000009954E+02 0.  0.
         12    1    3    3    0    0 -0.37185925313E+02  0.20477389023E+02  0.90280995652E+01  0.43400726772E+02  0.00000000000E+00 0. -1.
         11    1    4    4    0    0  0.27084579930E+02 -0.84458527616E+01 -0.57078179295E-01  0.28370938600E+02  0.51100000000E-03 0. -1.
        -11    1    4    4    0    0  0.29316049727E+01 -0.85970503108E+01 -0.33554185943E+01  0.96830995020E+01  0.51100000000E-03 0.  1.
        -12    1    4    4    0    0  0.71697404101E+01 -0.34344859508E+01 -0.56156027916E+01  0.97332351255E+01  0.00000000000E+00 0.  1.
</event>
<event>
 8    1  0.4798632E-010  0.9118800E+02  0.7816164E-02  0.1184000E+00
        -11   -1    0    0    0    0  0.00000000000E+00  0.00000000000E+00  0.45593999997E+02  0.45594000000E+02  0.51100000000E-03 0. -1.
         11   -1    0    0    0    0 -0.00000000000E+00 -0.00000000000E+00 -0.45593999997E+02  0.45594000000E+02  0.51100000000E-03 0.  1.
         23    2    1    2    0    0  0.00000000000E+00  0.00000000000E+00  0.00000000000E+00  0.91188000000E+02  0.91188000000E+02 0.  0.
    9900012    2    3    3    0    0  0.30337528990E+02 -0.95445156083E+01  0.29532352730E+02  0.47787270730E+02  0.19999998565E+02 0.  0.
        -12    1    3    3    0    0 -0.30337528990E+02  0.95445156083E+01 -0.29532352730E+02  0.43400729270E+02  0.00000000000E+00 0.  1.
         11    1    4    4    0    0  0.18607058630E+02 -0.72934130144E+01  0.22414988022E+02  0.30030787411E+02  0.51100000000E-03 0. -1.
        -11    1    4    4    0    0  0.10109205633E+02 -0.23440215070E+01 -0.80489067857E-01  0.10377714300E+02  0.51100000000E-03 0.  1.
        -12    1    4    4    0    0  0.16212647276E+01  0.92918913199E-01  0.71978537759E+01  0.73787690180E+01  0.00000000000E+00 0.  1.
</event>
<event>
 8    1  0.4798632E-010  0.9118800E+02  0.7816164E-02  0.1184000E+00
        -11   -1    0    0    0    0  0.00000000000E+00  0.00000000000E+00  0.45593999997E+02  0.45594000000E+02  0.51100000000E-03 0. -1.
         11   -1    0    0    0    0 -0.00000000000E+00 -0.00000000000E+00 -0.45593999997E+02  0.45594000000E+02  0.51100000000E-03 0.  1.
         23    2    1    2    0    0  0.00000000000E+00  0.00000000000E+00  0.35527136788E-14  0.91188000000E+02  0.91188000000E+02 0.  0.
    9900012    2    3    3    0    0 -0.61381103093E+01  0.36104489815E+02 -0.23289741644E+02  0.47787278245E+02  0.20000032831E+02 0.  0.
         12    1    3    3    0    0  0.61381103093E+01 -0.36104489815E+02  0.23289741644E+02  0.43400721755E+02  0.00000000000E+00 0. -1.
         11    1    4    4    0    0 -0.62750932532E+01  0.23625439935E+01 -0.63181170433E+01  0.92128721196E+01  0.51100000000E-03 0. -1.
        -11    1    4    4    0    0  0.32810447313E+01  0.21656280778E+02 -0.85545764174E+01  0.23514687529E+02  0.51100000000E-03 0.  1.
        -12    1    4    4    0    0 -0.31440617873E+01  0.12085665044E+02 -0.84170481835E+01  0.15059718596E+02  0.00000000000E+00 0.  1.
</event>
<event>
 8    1  0.4798632E-010  0.9118800E+02  0.7816164E-02  0.1184000E+00
        -11   -1    0    0    0    0  0.00000000000E+00  0.00000000000E+00  0.45593999997E+02  0.45594000000E+02  0.51100000000E-03 0. -1.
         11   -1    0    0    0    0 -0.00000000000E+00 -0.00000000000E+00 -0.45593999997E+02  0.45594000000E+02  0.51100000000E-03 0.  1.
         23    2    1    2    0    0  0.35527136788E-14  0.17763568394E-14  0.00000000000E+00  0.91188000000E+02  0.91188000000E+02 0.  0.
    9900012    2    3    3    0    0 -0.25025109631E+02  0.38982654062E+01  0.35244408225E+02  0.47787298435E+02  0.20000124884E+02 0.  0.
        -12    1    3    3    0    0  0.25025109631E+02 -0.38982654062E+01 -0.35244408225E+02  0.43400701565E+02  0.00000000000E+00 0.  1.
         11    1    4    4    0    0 -0.30620013914E+00 -0.47634304690E+01  0.53679487702E+01  0.71832376139E+01  0.51100000000E-03 0. -1.
        -11    1    4    4    0    0  0.68468154470E+00  0.12091092622E+00  0.80720070258E+00  0.10653551075E+01  0.51100000000E-03 0.  1.
         12    1    4    4    0    0 -0.25403591036E+02  0.85407849489E+01  0.29069258752E+02  0.39538705713E+02  0.00000000000E+00 0. -1.
</event>
<event>
 8    1  0.4798632E-010  0.9118800E+02  0.7816164E-02  0.1184000E+00
        -11   -1    0    0    0    0  0.00000000000E+00  0.00000000000E+00  0.45593999997E+02  0.45594000000E+02  0.51100000000E-03 0. -1.
         11   -1    0    0    0    0 -0.00000000000E+00 -0.00000000000E+00 -0.45593999997E+02  0.45594000000E+02  0.51100000000E-03 0.  1.
         23    2    1    2    0    0 -0.35527136788E-14  0.00000000000E+00  0.00000000000E+00  0.91188000000E+02  0.91188000000E+02 0.  0.
    9900012    2    3    3    0    0 -0.18193319000E+02  0.18469393259E+02 -0.34806718636E+02  0.47787274133E+02  0.20000014082E+02 0.  0.
         12    1    3    3    0    0  0.18193319000E+02 -0.18469393259E+02  0.34806718636E+02  0.43400725867E+02  0.00000000000E+00 0. -1.
         11    1    4    4    0    0  0.12245283019E+01  0.51906555588E+01  0.47569045083E+00  0.53543119407E+01  0.51100000000E-03 0. -1.
        -11    1    4    4    0    0 -0.21113498732E+01  0.12229724568E+01 -0.44809802848E+01  0.51022195652E+01  0.51100000000E-03 0.  1.
         12    1    4    4    0    0 -0.17306497429E+02  0.12055765243E+02 -0.30801428802E+02  0.37330742627E+02  0.00000000000E+00 0. -1.
</event>
<event>
 8    1  0.4798632E-010  0.9118800E+02  0.7816164E-02  0.1184000E+00
        -11   -1    0    0    0    0  0.00000000000E+00  0.00000000000E+00  0.45593999997E+02  0.45594000000E+02  0.51100000000E-03 0. -1.
         11   -1    0    0    0    0 -0.00000000000E+00 -0.00000000000E+00 -0.45593999997E+02  0.45594000000E+02  0.51100000000E-03 0.  1.
         23    2    1    2    0    0 -0.35527136788E-14  0.71054273576E-14  0.35527136788E-14  0.91188000000E+02  0.91188000000E+02 0.  0.
    9900012    2    3    3    0    0  0.19800918234E+02 -0.34547254826E+02 -0.17263654891E+02  0.47787274671E+02  0.20000016535E+02 0.  0.
         12    1    3    3    0    0 -0.19800918234E+02  0.34547254826E+02  0.17263654891E+02  0.43400725329E+02  0.00000000000E+00 0. -1.
         11    1    4    4    0    0 -0.14197525334E+01 -0.59301233779E+01  0.22596366498E+00  0.61018948182E+01  0.51100000000E-03 0. -1.
        -11    1    4    4    0    0  0.18734130690E+02 -0.28181175252E+02 -0.12465950242E+02  0.36063086487E+02  0.51100000000E-03 0.  1.
         12    1    4    4    0    0  0.24865400776E+01 -0.43595619624E+00 -0.50236683144E+01  0.56222933662E+01  0.00000000000E+00 0. -1.
</event>
<event>
 8    1  0.4798632E-010  0.9118800E+02  0.7816164E-02  0.1184000E+00
        -11   -1    0    0    0    0  0.00000000000E+00  0.00000000000E+00  0.45593999997E+02  0.45594000000E+02  0.51100000000E-03 0. -1.
         11   -1    0    0    0    0 -0.00000000000E+00 -0.00000000000E+00 -0.45593999997E+02  0.45594000000E+02  0.51100000000E-03 0.  1.
         23    2    1    2    0    0  0.00000000000E+00  0.00000000000E+00  0.00000000000E+00  0.91188000000E+02  0.91188000000E+02 0.  0.
    9900012    2    3    3    0    0 -0.24881445091E+02  0.15410686735E+02  0.32047580864E+02  0.47787274031E+02  0.20000013615E+02 0.  0.
        -12    1    3    3    0    0  0.24881445091E+02 -0.15410686735E+02 -0.32047580864E+02  0.43400725969E+02  0.00000000000E+00 0.  1.
         11    1    4    4    0    0 -0.14574616782E+02  0.19472630474E+01  0.25278050945E+02  0.29243651406E+02  0.51100000000E-03 0. -1.
        -11    1    4    4    0    0 -0.27412683182E+01  0.61052936143E+01  0.30374556349E+01  0.73495101268E+01  0.51100000000E-03 0.  1.
         12    1    4    4    0    0 -0.75655599904E+01  0.73581300737E+01  0.37320742834E+01  0.11194112497E+02  0.00000000000E+00 0. -1.
</event>
<event>
 8    1  0.4798632E-010  0.9118800E+02  0.7816164E-02  0.1184000E+00
        -11   -1    0    0    0    0  0.00000000000E+00  0.00000000000E+00  0.45593999997E+02  0.45594000000E+02  0.51100000000E-03 0. -1.
         11   -1    0    0    0    0 -0.00000000000E+00 -0.00000000000E+00 -0.45593999997E+02  0.45594000000E+02  0.51100000000E-03 0.  1.
         23    2    1    2    0    0  0.17763568394E-14 -0.17763568394E-14  0.00000000000E+00  0.91188000000E+02  0.91188000000E+02 0.  0.
    9900012    2    3    3    0    0 -0.12061809496E+02  0.81677193081E+01 -0.40883057351E+02  0.47787271142E+02  0.20000000447E+02 0.  0.
         12    1    3    3    0    0  0.12061809496E+02 -0.81677193081E+01  0.40883057351E+02  0.43400728858E+02  0.00000000000E+00 0. -1.
         11    1    4    4    0    0  0.15738852810E+01 -0.49848488725E+01 -0.12337226728E+02  0.13398992379E+02  0.51100000000E-03 0. -1.
        -11    1    4    4    0    0 -0.97778561554E+01  0.75194415715E+01 -0.18972517273E+02  0.22629734521E+02  0.51100000000E-03 0.  1.
         12    1    4    4    0    0 -0.38578386211E+01  0.56331266091E+01 -0.95733133493E+01  0.11758544243E+02  0.00000000000E+00 0. -1.
</event>
<event>
 8    1  0.4798632E-010  0.9118800E+02  0.7816164E-02  0.1184000E+00
        -11   -1    0    0    0    0  0.00000000000E+00  0.00000000000E+00  0.45593999997E+02  0.45594000000E+02  0.51100000000E-03 0. -1.
         11   -1    0    0    0    0 -0.00000000000E+00 -0.00000000000E+00 -0.45593999997E+02  0.45594000000E+02  0.51100000000E-03 0.  1.
         23    2    1    2    0    0  0.35527136788E-14  0.88817841970E-15  0.00000000000E+00  0.91188000000E+02  0.91188000000E+02 0.  0.
    9900012    2    3    3    0    0  0.27777620928E+02  0.94053240732E+00  0.33333795143E+02  0.47787277376E+02  0.20000028870E+02 0.  0.
        -12    1    3    3    0    0 -0.27777620928E+02 -0.94053240732E+00 -0.33333795143E+02  0.43400722624E+02  0.00000000000E+00 0.  1.
         11    1    4    4    0    0  0.27930489378E+00  0.54550614765E+00  0.33429697659E+01  0.33986814058E+01  0.51100000000E-03 0. -1.
        -11    1    4    4    0    0  0.12452481771E+02  0.78031448612E+01  0.79974791785E+01  0.16730602065E+02  0.51100000000E-03 0.  1.
        -12    1    4    4    0    0  0.15045834264E+02 -0.74081186016E+01  0.21993346198E+02  0.27657993906E+02  0.00000000000E+00 0.  1.
</event>
<event>
 8    1  0.4798632E-010  0.9118800E+02  0.7816164E-02  0.1184000E+00
        -11   -1    0    0    0    0  0.00000000000E+00  0.00000000000E+00  0.45593999997E+02  0.45594000000E+02  0.51100000000E-03 0. -1.
         11   -1    0    0    0    0 -0.00000000000E+00 -0.00000000000E+00 -0.45593999997E+02  0.45594000000E+02  0.51100000000E-03 0.  1.
         23    2    1    2    0    0 -0.17763568394E-14  0.00000000000E+00 -0.71054273576E-14  0.91188000000E+02  0.91188000000E+02 0.  0.
    9900012    2    3    3    0    0  0.14172522678E+02  0.22214282783E+02  0.34486051428E+02  0.47787279940E+02  0.20000040559E+02 0.  0.
        -12    1    3    3    0    0 -0.14172522678E+02 -0.22214282783E+02 -0.34486051428E+02  0.43400720060E+02  0.00000000000E+00 0.  1.
         11    1    4    4    0    0  0.57373912506E+01 -0.17804219498E+00  0.23137854558E+01  0.61889385828E+01  0.51100000000E-03 0. -1.
        -11    1    4    4    0    0 -0.16548058634E+01  0.11113222524E+02  0.13582296135E+02  0.17627276190E+02  0.51100000000E-03 0.  1.
         12    1    4    4    0    0  0.10089937291E+02  0.11279102454E+02  0.18589969837E+02  0.23971065167E+02  0.00000000000E+00 0. -1.
</event>
<event>
 8    1  0.4798632E-010  0.9118800E+02  0.7816164E-02  0.1184000E+00
        -11   -1    0    0    0    0  0.00000000000E+00  0.00000000000E+00  0.45593999997E+02  0.45594000000E+02  0.51100000000E-03 0. -1.
         11   -1    0    0    0    0 -0.00000000000E+00 -0.00000000000E+00 -0.45593999997E+02  0.45594000000E+02  0.51100000000E-03 0.  1.
         23    2    1    2    0    0  0.13322676296E-14  0.00000000000E+00  0.00000000000E+00  0.91188000000E+02  0.91188000000E+02 0.  0.
    9900012    2    3    3    0    0 -0.37286270064E+01 -0.35878311220E+02  0.24134359945E+02  0.47787271834E+02  0.20000003600E+02 0.  0.
        -12    1    3    3    0    0  0.37286270064E+01  0.35878311220E+02 -0.24134359945E+02  0.43400728166E+02  0.00000000000E+00 0.  1.
         11    1    4    4    0    0 -0.61617798196E+01 -0.33057202660E+02  0.18729311998E+02  0.38490691166E+02  0.51100000000E-03 0. -1.
        -11    1    4    4    0    0  0.43265733600E+01 -0.29740283225E+01  0.51941189411E+01  0.73853201243E+01  0.51100000000E-03 0.  1.
        -12    1    4    4    0    0 -0.18934205468E+01  0.15291976231E+00  0.21092900595E+00  0.19112605438E+01  0.00000000000E+00 0.  1.
</event>
<event>
 8    1  0.4798632E-010  0.9118800E+02  0.7816164E-02  0.1184000E+00
        -11   -1    0    0    0    0  0.00000000000E+00  0.00000000000E+00  0.45593999997E+02  0.45594000000E+02  0.51100000000E-03 0. -1.
         11   -1    0    0    0    0 -0.00000000000E+00 -0.00000000000E+00 -0.45593999997E+02  0.45594000000E+02  0.51100000000E-03 0.  1.
         23    2    1    2    0    0  0.00000000000E+00 -0.17763568394E-14  0.00000000000E+00  0.91188000000E+02  0.91188000000E+02 0.  0.
    9900012    2    3    3    0    0 -0.26059677069E+02 -0.12251026589E+02  0.32471970987E+02  0.47787270499E+02  0.19999997514E+02 0.  0.
        -12    1    3    3    0    0  0.26059677069E+02  0.12251026589E+02 -0.32471970987E+02  0.43400729501E+02  0.00000000000E+00 0.  1.
         11    1    4    4    0    0 -0.81145551191E+01  0.31241767263E+01  0.11034408468E+02  0.14048653156E+02  0.51100000000E-03 0. -1.
        -11    1    4    4    0    0 -0.10484740879E+02 -0.14715078386E+02  0.11999182900E+02  0.21689714469E+02  0.51100000000E-03 0.  1.
        -12    1    4    4    0    0 -0.74603810701E+01 -0.66012492890E+00  0.94383796192E+01  0.12048902874E+02  0.00000000000E+00 0.  1.
</event>
<event>
 8    1  0.4798632E-010  0.9118800E+02  0.7816164E-02  0.1184000E+00
        -11   -1    0    0    0    0  0.00000000000E+00  0.00000000000E+00  0.45593999997E+02  0.45594000000E+02  0.51100000000E-03 0. -1.
         11   -1    0    0    0    0 -0.00000000000E+00 -0.00000000000E+00 -0.45593999997E+02  0.45594000000E+02  0.51100000000E-03 0.  1.
         23    2    1    2    0    0  0.00000000000E+00 -0.17763568394E-14  0.00000000000E+00  0.91188000000E+02  0.91188000000E+02 0.  0.
    9900012    2    3    3    0    0 -0.11439978494E+02 -0.13381908668E+02  0.39669573364E+02  0.47787266845E+02  0.19999980851E+02 0.  0.
        -12    1    3    3    0    0  0.11439978494E+02  0.13381908668E+02 -0.39669573364E+02  0.43400733155E+02  0.00000000000E+00 0.  1.
         11    1    4    4    0    0 -0.10527245816E+02 -0.86175339815E+01  0.34858926303E+02  0.37419641095E+02  0.51100000000E-03 0. -1.
        -11    1    4    4    0    0 -0.22798584622E+01 -0.40798227721E+01 -0.63031020155E+00  0.47159304141E+01  0.51100000000E-03 0.  1.
        -12    1    4    4    0    0  0.13671257844E+01 -0.68455191490E+00  0.54409572626E+01  0.56516953358E+01  0.00000000000E+00 0.  1.
</event>
<event>
 8    1  0.4798632E-010  0.9118800E+02  0.7816164E-02  0.1184000E+00
        -11   -1    0    0    0    0  0.00000000000E+00  0.00000000000E+00  0.45593999997E+02  0.45594000000E+02  0.51100000000E-03 0. -1.
         11   -1    0    0    0    0 -0.00000000000E+00 -0.00000000000E+00 -0.45593999997E+02  0.45594000000E+02  0.51100000000E-03 0.  1.
         23    2    1    2    0    0  0.00000000000E+00  0.00000000000E+00 -0.35527136788E-14  0.91188000000E+02  0.91188000000E+02 0.  0.
    9900012    2    3    3    0    0 -0.31735956503E+02 -0.23684212066E+02 -0.17762610977E+02  0.47787272067E+02  0.20000004663E+02 0.  0.
         12    1    3    3    0    0  0.31735956503E+02  0.23684212066E+02  0.17762610977E+02  0.43400727933E+02  0.00000000000E+00 0. -1.
         11    1    4    4    0    0 -0.12754182511E+02 -0.33471421040E+01 -0.56979408617E+01  0.14364507026E+02  0.51100000000E-03 0. -1.
        -11    1    4    4    0    0 -0.51852820184E+01 -0.99741611593E+01  0.16752150800E+01  0.11365623004E+02  0.51100000000E-03 0.  1.
        -12    1    4    4    0    0 -0.13796491974E+02 -0.10362908803E+02 -0.13739885196E+02  0.22057142037E+02  0.00000000000E+00 0.  1.
</event>
<event>
 8    1  0.4798632E-010  0.9118800E+02  0.7816164E-02  0.1184000E+00
        -11   -1    0    0    0    0  0.00000000000E+00  0.00000000000E+00  0.45593999997E+02  0.45594000000E+02  0.51100000000E-03 0.  1.
         11   -1    0    0    0    0 -0.00000000000E+00 -0.00000000000E+00 -0.45593999997E+02  0.45594000000E+02  0.51100000000E-03 0. -1.
         23    2    1    2    0    0  0.00000000000E+00  0.00000000000E+00  0.00000000000E+00  0.91188000000E+02  0.91188000000E+02 0.  0.
    9900012    2    3    3    0    0 -0.38100813874E+02  0.15248908504E+02  0.14121690259E+02  0.47787270004E+02  0.19999995256E+02 0.  0.
        -12    1    3    3    0    0  0.38100813874E+02 -0.15248908504E+02 -0.14121690259E+02  0.43400729996E+02  0.00000000000E+00 0.  1.
         11    1    4    4    0    0 -0.19997492044E+02  0.47709822318E+01  0.24376318147E+01  0.20702753649E+02  0.51100000000E-03 0. -1.
        -11    1    4    4    0    0  0.18888740298E+01  0.17473408884E+01  0.17629258079E+01  0.31191269525E+01  0.51100000000E-03 0.  1.
        -12    1    4    4    0    0 -0.19992195860E+02  0.87305853837E+01  0.99211326365E+01  0.23965389403E+02  0.00000000000E+00 0.  1.
</event>
<event>
 8    1  0.4798632E-010  0.9118800E+02  0.7816164E-02  0.1184000E+00
        -11   -1    0    0    0    0  0.00000000000E+00  0.00000000000E+00  0.45593999997E+02  0.45594000000E+02  0.51100000000E-03 0. -1.
         11   -1    0    0    0    0 -0.00000000000E+00 -0.00000000000E+00 -0.45593999997E+02  0.45594000000E+02  0.51100000000E-03 0.  1.
         23    2    1    2    0    0  0.00000000000E+00  0.17763568394E-14  0.00000000000E+00  0.91188000000E+02  0.91188000000E+02 0.  0.
    9900012    2    3    3    0    0 -0.20174828522E+02 -0.87817163747E+01 -0.37409635169E+02  0.47787273602E+02  0.20000011661E+02 0.  0.
         12    1    3    3    0    0  0.20174828522E+02  0.87817163747E+01  0.37409635169E+02  0.43400726398E+02  0.00000000000E+00 0. -1.
         11    1    4    4    0    0 -0.87776990927E+01  0.52200065484E+01 -0.13808476379E+02  0.17174704944E+02  0.51100000000E-03 0. -1.
        -11    1    4    4    0    0 -0.59484139993E+00 -0.56506601307E+01 -0.52253010900E+01  0.77192984103E+01  0.51100000000E-03 0.  1.
         12    1    4    4    0    0 -0.10802288029E+02 -0.83510627924E+01 -0.18375857700E+02  0.22893270248E+02  0.00000000000E+00 0. -1.
</event>
<event>
 8    1  0.4798632E-010  0.9118800E+02  0.7816164E-02  0.1184000E+00
        -11   -1    0    0    0    0  0.00000000000E+00  0.00000000000E+00  0.45593999997E+02  0.45594000000E+02  0.51100000000E-03 0. -1.
         11   -1    0    0    0    0 -0.00000000000E+00 -0.00000000000E+00 -0.45593999997E+02  0.45594000000E+02  0.51100000000E-03 0.  1.
         23    2    1    2    0    0  0.00000000000E+00  0.17763568394E-14 -0.71054273576E-14  0.91188000000E+02  0.91188000000E+02 0.  0.
    9900012    2    3    3    0    0 -0.29135511827E+01 -0.81922193407E+01  0.42520841738E+02  0.47787271661E+02  0.20000002812E+02 0.  0.
        -12    1    3    3    0    0  0.29135511827E+01  0.81922193407E+01 -0.42520841738E+02  0.43400728339E+02  0.00000000000E+00 0.  1.
         11    1    4    4    0    0  0.15367508144E+00  0.30908584648E+01  0.18988917470E+02  0.19239438895E+02  0.51100000000E-03 0. -1.
        -11    1    4    4    0    0 -0.14251938897E+01 -0.57266241204E+01  0.19706611686E+01  0.62216482657E+01  0.51100000000E-03 0.  1.
         12    1    4    4    0    0 -0.16420323745E+01 -0.55564536852E+01  0.21561263100E+02  0.22326184500E+02  0.00000000000E+00 0. -1.
</event>
<event>
 8    1  0.4798632E-010  0.9118800E+02  0.7816164E-02  0.1184000E+00
        -11   -1    0    0    0    0  0.00000000000E+00  0.00000000000E+00  0.45593999997E+02  0.45594000000E+02  0.51100000000E-03 0. -1.
         11   -1    0    0    0    0 -0.00000000000E+00 -0.00000000000E+00 -0.45593999997E+02  0.45594000000E+02  0.51100000000E-03 0.  1.
         23    2    1    2    0    0  0.35527136788E-14  0.35527136788E-14  0.71054273576E-14  0.91188000000E+02  0.91188000000E+02 0.  0.
    9900012    2    3    3    0    0  0.17176949475E+02  0.16283723053E+02  0.36378787675E+02  0.47787269333E+02  0.19999992197E+02 0.  0.
        -12    1    3    3    0    0 -0.17176949475E+02 -0.16283723053E+02 -0.36378787675E+02  0.43400730667E+02  0.00000000000E+00 0.  1.
         11    1    4    4    0    0  0.15170484172E+02  0.18761818066E+02  0.24366891337E+02  0.34291322530E+02  0.51100000000E-03 0. -1.
        -11    1    4    4    0    0  0.19189742439E+00 -0.27300655565E+01  0.21914079687E+01  0.35060450241E+01  0.51100000000E-03 0.  1.
        -12    1    4    4    0    0  0.18145678787E+01  0.25197054290E+00  0.98204883697E+01  0.99899017793E+01  0.00000000000E+00 0.  1.
</event>
<event>
 8    1  0.4798632E-010  0.9118800E+02  0.7816164E-02  0.1184000E+00
        -11   -1    0    0    0    0  0.00000000000E+00  0.00000000000E+00  0.45593999997E+02  0.45594000000E+02  0.51100000000E-03 0. -1.
         11   -1    0    0    0    0 -0.00000000000E+00 -0.00000000000E+00 -0.45593999997E+02  0.45594000000E+02  0.51100000000E-03 0.  1.
         23    2    1    2    0    0  0.00000000000E+00  0.00000000000E+00  0.00000000000E+00  0.91188000000E+02  0.91188000000E+02 0.  0.
    9900012    2    3    3    0    0 -0.19801960898E+02 -0.38848843155E+01  0.38424121057E+02  0.47787273502E+02  0.20000011207E+02 0.  0.
        -12    1    3    3    0    0  0.19801960898E+02  0.38848843155E+01 -0.38424121057E+02  0.43400726498E+02  0.00000000000E+00 0.  1.
         11    1    4    4    0    0 -0.55634214059E+01 -0.48783413619E+01  0.95132206845E+01  0.12052022247E+02  0.51100000000E-03 0. -1.
        -11    1    4    4    0    0 -0.70507894328E+01 -0.32347747572E+01  0.25622629297E+02  0.26771188462E+02  0.51100000000E-03 0.  1.
        -12    1    4    4    0    0 -0.71877500592E+01  0.42282318036E+01  0.32882710756E+01  0.89640627934E+01  0.00000000000E+00 0.  1.
</event>
<event>
 8    1  0.4798632E-010  0.9118800E+02  0.7816164E-02  0.1184000E+00
        -11   -1    0    0    0    0  0.00000000000E+00  0.00000000000E+00  0.45593999997E+02  0.45594000000E+02  0.51100000000E-03 0. -1.
         11   -1    0    0    0    0 -0.00000000000E+00 -0.00000000000E+00 -0.45593999997E+02  0.45594000000E+02  0.51100000000E-03 0.  1.
         23    2    1    2    0    0  0.00000000000E+00  0.17763568394E-14  0.00000000000E+00  0.91188000000E+02  0.91188000000E+02 0.  0.
    9900012    2    3    3    0    0  0.91095366554E+01 -0.92824384174E+01  0.41406236136E+02  0.47787265997E+02  0.19999976986E+02 0.  0.
        -12    1    3    3    0    0 -0.91095366554E+01  0.92824384174E+01 -0.41406236136E+02  0.43400734003E+02  0.00000000000E+00 0.  1.
         11    1    4    4    0    0  0.48701676045E+01 -0.30553205477E+01  0.13071434136E+02  0.14279912702E+02  0.51100000000E-03 0. -1.
        -11    1    4    4    0    0  0.73375612161E+01 -0.65246422966E+01  0.28737796703E+02  0.30368926904E+02  0.51100000000E-03 0.  1.
        -12    1    4    4    0    0 -0.30981921651E+01  0.29752442688E+00 -0.40299470320E+00  0.31384263903E+01  0.00000000000E+00 0.  1.
</event>
<event>
 8    1  0.4798632E-010  0.9118800E+02  0.7816164E-02  0.1184000E+00
        -11   -1    0    0    0    0  0.00000000000E+00  0.00000000000E+00  0.45593999997E+02  0.45594000000E+02  0.51100000000E-03 0. -1.
         11   -1    0    0    0    0 -0.00000000000E+00 -0.00000000000E+00 -0.45593999997E+02  0.45594000000E+02  0.51100000000E-03 0.  1.
         23    2    1    2    0    0  0.00000000000E+00  0.35527136788E-14  0.71054273576E-14  0.91188000000E+02  0.91188000000E+02 0.  0.
    9900012    2    3    3    0    0 -0.84292718539E+01 -0.23560914406E+02 -0.35460591546E+02  0.47787275762E+02  0.20000021508E+02 0.  0.
         12    1    3    3    0    0  0.84292718539E+01  0.23560914406E+02  0.35460591546E+02  0.43400724238E+02  0.00000000000E+00 0. -1.
         11    1    4    4    0    0 -0.59120038674E+00 -0.30956783464E+01 -0.18511577734E+01  0.36550687661E+01  0.51100000000E-03 0. -1.
        -11    1    4    4    0    0  0.42515292458E+01 -0.14216237554E+02 -0.19809297300E+02  0.24750457994E+02  0.51100000000E-03 0.  1.
        -12    1    4    4    0    0 -0.12089600713E+02 -0.62489985056E+01 -0.13800136473E+02  0.19381749002E+02  0.00000000000E+00 0.  1.
</event>
<event>
 8    1  0.4798632E-010  0.9118800E+02  0.7816164E-02  0.1184000E+00
        -11   -1    0    0    0    0  0.00000000000E+00  0.00000000000E+00  0.45593999997E+02  0.45594000000E+02  0.51100000000E-03 0. -1.
         11   -1    0    0    0    0 -0.00000000000E+00 -0.00000000000E+00 -0.45593999997E+02  0.45594000000E+02  0.51100000000E-03 0.  1.
         23    2    1    2    0    0  0.88817841970E-15  0.35527136788E-14  0.71054273576E-14  0.91188000000E+02  0.91188000000E+02 0.  0.
    9900012    2    3    3    0    0  0.45638199084E+01 -0.21033444620E+02  0.37688047140E+02  0.47787272564E+02  0.20000006928E+02 0.  0.
        -12    1    3    3    0    0 -0.45638199084E+01  0.21033444620E+02 -0.37688047140E+02  0.43400727436E+02  0.00000000000E+00 0.  1.
         11    1    4    4    0    0 -0.21607376285E+01 -0.32205302339E+01  0.18316541776E+02  0.18722614801E+02  0.51100000000E-03 0. -1.
        -11    1    4    4    0    0  0.60331308495E+01 -0.85920684367E+01  0.42212989912E+01  0.11315550066E+02  0.51100000000E-03 0.  1.
        -12    1    4    4    0    0  0.69142668727E+00 -0.92208459492E+01  0.15150206373E+02  0.17749107697E+02  0.00000000000E+00 0.  1.
</event>
<event>
 8    1  0.4798632E-010  0.9118800E+02  0.7816164E-02  0.1184000E+00
        -11   -1    0    0    0    0  0.00000000000E+00  0.00000000000E+00  0.45593999997E+02  0.45594000000E+02  0.51100000000E-03 0. -1.
         11   -1    0    0    0    0 -0.00000000000E+00 -0.00000000000E+00 -0.45593999997E+02  0.45594000000E+02  0.51100000000E-03 0.  1.
         23    2    1    2    0    0 -0.35527136788E-14  0.17763568394E-14  0.00000000000E+00  0.91188000000E+02  0.91188000000E+02 0.  0.
    9900012    2    3    3    0    0  0.27295910175E+02 -0.12906184614E+02 -0.31176698602E+02  0.47787275936E+02  0.20000022300E+02 0.  0.
         12    1    3    3    0    0 -0.27295910175E+02  0.12906184614E+02  0.31176698602E+02  0.43400724064E+02  0.00000000000E+00 0. -1.
         11    1    4    4    0    0  0.18204960308E+02 -0.20253124860E+01 -0.25951347287E+02  0.31764680019E+02  0.51100000000E-03 0. -1.
        -11    1    4    4    0    0  0.92283323146E+01 -0.11112127615E+02 -0.43177239976E+01  0.15075948999E+02  0.51100000000E-03 0.  1.
         12    1    4    4    0    0 -0.13738244693E+00  0.23125548751E+00 -0.90762731785E+00  0.94664691693E+00  0.00000000000E+00 0. -1.
</event>
<event>
 8    1  0.4798632E-010  0.9118800E+02  0.7816164E-02  0.1184000E+00
        -11   -1    0    0    0    0  0.00000000000E+00  0.00000000000E+00  0.45593999997E+02  0.45594000000E+02  0.51100000000E-03 0. -1.
         11   -1    0    0    0    0 -0.00000000000E+00 -0.00000000000E+00 -0.45593999997E+02  0.45594000000E+02  0.51100000000E-03 0.  1.
         23    2    1    2    0    0 -0.71054273576E-14  0.00000000000E+00  0.35527136788E-14  0.91188000000E+02  0.91188000000E+02 0.  0.
    9900012    2    3    3    0    0  0.27584354372E+02 -0.10423207086E+02 -0.31844679156E+02  0.47787269100E+02  0.19999991135E+02 0.  0.
         12    1    3    3    0    0 -0.27584354372E+02  0.10423207086E+02  0.31844679156E+02  0.43400730900E+02  0.00000000000E+00 0. -1.
         11    1    4    4    0    0  0.31075052743E+01 -0.55035859501E+01  0.24827447105E+00  0.63251630661E+01  0.51100000000E-03 0. -1.
        -11    1    4    4    0    0  0.10606280605E+02 -0.18242500612E+01 -0.20374293442E+02  0.23041981470E+02  0.51100000000E-03 0.  1.
         12    1    4    4    0    0  0.13870568493E+02 -0.30953710752E+01 -0.11718660186E+02  0.18420124564E+02  0.00000000000E+00 0. -1.
</event>
<event>
 8    1  0.4798632E-010  0.9118800E+02  0.7816164E-02  0.1184000E+00
        -11   -1    0    0    0    0  0.00000000000E+00  0.00000000000E+00  0.45593999997E+02  0.45594000000E+02  0.51100000000E-03 0. -1.
         11   -1    0    0    0    0 -0.00000000000E+00 -0.00000000000E+00 -0.45593999997E+02  0.45594000000E+02  0.51100000000E-03 0.  1.
         23    2    1    2    0    0  0.00000000000E+00  0.00000000000E+00  0.00000000000E+00  0.91188000000E+02  0.91188000000E+02 0.  0.
    9900012    2    3    3    0    0 -0.24588277112E+02  0.26366850552E+02 -0.24162550312E+02  0.47787274004E+02  0.20000013496E+02 0.  0.
         12    1    3    3    0    0  0.24588277112E+02 -0.26366850552E+02  0.24162550312E+02  0.43400725996E+02  0.00000000000E+00 0. -1.
         11    1    4    4    0    0 -0.87613453762E+01  0.66000113544E+01 -0.49131407992E+00  0.10980105303E+02  0.51100000000E-03 0. -1.
        -11    1    4    4    0    0 -0.10486552069E+02  0.20054553716E+02 -0.17281330913E+02  0.28474502584E+02  0.51100000000E-03 0.  1.
        -12    1    4    4    0    0 -0.53403796675E+01 -0.28771451854E+00 -0.63899053190E+01  0.83326661173E+01  0.00000000000E+00 0.  1.
</event>
<event>
 8    1  0.4798632E-010  0.9118800E+02  0.7816164E-02  0.1184000E+00
        -11   -1    0    0    0    0  0.00000000000E+00  0.00000000000E+00  0.45593999997E+02  0.45594000000E+02  0.51100000000E-03 0. -1.
         11   -1    0    0    0    0 -0.00000000000E+00 -0.00000000000E+00 -0.45593999997E+02  0.45594000000E+02  0.51100000000E-03 0.  1.
         23    2    1    2    0    0 -0.35527136788E-14  0.17763568394E-14  0.35527136788E-14  0.91188000000E+02  0.91188000000E+02 0.  0.
    9900012    2    3    3    0    0 -0.26927229486E+02  0.14073106889E+02  0.30991858134E+02  0.47787270791E+02  0.19999998844E+02 0.  0.
        -12    1    3    3    0    0  0.26927229486E+02 -0.14073106889E+02 -0.30991858134E+02  0.43400729209E+02  0.00000000000E+00 0.  1.
         11    1    4    4    0    0 -0.34332654804E+01  0.75030622761E+01  0.10847426953E+01  0.83222546437E+01  0.51100000000E-03 0. -1.
        -11    1    4    4    0    0  0.54472800990E+00  0.20196336291E+00  0.20138394042E+01  0.20959645063E+01  0.51100000000E-03 0.  1.
         12    1    4    4    0    0 -0.24038692016E+02  0.63680812504E+01  0.27893276034E+02  0.37369051641E+02  0.00000000000E+00 0. -1.
</event>
<event>
 8    1  0.4798632E-010  0.9118800E+02  0.7816164E-02  0.1184000E+00
        -11   -1    0    0    0    0  0.00000000000E+00  0.00000000000E+00  0.45593999997E+02  0.45594000000E+02  0.51100000000E-03 0. -1.
         11   -1    0    0    0    0 -0.00000000000E+00 -0.00000000000E+00 -0.45593999997E+02  0.45594000000E+02  0.51100000000E-03 0.  1.
         23    2    1    2    0    0  0.00000000000E+00 -0.17763568394E-14  0.00000000000E+00  0.91188000000E+02  0.91188000000E+02 0.  0.
    9900012    2    3    3    0    0  0.35425466964E+02  0.80487453939E+01  0.23746096776E+02  0.47787272770E+02  0.20000007866E+02 0.  0.
        -12    1    3    3    0    0 -0.35425466964E+02 -0.80487453939E+01 -0.23746096776E+02  0.43400727230E+02  0.00000000000E+00 0.  1.
         11    1    4    4    0    0  0.28281279033E+02  0.79566988189E+01  0.23264987420E+02  0.37475317741E+02  0.51100000000E-03 0. -1.
        -11    1    4    4    0    0 -0.11992981177E+01 -0.31335606581E+00 -0.12726040986E+01  0.17765217285E+01  0.51100000000E-03 0.  1.
        -12    1    4    4    0    0  0.83434860488E+01  0.40540264084E+00  0.17537134536E+01  0.85354333003E+01  0.00000000000E+00 0.  1.
</event>
<event>
 8    1  0.4798632E-010  0.9118800E+02  0.7816164E-02  0.1184000E+00
        -11   -1    0    0    0    0  0.00000000000E+00  0.00000000000E+00  0.45593999997E+02  0.45594000000E+02  0.51100000000E-03 0. -1.
         11   -1    0    0    0    0 -0.00000000000E+00 -0.00000000000E+00 -0.45593999997E+02  0.45594000000E+02  0.51100000000E-03 0.  1.
         23    2    1    2    0    0  0.00000000000E+00  0.00000000000E+00  0.35527136788E-14  0.91188000000E+02  0.91188000000E+02 0.  0.
    9900012    2    3    3    0    0  0.24588033238E+02 -0.20198007825E+02  0.29514272935E+02  0.47787271832E+02  0.20000003590E+02 0.  0.
        -12    1    3    3    0    0 -0.24588033238E+02  0.20198007825E+02 -0.29514272935E+02  0.43400728168E+02  0.00000000000E+00 0.  1.
         11    1    4    4    0    0  0.22996657196E+02 -0.11422394442E+02  0.12513637447E+02  0.28564111388E+02  0.51100000000E-03 0. -1.
        -11    1    4    4    0    0  0.14902545680E+01 -0.74327223013E+01  0.13682521819E+02  0.15642174500E+02  0.51100000000E-03 0.  1.
         12    1    4    4    0    0  0.10112147429E+00 -0.13428910822E+01  0.33181136691E+01  0.35809859441E+01  0.00000000000E+00 0. -1.
</event>
<event>
 8    1  0.4798632E-010  0.9118800E+02  0.7816164E-02  0.1184000E+00
        -11   -1    0    0    0    0  0.00000000000E+00  0.00000000000E+00  0.45593999997E+02  0.45594000000E+02  0.51100000000E-03 0. -1.
         11   -1    0    0    0    0 -0.00000000000E+00 -0.00000000000E+00 -0.45593999997E+02  0.45594000000E+02  0.51100000000E-03 0.  1.
         23    2    1    2    0    0  0.00000000000E+00  0.00000000000E+00  0.00000000000E+00  0.91188000000E+02  0.91188000000E+02 0.  0.
    9900012    2    3    3    0    0 -0.51630306239E+01  0.11853428483E+02  0.41430215379E+02  0.47787269610E+02  0.19999993460E+02 0.  0.
        -12    1    3    3    0    0  0.51630306239E+01 -0.11853428483E+02 -0.41430215379E+02  0.43400730390E+02  0.00000000000E+00 0.  1.
         11    1    4    4    0    0  0.97490999578E+00  0.11084983546E+02  0.89947074710E+01  0.14308461568E+02  0.51100000000E-03 0. -1.
        -11    1    4    4    0    0 -0.40822512171E+01 -0.20144767294E+01  0.22561773118E+02  0.23016439733E+02  0.51100000000E-03 0.  1.
        -12    1    4    4    0    0 -0.20556894026E+01  0.27829216668E+01  0.98737347897E+01  0.10462368308E+02  0.00000000000E+00 0.  1.
</event>
<event>
 8    1  0.4798632E-010  0.9118800E+02  0.7816164E-02  0.1184000E+00
        -11   -1    0    0    0    0  0.00000000000E+00  0.00000000000E+00  0.45593999997E+02  0.45594000000E+02  0.51100000000E-03 0. -1.
         11   -1    0    0    0    0 -0.00000000000E+00 -0.00000000000E+00 -0.45593999997E+02  0.45594000000E+02  0.51100000000E-03 0.  1.
         23    2    1    2    0    0  0.35527136788E-14  0.17763568394E-14  0.71054273576E-14  0.91188000000E+02  0.91188000000E+02 0.  0.
    9900012    2    3    3    0    0 -0.22366423715E+02 -0.12475576990E+02  0.35038938019E+02  0.47787261429E+02  0.19999956159E+02 0.  0.
        -12    1    3    3    0    0  0.22366423715E+02  0.12475576990E+02 -0.35038938019E+02  0.43400738571E+02  0.00000000000E+00 0.  1.
         11    1    4    4    0    0 -0.53978764124E+00 -0.14282780302E+01 -0.16612499741E+01  0.22563467302E+01  0.51100000000E-03 0. -1.
        -11    1    4    4    0    0 -0.82499228575E+01 -0.64381144129E+01  0.71145348320E+01  0.12654135707E+02  0.51100000000E-03 0.  1.
         12    1    4    4    0    0 -0.13576713217E+02 -0.46091845469E+01  0.29585653161E+02  0.32876778992E+02  0.00000000000E+00 0. -1.
</event>
<event>
 8    1  0.4798632E-010  0.9118800E+02  0.7816164E-02  0.1184000E+00
        -11   -1    0    0    0    0  0.00000000000E+00  0.00000000000E+00  0.45593999997E+02  0.45594000000E+02  0.51100000000E-03 0. -1.
         11   -1    0    0    0    0 -0.00000000000E+00 -0.00000000000E+00 -0.45593999997E+02  0.45594000000E+02  0.51100000000E-03 0.  1.
         23    2    1    2    0    0 -0.17763568394E-14  0.00000000000E+00  0.00000000000E+00  0.91188000000E+02  0.91188000000E+02 0.  0.
    9900012    2    3    3    0    0  0.11976551542E+02 -0.21281149257E+02  0.35878937262E+02  0.47787271439E+02  0.20000001799E+02 0.  0.
        -12    1    3    3    0    0 -0.11976551542E+02  0.21281149257E+02 -0.35878937262E+02  0.43400728561E+02  0.00000000000E+00 0.  1.
         11    1    4    4    0    0  0.16938680106E+01 -0.95546974819E+01  0.16632166097E+02  0.19255918107E+02  0.51100000000E-03 0. -1.
        -11    1    4    4    0    0  0.11151525182E+02 -0.11944391985E+02  0.20972473177E+02  0.26587020239E+02  0.51100000000E-03 0.  1.
        -12    1    4    4    0    0 -0.86884164991E+00  0.21794020945E+00 -0.17257020112E+01  0.19443330936E+01  0.00000000000E+00 0.  1.
</event>
<event>
 8    1  0.4798632E-010  0.9118800E+02  0.7816164E-02  0.1184000E+00
        -11   -1    0    0    0    0  0.00000000000E+00  0.00000000000E+00  0.45593999997E+02  0.45594000000E+02  0.51100000000E-03 0. -1.
         11   -1    0    0    0    0 -0.00000000000E+00 -0.00000000000E+00 -0.45593999997E+02  0.45594000000E+02  0.51100000000E-03 0.  1.
         23    2    1    2    0    0  0.00000000000E+00  0.35527136788E-14 -0.35527136788E-14  0.91188000000E+02  0.91188000000E+02 0.  0.
    9900012    2    3    3    0    0  0.30129000623E+02  0.10291674580E+02 -0.29494872516E+02  0.47787277093E+02  0.20000027576E+02 0.  0.
         12    1    3    3    0    0 -0.30129000623E+02 -0.10291674580E+02  0.29494872516E+02  0.43400722907E+02  0.00000000000E+00 0. -1.
         11    1    4    4    0    0  0.24801057306E+01 -0.15902360877E+01  0.13838568580E+01  0.32549708622E+01  0.51100000000E-03 0. -1.
        -11    1    4    4    0    0  0.19255294483E+02  0.10264990439E+02 -0.28030255825E+02  0.35522269581E+02  0.51100000000E-03 0.  1.
         12    1    4    4    0    0  0.83936004094E+01  0.16169202282E+01 -0.28484735484E+01  0.90100366488E+01  0.00000000000E+00 0. -1.
</event>
<event>
 8    1  0.4798632E-010  0.9118800E+02  0.7816164E-02  0.1184000E+00
        -11   -1    0    0    0    0  0.00000000000E+00  0.00000000000E+00  0.45593999997E+02  0.45594000000E+02  0.51100000000E-03 0. -1.
         11   -1    0    0    0    0 -0.00000000000E+00 -0.00000000000E+00 -0.45593999997E+02  0.45594000000E+02  0.51100000000E-03 0.  1.
         23    2    1    2    0    0 -0.35527136788E-14 -0.83266726847E-16 -0.71054273576E-14  0.91188000000E+02  0.91188000000E+02 0.  0.
    9900012    2    3    3    0    0 -0.19826641944E+02  0.12998972518E+00 -0.38607131042E+02  0.47787271949E+02  0.20000004122E+02 0.  0.
         12    1    3    3    0    0  0.19826641944E+02 -0.12998972518E+00  0.38607131042E+02  0.43400728051E+02  0.00000000000E+00 0. -1.
         11    1    4    4    0    0 -0.12701957581E+02  0.37333635916E+01 -0.94547374242E+01  0.16268675119E+02  0.51100000000E-03 0. -1.
        -11    1    4    4    0    0 -0.91529109237E+01 -0.19994715947E+01 -0.21935793241E+02  0.23852729202E+02  0.51100000000E-03 0.  1.
         12    1    4    4    0    0  0.20282265607E+01 -0.16039022717E+01 -0.72166003771E+01  0.76658676274E+01  0.00000000000E+00 0. -1.
</event>
<event>
 8    1  0.4798632E-010  0.9118800E+02  0.7816164E-02  0.1184000E+00
        -11   -1    0    0    0    0  0.00000000000E+00  0.00000000000E+00  0.45593999997E+02  0.45594000000E+02  0.51100000000E-03 0. -1.
         11   -1    0    0    0    0 -0.00000000000E+00 -0.00000000000E+00 -0.45593999997E+02  0.45594000000E+02  0.51100000000E-03 0.  1.
         23    2    1    2    0    0  0.00000000000E+00 -0.35527136788E-14  0.00000000000E+00  0.91188000000E+02  0.91188000000E+02 0.  0.
    9900012    2    3    3    0    0  0.17128217698E+02 -0.29048214834E+02 -0.27321220272E+02  0.47787266093E+02  0.19999977423E+02 0.  0.
         12    1    3    3    0    0 -0.17128217698E+02  0.29048214834E+02  0.27321220272E+02  0.43400733907E+02  0.00000000000E+00 0. -1.
         11    1    4    4    0    0 -0.21379142429E+01  0.11775156125E+01 -0.24772146241E+01  0.34776159769E+01  0.51100000000E-03 0. -1.
        -11    1    4    4    0    0  0.35843503257E+01 -0.50643665320E+01 -0.82849244304E+01  0.10350620692E+02  0.51100000000E-03 0.  1.
         12    1    4    4    0    0  0.15681781616E+02 -0.25161363914E+02 -0.16559081218E+02  0.33959029424E+02  0.00000000000E+00 0. -1.
</event>
<event>
 8    1  0.4798632E-010  0.9118800E+02  0.7816164E-02  0.1184000E+00
        -11   -1    0    0    0    0  0.00000000000E+00  0.00000000000E+00  0.45593999997E+02  0.45594000000E+02  0.51100000000E-03 0. -1.
         11   -1    0    0    0    0 -0.00000000000E+00 -0.00000000000E+00 -0.45593999997E+02  0.45594000000E+02  0.51100000000E-03 0.  1.
         23    2    1    2    0    0 -0.71054273576E-14  0.00000000000E+00  0.00000000000E+00  0.91188000000E+02  0.91188000000E+02 0.  0.
    9900012    2    3    3    0    0  0.36102576577E+02  0.67830464920E+01 -0.23113150485E+02  0.47787268664E+02  0.19999989145E+02 0.  0.
         12    1    3    3    0    0 -0.36102576577E+02 -0.67830464920E+01  0.23113150485E+02  0.43400731336E+02  0.00000000000E+00 0. -1.
         11    1    4    4    0    0  0.53362868837E+00  0.47838508992E+00  0.28759914128E+01  0.29639397327E+01  0.51100000000E-03 0. -1.
        -11    1    4    4    0    0  0.16132792985E+02  0.38926421602E+01 -0.14976070128E+02  0.22354023110E+02  0.51100000000E-03 0.  1.
         12    1    4    4    0    0  0.19436154904E+02  0.24120192419E+01 -0.11013071770E+02  0.22469305821E+02  0.00000000000E+00 0. -1.
</event>
<event>
 8    1  0.4798632E-010  0.9118800E+02  0.7816164E-02  0.1184000E+00
        -11   -1    0    0    0    0  0.00000000000E+00  0.00000000000E+00  0.45593999997E+02  0.45594000000E+02  0.51100000000E-03 0. -1.
         11   -1    0    0    0    0 -0.00000000000E+00 -0.00000000000E+00 -0.45593999997E+02  0.45594000000E+02  0.51100000000E-03 0.  1.
         23    2    1    2    0    0  0.00000000000E+00 -0.35527136788E-14  0.00000000000E+00  0.91188000000E+02  0.91188000000E+02 0.  0.
    9900012    2    3    3    0    0 -0.33467304028E+02  0.26662693316E+02  0.72569788956E+01  0.47787269632E+02  0.19999993562E+02 0.  0.
        -12    1    3    3    0    0  0.33467304028E+02 -0.26662693316E+02 -0.72569788956E+01  0.43400730368E+02  0.00000000000E+00 0.  1.
         11    1    4    4    0    0 -0.71478846040E+01  0.22487810011E+01  0.49700893047E+01  0.89917216517E+01  0.51100000000E-03 0. -1.
        -11    1    4    4    0    0 -0.85627566740E+01  0.17842449206E+02  0.90127862674E+00  0.19811261922E+02  0.51100000000E-03 0.  1.
        -12    1    4    4    0    0 -0.17756662750E+02  0.65714631084E+01  0.13856109641E+01  0.18984286059E+02  0.00000000000E+00 0.  1.
</event>
<event>
 8    1  0.4798632E-010  0.9118800E+02  0.7816164E-02  0.1184000E+00
        -11   -1    0    0    0    0  0.00000000000E+00  0.00000000000E+00  0.45593999997E+02  0.45594000000E+02  0.51100000000E-03 0. -1.
         11   -1    0    0    0    0 -0.00000000000E+00 -0.00000000000E+00 -0.45593999997E+02  0.45594000000E+02  0.51100000000E-03 0.  1.
         23    2    1    2    0    0  0.00000000000E+00  0.00000000000E+00  0.00000000000E+00  0.91188000000E+02  0.91188000000E+02 0.  0.
    9900012    2    3    3    0    0 -0.22912014719E+02  0.24966035716E+02  0.27117514030E+02  0.47787275063E+02  0.20000018324E+02 0.  0.
        -12    1    3    3    0    0  0.22912014719E+02 -0.24966035716E+02 -0.27117514030E+02  0.43400724937E+02  0.00000000000E+00 0.  1.
         11    1    4    4    0    0 -0.84332563044E+01  0.18084338267E+02  0.87711253249E+01  0.21796691083E+02  0.51100000000E-03 0.  1.
        -11    1    4    4    0    0 -0.57984610730E+01 -0.90888418022E+00  0.26620082095E+01  0.64447272430E+01  0.51100000000E-03 0. -1.
         12    1    4    4    0    0 -0.86802973417E+01  0.77905816287E+01  0.15684380496E+02  0.19545856737E+02  0.00000000000E+00 0. -1.
</event>
<event>
 8    1  0.4798632E-010  0.9118800E+02  0.7816164E-02  0.1184000E+00
        -11   -1    0    0    0    0  0.00000000000E+00  0.00000000000E+00  0.45593999997E+02  0.45594000000E+02  0.51100000000E-03 0. -1.
         11   -1    0    0    0    0 -0.00000000000E+00 -0.00000000000E+00 -0.45593999997E+02  0.45594000000E+02  0.51100000000E-03 0.  1.
         23    2    1    2    0    0 -0.35527136788E-14  0.00000000000E+00  0.00000000000E+00  0.91188000000E+02  0.91188000000E+02 0.  0.
    9900012    2    3    3    0    0  0.17591018926E+02 -0.91454600907E+01 -0.38607519788E+02  0.47787263010E+02  0.19999963368E+02 0.  0.
         12    1    3    3    0    0 -0.17591018926E+02  0.91454600907E+01  0.38607519788E+02  0.43400736990E+02  0.00000000000E+00 0. -1.
         11    1    4    4    0    0  0.57045293579E+01  0.50039195655E+01 -0.19660758803E+02  0.21074304334E+02  0.51100000000E-03 0. -1.
        -11    1    4    4    0    0  0.51055747641E+01 -0.86853114159E+01 -0.11106170824E+02  0.14994951107E+02  0.51100000000E-03 0.  1.
         12    1    4    4    0    0  0.67809148041E+01 -0.54640682402E+01 -0.78405901602E+01  0.11718007568E+02  0.00000000000E+00 0. -1.
</event>
<event>
 8    1  0.4798632E-010  0.9118800E+02  0.7816164E-02  0.1184000E+00
        -11   -1    0    0    0    0  0.00000000000E+00  0.00000000000E+00  0.45593999997E+02  0.45594000000E+02  0.51100000000E-03 0. -1.
         11   -1    0    0    0    0 -0.00000000000E+00 -0.00000000000E+00 -0.45593999997E+02  0.45594000000E+02  0.51100000000E-03 0.  1.
         23    2    1    2    0    0  0.17763568394E-14  0.00000000000E+00  0.71054273576E-14  0.91188000000E+02  0.91188000000E+02 0.  0.
    9900012    2    3    3    0    0  0.96353149998E+01 -0.22260338416E+02  0.35989739175E+02  0.47787270888E+02  0.19999999289E+02 0.  0.
        -12    1    3    3    0    0 -0.96353149998E+01  0.22260338416E+02 -0.35989739175E+02  0.43400729112E+02  0.00000000000E+00 0.  1.
         11    1    4    4    0    0  0.46337804029E+01 -0.19373547657E+02  0.28536997157E+02  0.34801817145E+02  0.51100000000E-03 0. -1.
        -11    1    4    4    0    0  0.10512662919E+01 -0.56895556203E+01  0.38700350433E+01  0.69608458875E+01  0.51100000000E-03 0.  1.
         12    1    4    4    0    0  0.39502683049E+01  0.28027648609E+01  0.35827069746E+01  0.60246078555E+01  0.00000000000E+00 0. -1.
</event>
<event>
 8    1  0.4798632E-010  0.9118800E+02  0.7816164E-02  0.1184000E+00
        -11   -1    0    0    0    0  0.00000000000E+00  0.00000000000E+00  0.45593999997E+02  0.45594000000E+02  0.51100000000E-03 0. -1.
         11   -1    0    0    0    0 -0.00000000000E+00 -0.00000000000E+00 -0.45593999997E+02  0.45594000000E+02  0.51100000000E-03 0.  1.
         23    2    1    2    0    0  0.35527136788E-14  0.00000000000E+00  0.71054273576E-14  0.91188000000E+02  0.91188000000E+02 0.  0.
    9900012    2    3    3    0    0 -0.25434553125E+02  0.18242741286E+01  0.35119506844E+02  0.47787260032E+02  0.19999949792E+02 0.  0.
        -12    1    3    3    0    0  0.25434553125E+02 -0.18242741286E+01 -0.35119506844E+02  0.43400739968E+02  0.00000000000E+00 0.  1.
         11    1    4    4    0    0 -0.77351779000E+01 -0.13967558807E+01  0.71715108819E+01  0.10640228979E+02  0.51100000000E-03 0. -1.
        -11    1    4    4    0    0 -0.11587523756E+02  0.17476504919E+01  0.39920875277E+01  0.12379893058E+02  0.51100000000E-03 0.  1.
        -12    1    4    4    0    0 -0.61118514694E+01  0.14733795174E+01  0.23955908434E+02  0.24767137996E+02  0.00000000000E+00 0.  1.
</event>
<event>
 8    1  0.4798632E-010  0.9118800E+02  0.7816164E-02  0.1184000E+00
        -11   -1    0    0    0    0  0.00000000000E+00  0.00000000000E+00  0.45593999997E+02  0.45594000000E+02  0.51100000000E-03 0. -1.
         11   -1    0    0    0    0 -0.00000000000E+00 -0.00000000000E+00 -0.45593999997E+02  0.45594000000E+02  0.51100000000E-03 0.  1.
         23    2    1    2    0    0  0.71054273576E-14 -0.35527136788E-14  0.00000000000E+00  0.91188000000E+02  0.91188000000E+02 0.  0.
    9900012    2    3    3    0    0  0.32771220011E+02 -0.23293913875E+02 -0.16342075953E+02  0.47787277298E+02  0.20000028513E+02 0.  0.
         12    1    3    3    0    0 -0.32771220011E+02  0.23293913875E+02  0.16342075953E+02  0.43400722702E+02  0.00000000000E+00 0. -1.
         11    1    4    4    0    0  0.19702224281E+02 -0.12757303696E+02 -0.15964619559E+02  0.28386537604E+02  0.51100000000E-03 0. -1.
        -11    1    4    4    0    0  0.11179051030E+02 -0.12340681699E+02  0.45834918342E+00  0.16657541564E+02  0.51100000000E-03 0.  1.
         12    1    4    4    0    0  0.18899446998E+01  0.18040715201E+01 -0.83580557773E+00  0.27431981302E+01  0.00000000000E+00 0. -1.
</event>
<event>
 8    1  0.4798632E-010  0.9118800E+02  0.7816164E-02  0.1184000E+00
        -11   -1    0    0    0    0  0.00000000000E+00  0.00000000000E+00  0.45593999997E+02  0.45594000000E+02  0.51100000000E-03 0. -1.
         11   -1    0    0    0    0 -0.00000000000E+00 -0.00000000000E+00 -0.45593999997E+02  0.45594000000E+02  0.51100000000E-03 0.  1.
         23    2    1    2    0    0 -0.35527136788E-14  0.00000000000E+00  0.00000000000E+00  0.91188000000E+02  0.91188000000E+02 0.  0.
    9900012    2    3    3    0    0  0.28643072095E+02 -0.25088107142E+02  0.20827492885E+02  0.47787272369E+02  0.20000006040E+02 0.  0.
        -12    1    3    3    0    0 -0.28643072095E+02  0.25088107142E+02 -0.20827492885E+02  0.43400727631E+02  0.00000000000E+00 0.  1.
         11    1    4    4    0    0  0.14878986382E+02 -0.25885083210E+01  0.70704136337E+01  0.16675591753E+02  0.51100000000E-03 0. -1.
        -11    1    4    4    0    0  0.12042405935E+02 -0.22771104327E+02  0.14053737933E+02  0.29343658311E+02  0.51100000000E-03 0.  1.
        -12    1    4    4    0    0  0.17216797781E+01  0.27150550573E+00 -0.29665868126E+00  0.17680223050E+01  0.00000000000E+00 0.  1.
</event>
<event>
 8    1  0.4798632E-010  0.9118800E+02  0.7816164E-02  0.1184000E+00
        -11   -1    0    0    0    0  0.00000000000E+00  0.00000000000E+00  0.45593999997E+02  0.45594000000E+02  0.51100000000E-03 0. -1.
         11   -1    0    0    0    0 -0.00000000000E+00 -0.00000000000E+00 -0.45593999997E+02  0.45594000000E+02  0.51100000000E-03 0.  1.
         23    2    1    2    0    0  0.00000000000E+00  0.00000000000E+00  0.00000000000E+00  0.91188000000E+02  0.91188000000E+02 0.  0.
    9900012    2    3    3    0    0  0.12447785250E+02 -0.36476238070E+01  0.41417047668E+02  0.47787258594E+02  0.19999943232E+02 0.  0.
        -12    1    3    3    0    0 -0.12447785250E+02  0.36476238070E+01 -0.41417047668E+02  0.43400741406E+02  0.00000000000E+00 0.  1.
         11    1    4    4    0    0  0.13791120429E+02 -0.77223904219E+00  0.13678050441E+02  0.19439146585E+02  0.51100000000E-03 0.  1.
        -11    1    4    4    0    0 -0.28633330303E+01 -0.12526478058E+01  0.21474516711E+02  0.21700752771E+02  0.51100000000E-03 0. -1.
         12    1    4    4    0    0  0.15199978516E+01 -0.16227369589E+01  0.62644805158E+01  0.66473592381E+01  0.00000000000E+00 0. -1.
</event>
<event>
 8    1  0.4798632E-010  0.9118800E+02  0.7816164E-02  0.1184000E+00
        -11   -1    0    0    0    0  0.00000000000E+00  0.00000000000E+00  0.45593999997E+02  0.45594000000E+02  0.51100000000E-03 0. -1.
         11   -1    0    0    0    0 -0.00000000000E+00 -0.00000000000E+00 -0.45593999997E+02  0.45594000000E+02  0.51100000000E-03 0.  1.
         23    2    1    2    0    0  0.00000000000E+00  0.00000000000E+00 -0.71054273576E-14  0.91188000000E+02  0.91188000000E+02 0.  0.
    9900012    2    3    3    0    0  0.29253723698E+02 -0.16679004404E+02  0.27379805944E+02  0.47787270610E+02  0.19999998017E+02 0.  0.
        -12    1    3    3    0    0 -0.29253723698E+02  0.16679004404E+02 -0.27379805944E+02  0.43400729390E+02  0.00000000000E+00 0.  1.
         11    1    4    4    0    0  0.22580904734E+02 -0.15194325694E+02  0.17225282894E+02  0.32209861268E+02  0.51100000000E-03 0. -1.
        -11    1    4    4    0    0 -0.73061397101E+00  0.45323487252E+00 -0.14446319716E+01  0.16811247481E+01  0.51100000000E-03 0.  1.
        -12    1    4    4    0    0  0.74034329356E+01 -0.19379135817E+01  0.11599155021E+02  0.13896284593E+02  0.00000000000E+00 0.  1.
</event>
<event>
 8    1  0.4798632E-010  0.9118800E+02  0.7816164E-02  0.1184000E+00
        -11   -1    0    0    0    0  0.00000000000E+00  0.00000000000E+00  0.45593999997E+02  0.45594000000E+02  0.51100000000E-03 0. -1.
         11   -1    0    0    0    0 -0.00000000000E+00 -0.00000000000E+00 -0.45593999997E+02  0.45594000000E+02  0.51100000000E-03 0.  1.
         23    2    1    2    0    0  0.71054273576E-14  0.00000000000E+00  0.00000000000E+00  0.91188000000E+02  0.91188000000E+02 0.  0.
    9900012    2    3    3    0    0  0.35908185917E+02 -0.19946616620E+02  0.14012780413E+02  0.47787270221E+02  0.19999996246E+02 0.  0.
        -12    1    3    3    0    0 -0.35908185917E+02  0.19946616620E+02 -0.14012780413E+02  0.43400729779E+02  0.00000000000E+00 0.  1.
         11    1    4    4    0    0  0.18223546422E+02 -0.14375126535E+02  0.94824001786E+01  0.25073049685E+02  0.51100000000E-03 0. -1.
        -11    1    4    4    0    0 -0.19068621941E+01 -0.30704885617E+00  0.78518606035E+00  0.20849268184E+01  0.51100000000E-03 0.  1.
        -12    1    4    4    0    0  0.19591501689E+02 -0.52644412289E+01  0.37451941737E+01  0.20629293718E+02  0.00000000000E+00 0.  1.
</event>
<event>
 8    1  0.4798632E-010  0.9118800E+02  0.7816164E-02  0.1184000E+00
        -11   -1    0    0    0    0  0.00000000000E+00  0.00000000000E+00  0.45593999997E+02  0.45594000000E+02  0.51100000000E-03 0. -1.
         11   -1    0    0    0    0 -0.00000000000E+00 -0.00000000000E+00 -0.45593999997E+02  0.45594000000E+02  0.51100000000E-03 0.  1.
         23    2    1    2    0    0  0.17763568394E-14 -0.35527136788E-14 -0.35527136788E-14  0.91188000000E+02  0.91188000000E+02 0.  0.
    9900012    2    3    3    0    0 -0.15510069458E+02  0.30331681359E+02  0.26889592327E+02  0.47787270465E+02  0.19999997357E+02 0.  0.
        -12    1    3    3    0    0  0.15510069458E+02 -0.30331681359E+02 -0.26889592327E+02  0.43400729535E+02  0.00000000000E+00 0.  1.
         11    1    4    4    0    0 -0.11215553667E+02  0.32344339996E+02  0.24468273738E+02  0.42078989933E+02  0.51100000000E-03 0. -1.
        -11    1    4    4    0    0 -0.29073049323E+01 -0.13240747063E+01  0.26398854755E+01  0.41442238576E+01  0.51100000000E-03 0.  1.
        -12    1    4    4    0    0 -0.13872108589E+01 -0.68858393050E+00 -0.21856688605E+00  0.15640566742E+01  0.00000000000E+00 0.  1.
</event>
<event>
 8    1  0.4798632E-010  0.9118800E+02  0.7816164E-02  0.1184000E+00
        -11   -1    0    0    0    0  0.00000000000E+00  0.00000000000E+00  0.45593999997E+02  0.45594000000E+02  0.51100000000E-03 0. -1.
         11   -1    0    0    0    0 -0.00000000000E+00 -0.00000000000E+00 -0.45593999997E+02  0.45594000000E+02  0.51100000000E-03 0.  1.
         23    2    1    2    0    0  0.00000000000E+00 -0.88817841970E-15  0.00000000000E+00  0.91188000000E+02  0.91188000000E+02 0.  0.
    9900012    2    3    3    0    0  0.29277054208E+02  0.64236367341E+01  0.31388119386E+02  0.47787273617E+02  0.20000011729E+02 0.  0.
        -12    1    3    3    0    0 -0.29277054208E+02 -0.64236367341E+01 -0.31388119386E+02  0.43400726383E+02  0.00000000000E+00 0.  1.
         11    1    4    4    0    0  0.22341837989E+02  0.35644308917E+01  0.27084854873E+02  0.35290965644E+02  0.51100000000E-03 0. -1.
        -11    1    4    4    0    0  0.36642767541E+01  0.55165190102E+01  0.21690727540E+00  0.66261568912E+01  0.51100000000E-03 0.  1.
         12    1    4    4    0    0  0.32709394650E+01 -0.26573131678E+01  0.40863572374E+01  0.58701510822E+01  0.00000000000E+00 0. -1.
</event>
<event>
 8    1  0.4798632E-010  0.9118800E+02  0.7816164E-02  0.1184000E+00
        -11   -1    0    0    0    0  0.00000000000E+00  0.00000000000E+00  0.45593999997E+02  0.45594000000E+02  0.51100000000E-03 0. -1.
         11   -1    0    0    0    0 -0.00000000000E+00 -0.00000000000E+00 -0.45593999997E+02  0.45594000000E+02  0.51100000000E-03 0.  1.
         23    2    1    2    0    0  0.00000000000E+00  0.00000000000E+00  0.00000000000E+00  0.91188000000E+02  0.91188000000E+02 0.  0.
    9900012    2    3    3    0    0 -0.74526526275E+01 -0.35458111660E+02 -0.23891610365E+02  0.47787207847E+02  0.19999711854E+02 0.  0.
         12    1    3    3    0    0  0.74526526275E+01  0.35458111660E+02  0.23891610365E+02  0.43400792153E+02  0.00000000000E+00 0. -1.
         11    1    4    4    0    0 -0.64688622249E+01 -0.38106388666E+01  0.27482412323E+00  0.75128340602E+01  0.51100000000E-03 0. -1.
        -11    1    4    4    0    0  0.24566978566E+01 -0.16635690384E+02 -0.12775470371E+02  0.21118574819E+02  0.51100000000E-03 0.  1.
        -12    1    4    4    0    0 -0.34404882593E+01 -0.15011782410E+02 -0.11390964117E+02  0.19155798968E+02  0.00000000000E+00 0.  1.
</event>
<event>
 8    1  0.4798632E-010  0.9118800E+02  0.7816164E-02  0.1184000E+00
        -11   -1    0    0    0    0  0.00000000000E+00  0.00000000000E+00  0.45593999997E+02  0.45594000000E+02  0.51100000000E-03 0. -1.
         11   -1    0    0    0    0 -0.00000000000E+00 -0.00000000000E+00 -0.45593999997E+02  0.45594000000E+02  0.51100000000E-03 0.  1.
         23    2    1    2    0    0  0.33306690739E-15  0.00000000000E+00  0.00000000000E+00  0.91188000000E+02  0.91188000000E+02 0.  0.
    9900012    2    3    3    0    0  0.92741117048E+00  0.35226188274E+01 -0.43247592270E+02  0.47787272218E+02  0.20000005349E+02 0.  0.
         12    1    3    3    0    0 -0.92741117048E+00 -0.35226188274E+01  0.43247592270E+02  0.43400727782E+02  0.00000000000E+00 0. -1.
         11    1    4    4    0    0 -0.39304327947E+01  0.61485576015E+01 -0.68068967590E+01  0.99793239391E+01  0.51100000000E-03 0. -1.
        -11    1    4    4    0    0  0.53654503536E+01  0.11607723584E+01 -0.13881940298E+02  0.14927950853E+02  0.51100000000E-03 0.  1.
         12    1    4    4    0    0 -0.50760638842E+00 -0.37867111325E+01 -0.22558755213E+02  0.22879997426E+02  0.00000000000E+00 0. -1.
</event>
<event>
 8    1  0.4798632E-010  0.9118800E+02  0.7816164E-02  0.1184000E+00
        -11   -1    0    0    0    0  0.00000000000E+00  0.00000000000E+00  0.45593999997E+02  0.45594000000E+02  0.51100000000E-03 0. -1.
         11   -1    0    0    0    0 -0.00000000000E+00 -0.00000000000E+00 -0.45593999997E+02  0.45594000000E+02  0.51100000000E-03 0.  1.
         23    2    1    2    0    0 -0.71054273576E-14 -0.44408920985E-15  0.00000000000E+00  0.91188000000E+02  0.91188000000E+02 0.  0.
    9900012    2    3    3    0    0  0.41993192554E+02 -0.35681343127E+01 -0.10366460508E+02  0.47787270665E+02  0.19999998270E+02 0.  0.
         12    1    3    3    0    0 -0.41993192554E+02  0.35681343127E+01  0.10366460508E+02  0.43400729335E+02  0.00000000000E+00 0. -1.
         11    1    4    4    0    0  0.41749325437E+01  0.48359174636E+01  0.76367571470E+00  0.64342334677E+01  0.51100000000E-03 0. -1.
        -11    1    4    4    0    0  0.16534669682E+02 -0.71593472540E+01 -0.18903367572E+01  0.18116978995E+02  0.51100000000E-03 0.  1.
         12    1    4    4    0    0  0.21283590328E+02 -0.12447045223E+01 -0.92397994658E+01  0.23236058202E+02  0.00000000000E+00 0. -1.
</event>
<event>
 8    1  0.4798632E-010  0.9118800E+02  0.7816164E-02  0.1184000E+00
        -11   -1    0    0    0    0  0.00000000000E+00  0.00000000000E+00  0.45593999997E+02  0.45594000000E+02  0.51100000000E-03 0.  1.
         11   -1    0    0    0    0 -0.00000000000E+00 -0.00000000000E+00 -0.45593999997E+02  0.45594000000E+02  0.51100000000E-03 0. -1.
         23    2    1    2    0    0 -0.88817841970E-15  0.00000000000E+00  0.17763568394E-14  0.91188000000E+02  0.91188000000E+02 0.  0.
    9900012    2    3    3    0    0 -0.47030901516E+01 -0.41150308627E+02  0.12967489101E+02  0.47787277303E+02  0.20000028534E+02 0.  0.
        -12    1    3    3    0    0  0.47030901516E+01  0.41150308627E+02 -0.12967489101E+02  0.43400722697E+02  0.00000000000E+00 0.  1.
         11    1    4    4    0    0 -0.68568894286E+01 -0.28802670579E+02  0.58624227847E+01  0.30182424791E+02  0.51100000000E-03 0. -1.
        -11    1    4    4    0    0  0.36211015793E+01 -0.10944626654E+02  0.91539970583E+01  0.14720492235E+02  0.51100000000E-03 0.  1.
        -12    1    4    4    0    0 -0.14673023023E+01 -0.14030113940E+01 -0.20489307419E+01  0.28843602762E+01  0.00000000000E+00 0.  1.
</event>
<event>
 8    1  0.4798632E-010  0.9118800E+02  0.7816164E-02  0.1184000E+00
        -11   -1    0    0    0    0  0.00000000000E+00  0.00000000000E+00  0.45593999997E+02  0.45594000000E+02  0.51100000000E-03 0. -1.
         11   -1    0    0    0    0 -0.00000000000E+00 -0.00000000000E+00 -0.45593999997E+02  0.45594000000E+02  0.51100000000E-03 0.  1.
         23    2    1    2    0    0  0.00000000000E+00  0.35527136788E-14  0.35527136788E-14  0.91188000000E+02  0.91188000000E+02 0.  0.
    9900012    2    3    3    0    0  0.48567205981E+01 -0.29070403411E+02 -0.31858243840E+02  0.47787265098E+02  0.19999972890E+02 0.  0.
         12    1    3    3    0    0 -0.48567205981E+01  0.29070403411E+02  0.31858243840E+02  0.43400734902E+02  0.00000000000E+00 0. -1.
         11    1    4    4    0    0  0.96335083821E+00  0.28928452778E+01 -0.23376143342E+01  0.38420098484E+01  0.51100000000E-03 0. -1.
        -11    1    4    4    0    0  0.13516607093E+01 -0.22718462349E+02 -0.22955883899E+02  0.32325348011E+02  0.51100000000E-03 0.  1.
         12    1    4    4    0    0  0.25417090506E+01 -0.92447863396E+01 -0.65647456065E+01  0.11619907239E+02  0.00000000000E+00 0. -1.
</event>
<event>
 8    1  0.4798632E-010  0.9118800E+02  0.7816164E-02  0.1184000E+00
        -11   -1    0    0    0    0  0.00000000000E+00  0.00000000000E+00  0.45593999997E+02  0.45594000000E+02  0.51100000000E-03 0. -1.
         11   -1    0    0    0    0 -0.00000000000E+00 -0.00000000000E+00 -0.45593999997E+02  0.45594000000E+02  0.51100000000E-03 0.  1.
         23    2    1    2    0    0  0.00000000000E+00  0.00000000000E+00  0.35527136788E-14  0.91188000000E+02  0.91188000000E+02 0.  0.
    9900012    2    3    3    0    0  0.17617292759E+02  0.33024483094E+02 -0.21969009762E+02  0.47787275609E+02  0.20000020811E+02 0.  0.
         12    1    3    3    0    0 -0.17617292759E+02 -0.33024483094E+02  0.21969009762E+02  0.43400724391E+02  0.00000000000E+00 0. -1.
         11    1    4    4    0    0  0.15350108898E+01  0.15209548218E+02 -0.14557533007E+02  0.21109438243E+02  0.51100000000E-03 0. -1.
        -11    1    4    4    0    0  0.76216168480E+01  0.11993912542E+02 -0.81495298022E+01  0.16381630496E+02  0.51100000000E-03 0.  1.
         12    1    4    4    0    0  0.84606650214E+01  0.58210223339E+01  0.73805304730E+00  0.10296206870E+02  0.00000000000E+00 0. -1.
</event>
<event>
 8    1  0.4798632E-010  0.9118800E+02  0.7816164E-02  0.1184000E+00
        -11   -1    0    0    0    0  0.00000000000E+00  0.00000000000E+00  0.45593999997E+02  0.45594000000E+02  0.51100000000E-03 0. -1.
         11   -1    0    0    0    0 -0.00000000000E+00 -0.00000000000E+00 -0.45593999997E+02  0.45594000000E+02  0.51100000000E-03 0.  1.
         23    2    1    2    0    0  0.71054273576E-14  0.71054273576E-14  0.88817841970E-15  0.91188000000E+02  0.91188000000E+02 0.  0.
    9900012    2    3    3    0    0  0.28734473428E+02  0.31624728751E+02  0.76046161137E+01  0.47787267080E+02  0.19999981924E+02 0.  0.
        -12    1    3    3    0    0 -0.28734473428E+02 -0.31624728751E+02 -0.76046161137E+01  0.43400732920E+02  0.00000000000E+00 0.  1.
         11    1    4    4    0    0  0.14632670163E+02  0.13124016474E+02 -0.27997874539E+01  0.19854310730E+02  0.51100000000E-03 0. -1.
        -11    1    4    4    0    0  0.73171350726E+01  0.10561474292E+02  0.11740216938E+02  0.17404536734E+02  0.51100000000E-03 0.  1.
        -12    1    4    4    0    0  0.67846681921E+01  0.79392379845E+01 -0.13358133703E+01  0.10528419616E+02  0.00000000000E+00 0.  1.
</event>
<event>
 8    1  0.4798632E-010  0.9118800E+02  0.7816164E-02  0.1184000E+00
        -11   -1    0    0    0    0  0.00000000000E+00  0.00000000000E+00  0.45593999997E+02  0.45594000000E+02  0.51100000000E-03 0. -1.
         11   -1    0    0    0    0 -0.00000000000E+00 -0.00000000000E+00 -0.45593999997E+02  0.45594000000E+02  0.51100000000E-03 0.  1.
         23    2    1    2    0    0  0.00000000000E+00 -0.35527136788E-14  0.00000000000E+00  0.91188000000E+02  0.91188000000E+02 0.  0.
    9900012    2    3    3    0    0 -0.21995355319E+02  0.24233341915E+02 -0.28505664965E+02  0.47787269004E+02  0.19999990695E+02 0.  0.
         12    1    3    3    0    0  0.21995355319E+02 -0.24233341915E+02  0.28505664965E+02  0.43400730996E+02  0.00000000000E+00 0. -1.
         11    1    4    4    0    0 -0.15568066392E+02  0.78714096672E+01 -0.23131149105E+02  0.28971949202E+02  0.51100000000E-03 0. -1.
        -11    1    4    4    0    0 -0.54132889527E+01  0.11155087854E+02 -0.53663823920E+01  0.13510652929E+02  0.51100000000E-03 0.  1.
         12    1    4    4    0    0 -0.10139999736E+01  0.52068443933E+01 -0.81334671781E-02  0.53046668733E+01  0.00000000000E+00 0. -1.
</event>
<event>
 8    1  0.4798632E-010  0.9118800E+02  0.7816164E-02  0.1184000E+00
        -11   -1    0    0    0    0  0.00000000000E+00  0.00000000000E+00  0.45593999997E+02  0.45594000000E+02  0.51100000000E-03 0. -1.
         11   -1    0    0    0    0 -0.00000000000E+00 -0.00000000000E+00 -0.45593999997E+02  0.45594000000E+02  0.51100000000E-03 0.  1.
         23    2    1    2    0    0  0.00000000000E+00  0.00000000000E+00  0.00000000000E+00  0.91188000000E+02  0.91188000000E+02 0.  0.
    9900012    2    3    3    0    0  0.26811377230E+02  0.24643127331E+02  0.23611226057E+02  0.47787266486E+02  0.19999979215E+02 0.  0.
        -12    1    3    3    0    0 -0.26811377230E+02 -0.24643127331E+02 -0.23611226057E+02  0.43400733514E+02  0.00000000000E+00 0.  1.
         11    1    4    4    0    0  0.20553893067E+02  0.21287599385E+02  0.17124052954E+02  0.34188559456E+02  0.51100000000E-03 0. -1.
        -11    1    4    4    0    0  0.79380940018E+01  0.38556914844E+01  0.23911633871E+01  0.91431589623E+01  0.51100000000E-03 0.  1.
         12    1    4    4    0    0 -0.16806098387E+01 -0.50016353836E+00  0.40960097153E+01  0.44555480676E+01  0.00000000000E+00 0. -1.
</event>
<event>
 8    1  0.4798632E-010  0.9118800E+02  0.7816164E-02  0.1184000E+00
        -11   -1    0    0    0    0  0.00000000000E+00  0.00000000000E+00  0.45593999997E+02  0.45594000000E+02  0.51100000000E-03 0. -1.
         11   -1    0    0    0    0 -0.00000000000E+00 -0.00000000000E+00 -0.45593999997E+02  0.45594000000E+02  0.51100000000E-03 0.  1.
         23    2    1    2    0    0  0.00000000000E+00  0.00000000000E+00  0.00000000000E+00  0.91188000000E+02  0.91188000000E+02 0.  0.
    9900012    2    3    3    0    0  0.12267572050E+02  0.12371084295E+02 -0.39750301379E+02  0.47787268320E+02  0.19999987577E+02 0.  0.
         12    1    3    3    0    0 -0.12267572050E+02 -0.12371084295E+02  0.39750301379E+02  0.43400731680E+02  0.00000000000E+00 0. -1.
         11    1    4    4    0    0  0.12209997914E+02  0.53998205632E+01 -0.16751206525E+02  0.21420668325E+02  0.51100000000E-03 0. -1.
        -11    1    4    4    0    0 -0.13026490929E+01  0.15305123060E+01 -0.19816732814E+02  0.19918390052E+02  0.51100000000E-03 0.  1.
        -12    1    4    4    0    0  0.13602232295E+01  0.54407514263E+01 -0.31823620400E+01  0.64482099431E+01  0.00000000000E+00 0.  1.
</event>
<event>
 8    1  0.4798632E-010  0.9118800E+02  0.7816164E-02  0.1184000E+00
        -11   -1    0    0    0    0  0.00000000000E+00  0.00000000000E+00  0.45593999997E+02  0.45594000000E+02  0.51100000000E-03 0. -1.
         11   -1    0    0    0    0 -0.00000000000E+00 -0.00000000000E+00 -0.45593999997E+02  0.45594000000E+02  0.51100000000E-03 0.  1.
         23    2    1    2    0    0  0.00000000000E+00  0.35527136788E-14  0.00000000000E+00  0.91188000000E+02  0.91188000000E+02 0.  0.
    9900012    2    3    3    0    0  0.17269933621E+02  0.16640091485E+02  0.36172917800E+02  0.47787271502E+02  0.20000002088E+02 0.  0.
        -12    1    3    3    0    0 -0.17269933621E+02 -0.16640091485E+02 -0.36172917800E+02  0.43400728498E+02  0.00000000000E+00 0.  1.
         11    1    4    4    0    0  0.13011906206E+02  0.11937894568E+02  0.31067335321E+02  0.35735169708E+02  0.51100000000E-03 0. -1.
        -11    1    4    4    0    0  0.18187148102E+01 -0.10410752398E+01 -0.17873939046E+01  0.27543308528E+01  0.51100000000E-03 0.  1.
        -12    1    4    4    0    0  0.24393126052E+01  0.57432721573E+01  0.68929763836E+01  0.92977709417E+01  0.00000000000E+00 0.  1.
</event>
<event>
 8    1  0.4798632E-010  0.9118800E+02  0.7816164E-02  0.1184000E+00
        -11   -1    0    0    0    0  0.00000000000E+00  0.00000000000E+00  0.45593999997E+02  0.45594000000E+02  0.51100000000E-03 0. -1.
         11   -1    0    0    0    0 -0.00000000000E+00 -0.00000000000E+00 -0.45593999997E+02  0.45594000000E+02  0.51100000000E-03 0.  1.
         23    2    1    2    0    0  0.00000000000E+00  0.00000000000E+00 -0.35527136788E-14  0.91188000000E+02  0.91188000000E+02 0.  0.
    9900012    2    3    3    0    0 -0.22895738668E+02 -0.28291471438E+02 -0.23643198287E+02  0.47787273848E+02  0.20000012784E+02 0.  0.
         12    1    3    3    0    0  0.22895738668E+02  0.28291471438E+02  0.23643198287E+02  0.43400726152E+02  0.00000000000E+00 0. -1.
         11    1    4    4    0    0  0.32456925029E+01 -0.29108278601E+01 -0.12796408762E+01  0.45436680873E+01  0.51100000000E-03 0. -1.
        -11    1    4    4    0    0 -0.16119741190E+02 -0.19269880803E+02 -0.17027797432E+02  0.30349962897E+02  0.51100000000E-03 0.  1.
        -12    1    4    4    0    0 -0.10021689981E+02 -0.61107627746E+01 -0.53357599789E+01  0.12893642864E+02  0.00000000000E+00 0.  1.
</event>
<event>
 8    1  0.4798632E-010  0.9118800E+02  0.7816164E-02  0.1184000E+00
        -11   -1    0    0    0    0  0.00000000000E+00  0.00000000000E+00  0.45593999997E+02  0.45594000000E+02  0.51100000000E-03 0.  1.
         11   -1    0    0    0    0 -0.00000000000E+00 -0.00000000000E+00 -0.45593999997E+02  0.45594000000E+02  0.51100000000E-03 0. -1.
         23    2    1    2    0    0  0.00000000000E+00  0.00000000000E+00  0.00000000000E+00  0.91188000000E+02  0.91188000000E+02 0.  0.
    9900012    2    3    3    0    0  0.25711094040E+02 -0.18837017432E+02  0.29457250629E+02  0.47787271929E+02  0.20000004032E+02 0.  0.
        -12    1    3    3    0    0 -0.25711094040E+02  0.18837017432E+02 -0.29457250629E+02  0.43400728071E+02  0.00000000000E+00 0.  1.
         11    1    4    4    0    0  0.41943575920E+01 -0.84540702357E+01  0.86089233122E+01  0.12774094881E+02  0.51100000000E-03 0. -1.
        -11    1    4    4    0    0  0.18721761420E+02 -0.28375975465E+01  0.97313736421E+01  0.21289808448E+02  0.51100000000E-03 0.  1.
        -12    1    4    4    0    0  0.27949750281E+01 -0.75453496501E+01  0.11116953674E+02  0.13723368601E+02  0.00000000000E+00 0.  1.
</event>
<event>
 8    1  0.4798632E-010  0.9118800E+02  0.7816164E-02  0.1184000E+00
        -11   -1    0    0    0    0  0.00000000000E+00  0.00000000000E+00  0.45593999997E+02  0.45594000000E+02  0.51100000000E-03 0. -1.
         11   -1    0    0    0    0 -0.00000000000E+00 -0.00000000000E+00 -0.45593999997E+02  0.45594000000E+02  0.51100000000E-03 0.  1.
         23    2    1    2    0    0 -0.35527136788E-14 -0.55511151231E-15  0.00000000000E+00  0.91188000000E+02  0.91188000000E+02 0.  0.
    9900012    2    3    3    0    0  0.18217106016E+02 -0.43568845681E+00 -0.39389983534E+02  0.47787267531E+02  0.19999983980E+02 0.  0.
         12    1    3    3    0    0 -0.18217106016E+02  0.43568845681E+00  0.39389983534E+02  0.43400732469E+02  0.00000000000E+00 0. -1.
         11    1    4    4    0    0  0.20367792599E+00 -0.33334778497E+01 -0.13512269800E+02  0.13918871890E+02  0.51100000000E-03 0. -1.
        -11    1    4    4    0    0  0.79920589707E+01  0.70370759597E+01 -0.97708052166E+01  0.14452061427E+02  0.51100000000E-03 0.  1.
         12    1    4    4    0    0  0.10021369119E+02 -0.41392865668E+01 -0.16106908518E+02  0.19416334214E+02  0.00000000000E+00 0. -1.
</event>
<event>
 8    1  0.4798632E-010  0.9118800E+02  0.7816164E-02  0.1184000E+00
        -11   -1    0    0    0    0  0.00000000000E+00  0.00000000000E+00  0.45593999997E+02  0.45594000000E+02  0.51100000000E-03 0. -1.
         11   -1    0    0    0    0 -0.00000000000E+00 -0.00000000000E+00 -0.45593999997E+02  0.45594000000E+02  0.51100000000E-03 0.  1.
         23    2    1    2    0    0  0.00000000000E+00  0.00000000000E+00  0.00000000000E+00  0.91188000000E+02  0.91188000000E+02 0.  0.
    9900012    2    3    3    0    0  0.11651937288E+02  0.31148174804E+02  0.27886320487E+02  0.47787270668E+02  0.19999998285E+02 0.  0.
        -12    1    3    3    0    0 -0.11651937288E+02 -0.31148174804E+02 -0.27886320487E+02  0.43400729332E+02  0.00000000000E+00 0.  1.
         11    1    4    4    0    0  0.14775830741E+01  0.10183458825E+02  0.25067792931E+01  0.10591035269E+02  0.51100000000E-03 0. -1.
        -11    1    4    4    0    0  0.77049911179E+01  0.38128953148E+01  0.14118834854E+02  0.16530171103E+02  0.51100000000E-03 0.  1.
        -12    1    4    4    0    0  0.24693630958E+01  0.17151820664E+02  0.11260706341E+02  0.20666064296E+02  0.00000000000E+00 0.  1.
</event>
<event>
 8    1  0.4798632E-010  0.9118800E+02  0.7816164E-02  0.1184000E+00
        -11   -1    0    0    0    0  0.00000000000E+00  0.00000000000E+00  0.45593999997E+02  0.45594000000E+02  0.51100000000E-03 0. -1.
         11   -1    0    0    0    0 -0.00000000000E+00 -0.00000000000E+00 -0.45593999997E+02  0.45594000000E+02  0.51100000000E-03 0.  1.
         23    2    1    2    0    0  0.00000000000E+00  0.00000000000E+00 -0.71054273576E-14  0.91188000000E+02  0.91188000000E+02 0.  0.
    9900012    2    3    3    0    0 -0.85483833356E+01 -0.14747366352E+02 -0.39913200548E+02  0.47787271320E+02  0.20000001257E+02 0.  0.
         12    1    3    3    0    0  0.85483833356E+01  0.14747366352E+02  0.39913200548E+02  0.43400728680E+02  0.00000000000E+00 0. -1.
         11    1    4    4    0    0 -0.10097123019E+02 -0.14029254783E+02 -0.34677580816E+02  0.38746696563E+02  0.51100000000E-03 0. -1.
        -11    1    4    4    0    0  0.32848476009E+01 -0.29780083815E+01 -0.24989255300E+01  0.50895369875E+01  0.51100000000E-03 0.  1.
         12    1    4    4    0    0 -0.17361079176E+01  0.22598968123E+01 -0.27366942021E+01  0.39510377699E+01  0.00000000000E+00 0. -1.
</event>
<event>
 8    1  0.4798632E-010  0.9118800E+02  0.7816164E-02  0.1184000E+00
        -11   -1    0    0    0    0  0.00000000000E+00  0.00000000000E+00  0.45593999997E+02  0.45594000000E+02  0.51100000000E-03 0. -1.
         11   -1    0    0    0    0 -0.00000000000E+00 -0.00000000000E+00 -0.45593999997E+02  0.45594000000E+02  0.51100000000E-03 0.  1.
         23    2    1    2    0    0  0.00000000000E+00  0.00000000000E+00  0.00000000000E+00  0.91188000000E+02  0.91188000000E+02 0.  0.
    9900012    2    3    3    0    0 -0.64138569005E+01 -0.18203202939E+02  0.38873246978E+02  0.47787268575E+02  0.19999988742E+02 0.  0.
        -12    1    3    3    0    0  0.64138569005E+01  0.18203202939E+02 -0.38873246978E+02  0.43400731425E+02  0.00000000000E+00 0.  1.
         11    1    4    4    0    0 -0.86179513920E+01 -0.93878172799E+01  0.14958053567E+02  0.19650536030E+02  0.51100000000E-03 0. -1.
        -11    1    4    4    0    0  0.37962098834E+01 -0.11192759157E+02  0.17558521286E+02  0.21165791671E+02  0.51100000000E-03 0.  1.
        -12    1    4    4    0    0 -0.15921153919E+01  0.23773734985E+01  0.63566721253E+01  0.69709408749E+01  0.00000000000E+00 0.  1.
</event>
<event>
 8    1  0.4798632E-010  0.9118800E+02  0.7816164E-02  0.1184000E+00
        -11   -1    0    0    0    0  0.00000000000E+00  0.00000000000E+00  0.45593999997E+02  0.45594000000E+02  0.51100000000E-03 0. -1.
         11   -1    0    0    0    0 -0.00000000000E+00 -0.00000000000E+00 -0.45593999997E+02  0.45594000000E+02  0.51100000000E-03 0.  1.
         23    2    1    2    0    0  0.00000000000E+00  0.00000000000E+00  0.00000000000E+00  0.91188000000E+02  0.91188000000E+02 0.  0.
    9900012    2    3    3    0    0  0.14418276257E+02 -0.37590108877E+02  0.16208638636E+02  0.47787274867E+02  0.20000017430E+02 0.  0.
        -12    1    3    3    0    0 -0.14418276257E+02  0.37590108877E+02 -0.16208638636E+02  0.43400725133E+02  0.00000000000E+00 0.  1.
         11    1    4    4    0    0  0.14547545522E+02 -0.25340455643E+02  0.15385448266E+02  0.33022443755E+02  0.51100000000E-03 0. -1.
        -11    1    4    4    0    0 -0.49565699692E+00 -0.13398862467E+02  0.12932982593E+01  0.13470256565E+02  0.51100000000E-03 0.  1.
         12    1    4    4    0    0  0.36638773115E+00  0.11492092335E+01 -0.47010788901E+00  0.12945745476E+01  0.00000000000E+00 0. -1.
</event>
<event>
 8    1  0.4798632E-010  0.9118800E+02  0.7816164E-02  0.1184000E+00
        -11   -1    0    0    0    0  0.00000000000E+00  0.00000000000E+00  0.45593999997E+02  0.45594000000E+02  0.51100000000E-03 0.  1.
         11   -1    0    0    0    0 -0.00000000000E+00 -0.00000000000E+00 -0.45593999997E+02  0.45594000000E+02  0.51100000000E-03 0. -1.
         23    2    1    2    0    0  0.00000000000E+00 -0.35527136788E-14  0.00000000000E+00  0.91188000000E+02  0.91188000000E+02 0.  0.
    9900012    2    3    3    0    0 -0.36911274906E+02 -0.22352616455E+02  0.46411359306E+01  0.47787287790E+02  0.20000076351E+02 0.  0.
         12    1    3    3    0    0  0.36911274906E+02  0.22352616455E+02 -0.46411359306E+01  0.43400712210E+02  0.00000000000E+00 0. -1.
         11    1    4    4    0    0 -0.19116113358E+02 -0.11950233006E+01  0.21075411688E+01  0.19269032167E+02  0.51100000000E-03 0.  1.
        -11    1    4    4    0    0 -0.98269902899E+01 -0.16414784027E+02  0.18246964319E+01  0.19218334739E+02  0.51100000000E-03 0. -1.
         12    1    4    4    0    0 -0.79681712581E+01 -0.47428091277E+01  0.70889832993E+00  0.92999208847E+01  0.00000000000E+00 0. -1.
</event>
<event>
 8    1  0.4798632E-010  0.9118800E+02  0.7816164E-02  0.1184000E+00
        -11   -1    0    0    0    0  0.00000000000E+00  0.00000000000E+00  0.45593999997E+02  0.45594000000E+02  0.51100000000E-03 0. -1.
         11   -1    0    0    0    0 -0.00000000000E+00 -0.00000000000E+00 -0.45593999997E+02  0.45594000000E+02  0.51100000000E-03 0.  1.
         23    2    1    2    0    0  0.00000000000E+00  0.00000000000E+00 -0.35527136788E-14  0.91188000000E+02  0.91188000000E+02 0.  0.
    9900012    2    3    3    0    0  0.30942354154E+01  0.41806261859E+02  0.11237682849E+02  0.47787270292E+02  0.19999996568E+02 0.  0.
        -12    1    3    3    0    0 -0.30942354154E+01 -0.41806261859E+02 -0.11237682849E+02  0.43400729708E+02  0.00000000000E+00 0.  1.
         11    1    4    4    0    0 -0.99769060125E+00 -0.17100841666E+01  0.51970861954E-01  0.19805240782E+01  0.51100000000E-03 0. -1.
        -11    1    4    4    0    0  0.39465760073E+01  0.85620854793E+01  0.31524161272E+01  0.99409505399E+01  0.51100000000E-03 0.  1.
         12    1    4    4    0    0  0.14535000930E+00  0.34954260546E+02  0.80332958600E+01  0.35865795674E+02  0.00000000000E+00 0. -1.
</event>
<event>
 8    1  0.4798632E-010  0.9118800E+02  0.7816164E-02  0.1184000E+00
        -11   -1    0    0    0    0  0.00000000000E+00  0.00000000000E+00  0.45593999997E+02  0.45594000000E+02  0.51100000000E-03 0. -1.
         11   -1    0    0    0    0 -0.00000000000E+00 -0.00000000000E+00 -0.45593999997E+02  0.45594000000E+02  0.51100000000E-03 0.  1.
         23    2    1    2    0    0  0.00000000000E+00  0.35527136788E-14 -0.35527136788E-14  0.91188000000E+02  0.91188000000E+02 0.  0.
    9900012    2    3    3    0    0  0.27232481483E+02 -0.19167276511E+02  0.27832188582E+02  0.47787271229E+02  0.20000000842E+02 0.  0.
        -12    1    3    3    0    0 -0.27232481483E+02  0.19167276511E+02 -0.27832188582E+02  0.43400728771E+02  0.00000000000E+00 0.  1.
         11    1    4    4    0    0  0.20970966682E+02 -0.19586149381E+02  0.20218032976E+02  0.35102244214E+02  0.51100000000E-03 0. -1.
        -11    1    4    4    0    0 -0.10168423178E+01 -0.10319935910E+01 -0.64100292049E+00  0.15842550541E+01  0.51100000000E-03 0.  1.
         12    1    4    4    0    0  0.72783571183E+01  0.14508664612E+01  0.82551585267E+01  0.11100771961E+02  0.00000000000E+00 0. -1.
</event>
<event>
 8    1  0.4798632E-010  0.9118800E+02  0.7816164E-02  0.1184000E+00
        -11   -1    0    0    0    0  0.00000000000E+00  0.00000000000E+00  0.45593999997E+02  0.45594000000E+02  0.51100000000E-03 0. -1.
         11   -1    0    0    0    0 -0.00000000000E+00 -0.00000000000E+00 -0.45593999997E+02  0.45594000000E+02  0.51100000000E-03 0.  1.
         23    2    1    2    0    0  0.35527136788E-14  0.88817841970E-15  0.00000000000E+00  0.91188000000E+02  0.91188000000E+02 0.  0.
    9900012    2    3    3    0    0 -0.23431222107E+02  0.71307898482E+01  0.35829498856E+02  0.47787270495E+02  0.19999997495E+02 0.  0.
        -12    1    3    3    0    0  0.23431222107E+02 -0.71307898482E+01 -0.35829498856E+02  0.43400729505E+02  0.00000000000E+00 0.  1.
         11    1    4    4    0    0 -0.17935786103E+02 -0.20209243209E+01  0.24593321989E+02  0.30505869025E+02  0.51100000000E-03 0. -1.
        -11    1    4    4    0    0  0.11327104849E+01  0.48734078919E+01  0.60021507788E+01  0.78140227640E+01  0.51100000000E-03 0.  1.
        -12    1    4    4    0    0 -0.66281464886E+01  0.42783062771E+01  0.52340260888E+01  0.94673787066E+01  0.00000000000E+00 0.  1.
</event>
<event>
 8    1  0.4798632E-010  0.9118800E+02  0.7816164E-02  0.1184000E+00
        -11   -1    0    0    0    0  0.00000000000E+00  0.00000000000E+00  0.45593999997E+02  0.45594000000E+02  0.51100000000E-03 0. -1.
         11   -1    0    0    0    0 -0.00000000000E+00 -0.00000000000E+00 -0.45593999997E+02  0.45594000000E+02  0.51100000000E-03 0.  1.
         23    2    1    2    0    0  0.00000000000E+00  0.00000000000E+00  0.00000000000E+00  0.91188000000E+02  0.91188000000E+02 0.  0.
    9900012    2    3    3    0    0  0.17665218849E+02 -0.14703809264E+02  0.36815233681E+02  0.47787269651E+02  0.19999993645E+02 0.  0.
        -12    1    3    3    0    0 -0.17665218849E+02  0.14703809264E+02 -0.36815233681E+02  0.43400730349E+02  0.00000000000E+00 0.  1.
         11    1    4    4    0    0 -0.27728304174E+00 -0.66997480825E+01  0.14871934600E+02  0.16313734988E+02  0.51100000000E-03 0. -1.
        -11    1    4    4    0    0  0.15121568273E+02 -0.45151542444E+01  0.21891243438E+02  0.26986570446E+02  0.51100000000E-03 0.  1.
        -12    1    4    4    0    0  0.28209336185E+01 -0.34889069367E+01  0.52055642868E-01  0.44869642168E+01  0.00000000000E+00 0.  1.
</event>
<event>
 8    1  0.4798632E-010  0.9118800E+02  0.7816164E-02  0.1184000E+00
        -11   -1    0    0    0    0  0.00000000000E+00  0.00000000000E+00  0.45593999997E+02  0.45594000000E+02  0.51100000000E-03 0. -1.
         11   -1    0    0    0    0 -0.00000000000E+00 -0.00000000000E+00 -0.45593999997E+02  0.45594000000E+02  0.51100000000E-03 0.  1.
         23    2    1    2    0    0 -0.26645352591E-14  0.00000000000E+00 -0.71054273576E-14  0.91188000000E+02  0.91188000000E+02 0.  0.
    9900012    2    3    3    0    0 -0.70948928610E+01  0.24371413934E+01  0.42747466077E+02  0.47787273982E+02  0.20000013392E+02 0.  0.
        -12    1    3    3    0    0  0.70948928610E+01 -0.24371413934E+01 -0.42747466077E+02  0.43400726018E+02  0.00000000000E+00 0.  1.
         11    1    4    4    0    0 -0.14495762785E+01 -0.15736106835E+01  0.24562719799E+01  0.32574214143E+01  0.51100000000E-03 0. -1.
        -11    1    4    4    0    0  0.52829009919E+01  0.55001114953E+01  0.12671215212E+02  0.14789184040E+02  0.51100000000E-03 0.  1.
        -12    1    4    4    0    0 -0.10928217574E+02 -0.14893594184E+01  0.27619978885E+02  0.29740668527E+02  0.00000000000E+00 0.  1.
</event>
<event>
 8    1  0.4798632E-010  0.9118800E+02  0.7816164E-02  0.1184000E+00
        -11   -1    0    0    0    0  0.00000000000E+00  0.00000000000E+00  0.45593999997E+02  0.45594000000E+02  0.51100000000E-03 0. -1.
         11   -1    0    0    0    0 -0.00000000000E+00 -0.00000000000E+00 -0.45593999997E+02  0.45594000000E+02  0.51100000000E-03 0.  1.
         23    2    1    2    0    0 -0.35527136788E-14 -0.17763568394E-14  0.00000000000E+00  0.91188000000E+02  0.91188000000E+02 0.  0.
    9900012    2    3    3    0    0 -0.17270629676E+02 -0.12719615232E+02  0.37730103979E+02  0.47787262594E+02  0.19999961472E+02 0.  0.
        -12    1    3    3    0    0  0.17270629676E+02  0.12719615232E+02 -0.37730103979E+02  0.43400737406E+02  0.00000000000E+00 0.  1.
         11    1    4    4    0    0 -0.16508354445E+02 -0.36740216120E+01  0.21244273631E+02  0.27154067166E+02  0.51100000000E-03 0. -1.
        -11    1    4    4    0    0  0.17999354315E+00 -0.10590075633E+02  0.14313331123E+02  0.17805997520E+02  0.51100000000E-03 0.  1.
        -12    1    4    4    0    0 -0.94226877415E+00  0.15444820122E+01  0.21724992252E+01  0.28271979082E+01  0.00000000000E+00 0.  1.
</event>
<event>
 8    1  0.4798632E-010  0.9118800E+02  0.7816164E-02  0.1184000E+00
        -11   -1    0    0    0    0  0.00000000000E+00  0.00000000000E+00  0.45593999997E+02  0.45594000000E+02  0.51100000000E-03 0. -1.
         11   -1    0    0    0    0 -0.00000000000E+00 -0.00000000000E+00 -0.45593999997E+02  0.45594000000E+02  0.51100000000E-03 0.  1.
         23    2    1    2    0    0 -0.35527136788E-14  0.35527136788E-14  0.44408920985E-15  0.91188000000E+02  0.91188000000E+02 0.  0.
    9900012    2    3    3    0    0  0.31764342684E+02 -0.29367868129E+02 -0.34897343776E+01  0.47787269699E+02  0.19999993868E+02 0.  0.
         12    1    3    3    0    0 -0.31764342684E+02  0.29367868129E+02  0.34897343776E+01  0.43400730301E+02  0.00000000000E+00 0. -1.
         11    1    4    4    0    0  0.12502326525E+02 -0.17820614690E+01 -0.24840999273E+01  0.12870690126E+02  0.51100000000E-03 0. -1.
        -11    1    4    4    0    0  0.10095903557E+01 -0.56689098217E+01 -0.26680987503E+01  0.63462242676E+01  0.51100000000E-03 0.  1.
         12    1    4    4    0    0  0.18252425803E+02 -0.21916896839E+02  0.16624643000E+01  0.28570355305E+02  0.00000000000E+00 0. -1.
</event>
<event>
 8    1  0.4798632E-010  0.9118800E+02  0.7816164E-02  0.1184000E+00
        -11   -1    0    0    0    0  0.00000000000E+00  0.00000000000E+00  0.45593999997E+02  0.45594000000E+02  0.51100000000E-03 0.  1.
         11   -1    0    0    0    0 -0.00000000000E+00 -0.00000000000E+00 -0.45593999997E+02  0.45594000000E+02  0.51100000000E-03 0. -1.
         23    2    1    2    0    0  0.00000000000E+00 -0.22204460493E-15  0.00000000000E+00  0.91188000000E+02  0.91188000000E+02 0.  0.
    9900012    2    3    3    0    0 -0.24596579891E+02  0.30810803306E+00  0.35756632509E+02  0.47787269116E+02  0.19999991208E+02 0.  0.
        -12    1    3    3    0    0  0.24596579891E+02 -0.30810803306E+00 -0.35756632509E+02  0.43400730884E+02  0.00000000000E+00 0.  1.
         11    1    4    4    0    0 -0.17678250785E+02 -0.11321596666E+01  0.89129250068E+01  0.19830344646E+02  0.51100000000E-03 0. -1.
        -11    1    4    4    0    0 -0.60487358977E+01  0.22457334385E+01  0.20110976153E+02  0.21120650717E+02  0.51100000000E-03 0.  1.
        -12    1    4    4    0    0 -0.86959320756E+00 -0.80546573887E+00  0.67327313495E+01  0.68362737531E+01  0.00000000000E+00 0.  1.
</event>
<event>
 8    1  0.4798632E-010  0.9118800E+02  0.7816164E-02  0.1184000E+00
        -11   -1    0    0    0    0  0.00000000000E+00  0.00000000000E+00  0.45593999997E+02  0.45594000000E+02  0.51100000000E-03 0. -1.
         11   -1    0    0    0    0 -0.00000000000E+00 -0.00000000000E+00 -0.45593999997E+02  0.45594000000E+02  0.51100000000E-03 0.  1.
         23    2    1    2    0    0  0.00000000000E+00  0.00000000000E+00 -0.17763568394E-14  0.91188000000E+02  0.91188000000E+02 0.  0.
    9900012    2    3    3    0    0 -0.40243895910E+02 -0.83215667375E+01 -0.13957210915E+02  0.47787269966E+02  0.19999995082E+02 0.  0.
         12    1    3    3    0    0  0.40243895910E+02  0.83215667375E+01  0.13957210915E+02  0.43400730034E+02  0.00000000000E+00 0. -1.
         11    1    4    4    0    0 -0.94524396929E+01 -0.55794563315E+01 -0.10200911887E+02  0.14984577161E+02  0.51100000000E-03 0. -1.
        -11    1    4    4    0    0 -0.23590235039E+02  0.20858123065E+01 -0.99283940990E+00  0.23703070108E+02  0.51100000000E-03 0.  1.
         12    1    4    4    0    0 -0.72012211776E+01 -0.48279227125E+01 -0.27634596177E+01  0.90996226968E+01  0.00000000000E+00 0. -1.
</event>
<event>
 8    1  0.4798632E-010  0.9118800E+02  0.7816164E-02  0.1184000E+00
        -11   -1    0    0    0    0  0.00000000000E+00  0.00000000000E+00  0.45593999997E+02  0.45594000000E+02  0.51100000000E-03 0. -1.
         11   -1    0    0    0    0 -0.00000000000E+00 -0.00000000000E+00 -0.45593999997E+02  0.45594000000E+02  0.51100000000E-03 0.  1.
         23    2    1    2    0    0 -0.44408920985E-15  0.00000000000E+00  0.71054273576E-14  0.91188000000E+02  0.91188000000E+02 0.  0.
    9900012    2    3    3    0    0  0.11128652506E+01 -0.91980332298E+01 -0.42400243557E+02  0.47787274914E+02  0.20000017641E+02 0.  0.
         12    1    3    3    0    0 -0.11128652506E+01  0.91980332298E+01  0.42400243557E+02  0.43400725086E+02  0.00000000000E+00 0. -1.
         11    1    4    4    0    0  0.31489299042E+01 -0.19018742372E+01 -0.46264906632E+01  0.59107783983E+01  0.51100000000E-03 0. -1.
        -11    1    4    4    0    0 -0.33686767998E+01 -0.20318621101E+01 -0.22857971866E+00  0.39406466430E+01  0.51100000000E-03 0.  1.
        -12    1    4    4    0    0  0.13326121462E+01 -0.52642968825E+01 -0.37545173175E+02  0.37935849872E+02  0.00000000000E+00 0.  1.
</event>
<event>
 8    1  0.4798632E-010  0.9118800E+02  0.7816164E-02  0.1184000E+00
        -11   -1    0    0    0    0  0.00000000000E+00  0.00000000000E+00  0.45593999997E+02  0.45594000000E+02  0.51100000000E-03 0. -1.
         11   -1    0    0    0    0 -0.00000000000E+00 -0.00000000000E+00 -0.45593999997E+02  0.45594000000E+02  0.51100000000E-03 0.  1.
         23    2    1    2    0    0  0.00000000000E+00  0.88817841970E-15  0.71054273576E-14  0.91188000000E+02  0.91188000000E+02 0.  0.
    9900012    2    3    3    0    0 -0.16618302588E+02  0.77052235824E+01  0.39345708871E+02  0.47787271228E+02  0.20000000838E+02 0.  0.
        -12    1    3    3    0    0  0.16618302588E+02 -0.77052235824E+01 -0.39345708871E+02  0.43400728772E+02  0.00000000000E+00 0.  1.
         11    1    4    4    0    0 -0.71860065902E+00  0.39457917997E+01  0.44073901125E+01  0.59590895025E+01  0.51100000000E-03 0. -1.
        -11    1    4    4    0    0 -0.13561809395E+01  0.76900862195E+01  0.99289516442E+01  0.12631735186E+02  0.51100000000E-03 0.  1.
        -12    1    4    4    0    0 -0.14543520989E+02 -0.39306544368E+01  0.25009367114E+02  0.29196446539E+02  0.00000000000E+00 0.  1.
</event>
<event>
 8    1  0.4798632E-010  0.9118800E+02  0.7816164E-02  0.1184000E+00
        -11   -1    0    0    0    0  0.00000000000E+00  0.00000000000E+00  0.45593999997E+02  0.45594000000E+02  0.51100000000E-03 0. -1.
         11   -1    0    0    0    0 -0.00000000000E+00 -0.00000000000E+00 -0.45593999997E+02  0.45594000000E+02  0.51100000000E-03 0.  1.
         23    2    1    2    0    0  0.35527136788E-14 -0.17763568394E-14  0.00000000000E+00  0.91188000000E+02  0.91188000000E+02 0.  0.
    9900012    2    3    3    0    0  0.29925081067E+02 -0.11254866298E+02 -0.29350323632E+02  0.47787262799E+02  0.19999962408E+02 0.  0.
         12    1    3    3    0    0 -0.29925081067E+02  0.11254866298E+02  0.29350323632E+02  0.43400737201E+02  0.00000000000E+00 0. -1.
         11    1    4    4    0    0  0.18061953778E+01  0.40130756785E+01 -0.29649919215E+01  0.53064390602E+01  0.51100000000E-03 0. -1.
        -11    1    4    4    0    0  0.25980865372E+02 -0.10872557379E+02 -0.20524341989E+02  0.34849196315E+02  0.51100000000E-03 0.  1.
         12    1    4    4    0    0  0.21380203175E+01 -0.43953845974E+01 -0.58609897212E+01  0.76316274247E+01  0.00000000000E+00 0. -1.
</event>
<event>
 8    1  0.4798632E-010  0.9118800E+02  0.7816164E-02  0.1184000E+00
        -11   -1    0    0    0    0  0.00000000000E+00  0.00000000000E+00  0.45593999997E+02  0.45594000000E+02  0.51100000000E-03 0. -1.
         11   -1    0    0    0    0 -0.00000000000E+00 -0.00000000000E+00 -0.45593999997E+02  0.45594000000E+02  0.51100000000E-03 0.  1.
         23    2    1    2    0    0  0.00000000000E+00  0.00000000000E+00 -0.35527136788E-14  0.91188000000E+02  0.91188000000E+02 0.  0.
    9900012    2    3    3    0    0  0.76135808926E+01  0.30812838501E+02 -0.29601117749E+02  0.47787264955E+02  0.19999972235E+02 0.  0.
         12    1    3    3    0    0 -0.76135808926E+01 -0.30812838501E+02  0.29601117749E+02  0.43400735045E+02  0.00000000000E+00 0. -1.
         11    1    4    4    0    0  0.60455028188E+01  0.64819173937E+01 -0.13016422013E+02  0.15747717286E+02  0.51100000000E-03 0. -1.
        -11    1    4    4    0    0  0.36010078387E+01  0.21204871462E+02 -0.84829836003E+01  0.23120874598E+02  0.51100000000E-03 0.  1.
        -12    1    4    4    0    0 -0.20329297649E+01  0.31260496451E+01 -0.81017121354E+01  0.89186730704E+01  0.00000000000E+00 0.  1.
</event>
<event>
 8    1  0.4798632E-010  0.9118800E+02  0.7816164E-02  0.1184000E+00
        -11   -1    0    0    0    0  0.00000000000E+00  0.00000000000E+00  0.45593999997E+02  0.45594000000E+02  0.51100000000E-03 0. -1.
         11   -1    0    0    0    0 -0.00000000000E+00 -0.00000000000E+00 -0.45593999997E+02  0.45594000000E+02  0.51100000000E-03 0.  1.
         23    2    1    2    0    0 -0.88817841970E-15  0.00000000000E+00 -0.71054273576E-14  0.91188000000E+02  0.91188000000E+02 0.  0.
    9900012    2    3    3    0    0  0.22855236093E+01 -0.32207570706E+02  0.29001237589E+02  0.47787274077E+02  0.20000013827E+02 0.  0.
        -12    1    3    3    0    0 -0.22855236093E+01  0.32207570706E+02 -0.29001237589E+02  0.43400725923E+02  0.00000000000E+00 0.  1.
         11    1    4    4    0    0  0.11288362769E+01 -0.64241449228E+00  0.34424588883E+01  0.36793329802E+01  0.51100000000E-03 0. -1.
        -11    1    4    4    0    0 -0.56979098682E+01 -0.29896582564E+01  0.32220673813E+01  0.71962456758E+01  0.51100000000E-03 0.  1.
        -12    1    4    4    0    0  0.68545972006E+01 -0.28575497957E+02  0.22336711320E+02  0.36911695421E+02  0.00000000000E+00 0.  1.
</event>
<event>
 8    1  0.4798632E-010  0.9118800E+02  0.7816164E-02  0.1184000E+00
        -11   -1    0    0    0    0  0.00000000000E+00  0.00000000000E+00  0.45593999997E+02  0.45594000000E+02  0.51100000000E-03 0. -1.
         11   -1    0    0    0    0 -0.00000000000E+00 -0.00000000000E+00 -0.45593999997E+02  0.45594000000E+02  0.51100000000E-03 0.  1.
         23    2    1    2    0    0 -0.35527136788E-14  0.00000000000E+00  0.00000000000E+00  0.91188000000E+02  0.91188000000E+02 0.  0.
    9900012    2    3    3    0    0  0.19150085277E+02  0.20673359145E+00  0.38946816295E+02  0.47787274148E+02  0.20000014151E+02 0.  0.
        -12    1    3    3    0    0 -0.19150085277E+02 -0.20673359145E+00 -0.38946816295E+02  0.43400725852E+02  0.00000000000E+00 0.  1.
         11    1    4    4    0    0  0.40920492187E+01 -0.15311403940E+01  0.14968047904E+02  0.15592681489E+02  0.51100000000E-03 0. -1.
        -11    1    4    4    0    0  0.17510194948E+02  0.40623777351E+01  0.21377745471E+02  0.27930589712E+02  0.51100000000E-03 0.  1.
        -12    1    4    4    0    0 -0.24521588891E+01 -0.23245037496E+01  0.26010229210E+01  0.42640029473E+01  0.00000000000E+00 0.  1.
</event>
<event>
 8    1  0.4798632E-010  0.9118800E+02  0.7816164E-02  0.1184000E+00
        -11   -1    0    0    0    0  0.00000000000E+00  0.00000000000E+00  0.45593999997E+02  0.45594000000E+02  0.51100000000E-03 0. -1.
         11   -1    0    0    0    0 -0.00000000000E+00 -0.00000000000E+00 -0.45593999997E+02  0.45594000000E+02  0.51100000000E-03 0.  1.
         23    2    1    2    0    0 -0.17763568394E-14 -0.35527136788E-14 -0.71054273576E-14  0.91188000000E+02  0.91188000000E+02 0.  0.
    9900012    2    3    3    0    0  0.83146496340E+01 -0.31119575768E+02 -0.29087165160E+02  0.47787256094E+02  0.19999931836E+02 0.  0.
         12    1    3    3    0    0 -0.83146496340E+01  0.31119575768E+02  0.29087165160E+02  0.43400743906E+02  0.00000000000E+00 0. -1.
         11    1    4    4    0    0 -0.23019765707E+01 -0.19625892751E+01  0.18099571413E+01  0.35251663662E+01  0.51100000000E-03 0. -1.
        -11    1    4    4    0    0  0.95122507149E+01 -0.17388615635E+02 -0.20584303091E+02  0.28575521017E+02  0.51100000000E-03 0.  1.
         12    1    4    4    0    0  0.11043754899E+01 -0.11768370857E+02 -0.10312819211E+02  0.15686568711E+02  0.00000000000E+00 0. -1.
</event>
<event>
 8    1  0.4798632E-010  0.9118800E+02  0.7816164E-02  0.1184000E+00
        -11   -1    0    0    0    0  0.00000000000E+00  0.00000000000E+00  0.45593999997E+02  0.45594000000E+02  0.51100000000E-03 0. -1.
         11   -1    0    0    0    0 -0.00000000000E+00 -0.00000000000E+00 -0.45593999997E+02  0.45594000000E+02  0.51100000000E-03 0.  1.
         23    2    1    2    0    0 -0.71054273576E-14 -0.17763568394E-14  0.00000000000E+00  0.91188000000E+02  0.91188000000E+02 0.  0.
    9900012    2    3    3    0    0 -0.41232289052E+02 -0.10742082938E+02 -0.82540473827E+01  0.47787270691E+02  0.19999998391E+02 0.  0.
         12    1    3    3    0    0  0.41232289052E+02  0.10742082938E+02  0.82540473827E+01  0.43400729309E+02  0.00000000000E+00 0. -1.
         11    1    4    4    0    0 -0.43935975327E-02  0.16752236656E+01  0.56921953396E+00  0.17692949931E+01  0.51100000000E-03 0. -1.
        -11    1    4    4    0    0 -0.24182440214E+02 -0.10907404515E+02 -0.11095877271E+02  0.28755527828E+02  0.51100000000E-03 0.  1.
        -12    1    4    4    0    0 -0.17045455240E+02 -0.15099020886E+01  0.22726103547E+01  0.17262447871E+02  0.00000000000E+00 0.  1.
</event>
<event>
 8    1  0.4798632E-010  0.9118800E+02  0.7816164E-02  0.1184000E+00
        -11   -1    0    0    0    0  0.00000000000E+00  0.00000000000E+00  0.45593999997E+02  0.45594000000E+02  0.51100000000E-03 0. -1.
         11   -1    0    0    0    0 -0.00000000000E+00 -0.00000000000E+00 -0.45593999997E+02  0.45594000000E+02  0.51100000000E-03 0.  1.
         23    2    1    2    0    0  0.00000000000E+00  0.00000000000E+00  0.00000000000E+00  0.91188000000E+02  0.91188000000E+02 0.  0.
    9900012    2    3    3    0    0  0.21707468181E+02 -0.11759954270E+02  0.35694682494E+02  0.47787296577E+02  0.20000116414E+02 0.  0.
        -12    1    3    3    0    0 -0.21707468181E+02  0.11759954270E+02 -0.35694682494E+02  0.43400703423E+02  0.00000000000E+00 0.  1.
         11    1    4    4    0    0  0.41942597635E+01  0.29850070221E+01  0.35492297398E+01  0.62529284254E+01  0.51100000000E-03 0. -1.
        -11    1    4    4    0    0  0.24775546882E+01 -0.82985209015E+01  0.17720836205E+02  0.19723888117E+02  0.51100000000E-03 0.  1.
        -12    1    4    4    0    0  0.15035653729E+02 -0.64464403904E+01  0.14424616549E+02  0.21810480035E+02  0.00000000000E+00 0.  1.
</event>
<event>
 8    1  0.4798632E-010  0.9118800E+02  0.7816164E-02  0.1184000E+00
        -11   -1    0    0    0    0  0.00000000000E+00  0.00000000000E+00  0.45593999997E+02  0.45594000000E+02  0.51100000000E-03 0. -1.
         11   -1    0    0    0    0 -0.00000000000E+00 -0.00000000000E+00 -0.45593999997E+02  0.45594000000E+02  0.51100000000E-03 0.  1.
         23    2    1    2    0    0  0.00000000000E+00  0.00000000000E+00  0.00000000000E+00  0.91188000000E+02  0.91188000000E+02 0.  0.
    9900012    2    3    3    0    0  0.27080955543E+02  0.19776707275E+02 -0.27552253172E+02  0.47787274676E+02  0.20000016559E+02 0.  0.
         12    1    3    3    0    0 -0.27080955543E+02 -0.19776707275E+02  0.27552253172E+02  0.43400725324E+02  0.00000000000E+00 0. -1.
         11    1    4    4    0    0  0.87599140726E+01  0.18101230295E+02 -0.14991706146E+02  0.25082700935E+02  0.51100000000E-03 0. -1.
        -11    1    4    4    0    0  0.33897594088E+01  0.20261060050E+01 -0.31515680544E+01  0.50525197531E+01  0.51100000000E-03 0.  1.
         12    1    4    4    0    0  0.14931282061E+02 -0.35062902498E+00 -0.94089789716E+01  0.17652053988E+02  0.00000000000E+00 0. -1.
</event>
<event>
 8    1  0.4798632E-010  0.9118800E+02  0.7816164E-02  0.1184000E+00
        -11   -1    0    0    0    0  0.00000000000E+00  0.00000000000E+00  0.45593999997E+02  0.45594000000E+02  0.51100000000E-03 0. -1.
         11   -1    0    0    0    0 -0.00000000000E+00 -0.00000000000E+00 -0.45593999997E+02  0.45594000000E+02  0.51100000000E-03 0.  1.
         23    2    1    2    0    0  0.00000000000E+00 -0.13010426070E-17  0.00000000000E+00  0.91188000000E+02  0.91188000000E+02 0.  0.
    9900012    2    3    3    0    0 -0.41586574335E+02 -0.34347807192E-02 -0.12416912804E+02  0.47787275348E+02  0.20000019622E+02 0.  0.
         12    1    3    3    0    0  0.41586574335E+02  0.34347807192E-02  0.12416912804E+02  0.43400724652E+02  0.00000000000E+00 0. -1.
         11    1    4    4    0    0 -0.67677821819E+01 -0.25179613107E+01 -0.76721751943E+01  0.10535904199E+02  0.51100000000E-03 0. -1.
        -11    1    4    4    0    0 -0.32114736348E+01 -0.15105706300E+01 -0.40448624630E+01  0.53811057545E+01  0.51100000000E-03 0.  1.
         12    1    4    4    0    0 -0.31607318518E+02  0.40250971600E+01 -0.69987514675E+00  0.31870265394E+02  0.00000000000E+00 0. -1.
</event>
<event>
 8    1  0.4798632E-010  0.9118800E+02  0.7816164E-02  0.1184000E+00
        -11   -1    0    0    0    0  0.00000000000E+00  0.00000000000E+00  0.45593999997E+02  0.45594000000E+02  0.51100000000E-03 0. -1.
         11   -1    0    0    0    0 -0.00000000000E+00 -0.00000000000E+00 -0.45593999997E+02  0.45594000000E+02  0.51100000000E-03 0.  1.
         23    2    1    2    0    0  0.00000000000E+00 -0.35527136788E-14 -0.71054273576E-14  0.91188000000E+02  0.91188000000E+02 0.  0.
    9900012    2    3    3    0    0  0.18021236110E+02 -0.17032313210E+02 -0.35619642627E+02  0.47787267458E+02  0.19999983650E+02 0.  0.
         12    1    3    3    0    0 -0.18021236110E+02  0.17032313210E+02  0.35619642627E+02  0.43400732542E+02  0.00000000000E+00 0. -1.
         11    1    4    4    0    0  0.17624106048E+02 -0.57930815251E+01 -0.23090332478E+02  0.29619796788E+02  0.51100000000E-03 0. -1.
        -11    1    4    4    0    0  0.79310094189E+00 -0.77544838476E+01 -0.12414014644E+02  0.14658403347E+02  0.51100000000E-03 0.  1.
         12    1    4    4    0    0 -0.39597087955E+00 -0.34847478376E+01 -0.11529550578E+00  0.35090673238E+01  0.00000000000E+00 0. -1.
</event>
<event>
 8    1  0.4798632E-010  0.9118800E+02  0.7816164E-02  0.1184000E+00
        -11   -1    0    0    0    0  0.00000000000E+00  0.00000000000E+00  0.45593999997E+02  0.45594000000E+02  0.51100000000E-03 0. -1.
         11   -1    0    0    0    0 -0.00000000000E+00 -0.00000000000E+00 -0.45593999997E+02  0.45594000000E+02  0.51100000000E-03 0.  1.
         23    2    1    2    0    0 -0.17763568394E-14 -0.44408920985E-15  0.00000000000E+00  0.91188000000E+02  0.91188000000E+02 0.  0.
    9900012    2    3    3    0    0  0.70515316918E+01  0.27005362744E+01 -0.42738766834E+02  0.47787318141E+02  0.20000214731E+02 0.  0.
         12    1    3    3    0    0 -0.70515316918E+01 -0.27005362744E+01  0.42738766834E+02  0.43400681859E+02  0.00000000000E+00 0. -1.
         11    1    4    4    0    0 -0.31575270152E+01  0.64448630588E+01 -0.12865039640E+02  0.14731445343E+02  0.51100000000E-03 0. -1.
        -11    1    4    4    0    0  0.78049726746E+00  0.71490473921E-01 -0.15094033417E+02  0.15114368393E+02  0.51100000000E-03 0.  1.
         12    1    4    4    0    0  0.94285614396E+01 -0.38158172583E+01 -0.14779693777E+02  0.17941504405E+02  0.00000000000E+00 0. -1.
</event>
<event>
 8    1  0.4798632E-010  0.9118800E+02  0.7816164E-02  0.1184000E+00
        -11   -1    0    0    0    0  0.00000000000E+00  0.00000000000E+00  0.45593999997E+02  0.45594000000E+02  0.51100000000E-03 0. -1.
         11   -1    0    0    0    0 -0.00000000000E+00 -0.00000000000E+00 -0.45593999997E+02  0.45594000000E+02  0.51100000000E-03 0.  1.
         23    2    1    2    0    0  0.00000000000E+00  0.00000000000E+00  0.00000000000E+00  0.91188000000E+02  0.91188000000E+02 0.  0.
    9900012    2    3    3    0    0 -0.17585876967E+02  0.31513746617E+01  0.39552865690E+02  0.47787269415E+02  0.19999992572E+02 0.  0.
        -12    1    3    3    0    0  0.17585876967E+02 -0.31513746617E+01 -0.39552865690E+02  0.43400730585E+02  0.00000000000E+00 0.  1.
         11    1    4    4    0    0 -0.74990343045E+01 -0.55952297932E+01  0.29491842759E+02  0.30940441198E+02  0.51100000000E-03 0. -1.
        -11    1    4    4    0    0 -0.76548318960E+01  0.54050261907E+01  0.66957305591E+01  0.11517098917E+02  0.51100000000E-03 0.  1.
         12    1    4    4    0    0 -0.24320107669E+01  0.33415782642E+01  0.33652923724E+01  0.53297293006E+01  0.00000000000E+00 0. -1.
</event>
<event>
 8    1  0.4798632E-010  0.9118800E+02  0.7816164E-02  0.1184000E+00
        -11   -1    0    0    0    0  0.00000000000E+00  0.00000000000E+00  0.45593999997E+02  0.45594000000E+02  0.51100000000E-03 0. -1.
         11   -1    0    0    0    0 -0.00000000000E+00 -0.00000000000E+00 -0.45593999997E+02  0.45594000000E+02  0.51100000000E-03 0.  1.
         23    2    1    2    0    0 -0.35527136788E-14  0.00000000000E+00  0.17763568394E-14  0.91188000000E+02  0.91188000000E+02 0.  0.
    9900012    2    3    3    0    0  0.24554374272E+02 -0.32602143749E+02 -0.14758265916E+02  0.47787268603E+02  0.19999988870E+02 0.  0.
         12    1    3    3    0    0 -0.24554374272E+02  0.32602143749E+02  0.14758265916E+02  0.43400731397E+02  0.00000000000E+00 0. -1.
         11    1    4    4    0    0  0.58780624611E+00 -0.33633374945E+01  0.23736348450E+01  0.41583287417E+01  0.51100000000E-03 0. -1.
        -11    1    4    4    0    0  0.22346916742E+02 -0.24086046505E+02 -0.93579288904E+01  0.34162745169E+02  0.51100000000E-03 0.  1.
        -12    1    4    4    0    0  0.16196512845E+01 -0.51527597491E+01 -0.77739718705E+01  0.94661946926E+01  0.00000000000E+00 0.  1.
</event>
<event>
 8    1  0.4798632E-010  0.9118800E+02  0.7816164E-02  0.1184000E+00
        -11   -1    0    0    0    0  0.00000000000E+00  0.00000000000E+00  0.45593999997E+02  0.45594000000E+02  0.51100000000E-03 0.  1.
         11   -1    0    0    0    0 -0.00000000000E+00 -0.00000000000E+00 -0.45593999997E+02  0.45594000000E+02  0.51100000000E-03 0. -1.
         23    2    1    2    0    0  0.00000000000E+00  0.00000000000E+00  0.00000000000E+00  0.91188000000E+02  0.91188000000E+02 0.  0.
    9900012    2    3    3    0    0 -0.85962029116E+00 -0.36803142056E+02  0.22987280457E+02  0.47787247990E+02  0.19999894886E+02 0.  0.
        -12    1    3    3    0    0  0.85962029116E+00  0.36803142056E+02 -0.22987280457E+02  0.43400752010E+02  0.00000000000E+00 0.  1.
         11    1    4    4    0    0  0.13333415184E+01 -0.21568412759E+02  0.22743126497E+02  0.31372345014E+02  0.51100000000E-03 0. -1.
        -11    1    4    4    0    0 -0.12028613659E+01 -0.15142364424E+02  0.91140553341E+00  0.15217382696E+02  0.51100000000E-03 0.  1.
        -12    1    4    4    0    0 -0.99010044368E+00 -0.92364872934E-01 -0.66725157373E+00  0.11975202800E+01  0.00000000000E+00 0.  1.
</event>
<event>
 8    1  0.4798632E-010  0.9118800E+02  0.7816164E-02  0.1184000E+00
        -11   -1    0    0    0    0  0.00000000000E+00  0.00000000000E+00  0.45593999997E+02  0.45594000000E+02  0.51100000000E-03 0. -1.
         11   -1    0    0    0    0 -0.00000000000E+00 -0.00000000000E+00 -0.45593999997E+02  0.45594000000E+02  0.51100000000E-03 0.  1.
         23    2    1    2    0    0  0.00000000000E+00  0.00000000000E+00  0.00000000000E+00  0.91188000000E+02  0.91188000000E+02 0.  0.
    9900012    2    3    3    0    0  0.23624878413E+02 -0.24396934357E+02  0.27023661496E+02  0.47787267671E+02  0.19999984617E+02 0.  0.
        -12    1    3    3    0    0 -0.23624878413E+02  0.24396934357E+02 -0.27023661496E+02  0.43400732329E+02  0.00000000000E+00 0.  1.
         11    1    4    4    0    0  0.37332683333E+01  0.50107492174E+00  0.11269311844E+02  0.11882161345E+02  0.51100000000E-03 0. -1.
        -11    1    4    4    0    0  0.18829098750E+02 -0.23024882325E+02  0.13136581806E+02  0.32515380171E+02  0.51100000000E-03 0.  1.
        -12    1    4    4    0    0  0.10625113296E+01 -0.18731269536E+01  0.26177678462E+01  0.33897261551E+01  0.00000000000E+00 0.  1.
</event>
<event>
 8    1  0.4798632E-010  0.9118800E+02  0.7816164E-02  0.1184000E+00
        -11   -1    0    0    0    0  0.00000000000E+00  0.00000000000E+00  0.45593999997E+02  0.45594000000E+02  0.51100000000E-03 0. -1.
         11   -1    0    0    0    0 -0.00000000000E+00 -0.00000000000E+00 -0.45593999997E+02  0.45594000000E+02  0.51100000000E-03 0.  1.
         23    2    1    2    0    0  0.00000000000E+00  0.00000000000E+00  0.00000000000E+00  0.91188000000E+02  0.91188000000E+02 0.  0.
    9900012    2    3    3    0    0 -0.25113349049E+02 -0.98128446833E+01  0.34009572847E+02  0.47787271130E+02  0.20000000388E+02 0.  0.
        -12    1    3    3    0    0  0.25113349049E+02  0.98128446833E+01 -0.34009572847E+02  0.43400728870E+02  0.00000000000E+00 0.  1.
         11    1    4    4    0    0 -0.91844162645E+01 -0.34851563673E+01  0.66254873084E+01  0.11848919755E+02  0.51100000000E-03 0. -1.
        -11    1    4    4    0    0 -0.37742949423E+01 -0.78042247024E+01  0.40099109268E+01  0.95514716886E+01  0.51100000000E-03 0.  1.
        -12    1    4    4    0    0 -0.12154637843E+02  0.14765363864E+01  0.23374174612E+02  0.26386879686E+02  0.00000000000E+00 0.  1.
</event>
<event>
 8    1  0.4798632E-010  0.9118800E+02  0.7816164E-02  0.1184000E+00
        -11   -1    0    0    0    0  0.00000000000E+00  0.00000000000E+00  0.45593999997E+02  0.45594000000E+02  0.51100000000E-03 0. -1.
         11   -1    0    0    0    0 -0.00000000000E+00 -0.00000000000E+00 -0.45593999997E+02  0.45594000000E+02  0.51100000000E-03 0.  1.
         23    2    1    2    0    0  0.00000000000E+00  0.00000000000E+00  0.00000000000E+00  0.91188000000E+02  0.91188000000E+02 0.  0.
    9900012    2    3    3    0    0 -0.20728174582E+02 -0.15464633987E+02 -0.34854136284E+02  0.47787274868E+02  0.20000017435E+02 0.  0.
         12    1    3    3    0    0  0.20728174582E+02  0.15464633987E+02  0.34854136284E+02  0.43400725132E+02  0.00000000000E+00 0. -1.
         11    1    4    4    0    0 -0.19995787569E+01 -0.33845277656E+01 -0.14485548764E+02  0.15009479227E+02  0.51100000000E-03 0. -1.
        -11    1    4    4    0    0 -0.13433978072E+02 -0.14571512010E+02 -0.16107304430E+02  0.25539106980E+02  0.51100000000E-03 0.  1.
        -12    1    4    4    0    0 -0.52946177537E+01  0.24914057891E+01 -0.42612830900E+01  0.72386886614E+01  0.00000000000E+00 0.  1.
</event>
<event>
 8    1  0.4798632E-010  0.9118800E+02  0.7816164E-02  0.1184000E+00
        -11   -1    0    0    0    0  0.00000000000E+00  0.00000000000E+00  0.45593999997E+02  0.45594000000E+02  0.51100000000E-03 0. -1.
         11   -1    0    0    0    0 -0.00000000000E+00 -0.00000000000E+00 -0.45593999997E+02  0.45594000000E+02  0.51100000000E-03 0.  1.
         23    2    1    2    0    0  0.00000000000E+00  0.00000000000E+00 -0.35527136788E-14  0.91188000000E+02  0.91188000000E+02 0.  0.
    9900012    2    3    3    0    0 -0.27303197863E+02  0.25017090903E+02  0.22634126963E+02  0.47787272424E+02  0.20000006288E+02 0.  0.
        -12    1    3    3    0    0  0.27303197863E+02 -0.25017090903E+02 -0.22634126963E+02  0.43400727576E+02  0.00000000000E+00 0.  1.
         11    1    4    4    0    0 -0.10962448490E+02  0.13601206499E+02  0.44106216624E+01  0.18017260581E+02  0.51100000000E-03 0. -1.
        -11    1    4    4    0    0 -0.11926688968E+02  0.70951089486E+00  0.97323469969E+01  0.15409993308E+02  0.51100000000E-03 0.  1.
         12    1    4    4    0    0 -0.44140604057E+01  0.10706373509E+02  0.84911583035E+01  0.14360018534E+02  0.00000000000E+00 0. -1.
</event>
<event>
 8    1  0.4798632E-010  0.9118800E+02  0.7816164E-02  0.1184000E+00
        -11   -1    0    0    0    0  0.00000000000E+00  0.00000000000E+00  0.45593999997E+02  0.45594000000E+02  0.51100000000E-03 0. -1.
         11   -1    0    0    0    0 -0.00000000000E+00 -0.00000000000E+00 -0.45593999997E+02  0.45594000000E+02  0.51100000000E-03 0.  1.
         23    2    1    2    0    0  0.00000000000E+00  0.17763568394E-14  0.00000000000E+00  0.91188000000E+02  0.91188000000E+02 0.  0.
    9900012    2    3    3    0    0 -0.22985381313E+02  0.14083877966E+02  0.34013814172E+02  0.47787275038E+02  0.20000018210E+02 0.  0.
        -12    1    3    3    0    0  0.22985381313E+02 -0.14083877966E+02 -0.34013814172E+02  0.43400724962E+02  0.00000000000E+00 0.  1.
         11    1    4    4    0    0 -0.14396402216E+02  0.17230354617E+02  0.23489210458E+02  0.32494376825E+02  0.51100000000E-03 0. -1.
        -11    1    4    4    0    0 -0.61459910882E+01 -0.24442635890E+01  0.28388123665E+01  0.71976723225E+01  0.51100000000E-03 0.  1.
         12    1    4    4    0    0 -0.24429880086E+01 -0.70221306264E+00  0.76857913470E+01  0.80952258909E+01  0.00000000000E+00 0. -1.
</event>
<event>
 8    1  0.4798632E-010  0.9118800E+02  0.7816164E-02  0.1184000E+00
        -11   -1    0    0    0    0  0.00000000000E+00  0.00000000000E+00  0.45593999997E+02  0.45594000000E+02  0.51100000000E-03 0. -1.
         11   -1    0    0    0    0 -0.00000000000E+00 -0.00000000000E+00 -0.45593999997E+02  0.45594000000E+02  0.51100000000E-03 0.  1.
         23    2    1    2    0    0  0.35527136788E-14  0.00000000000E+00  0.00000000000E+00  0.91188000000E+02  0.91188000000E+02 0.  0.
    9900012    2    3    3    0    0 -0.22766589881E+02 -0.14236540254E+02  0.34097330820E+02  0.47787255049E+02  0.19999927071E+02 0.  0.
        -12    1    3    3    0    0  0.22766589881E+02  0.14236540254E+02 -0.34097330820E+02  0.43400744951E+02  0.00000000000E+00 0.  1.
         11    1    4    4    0    0 -0.14366538743E+02 -0.18939101786E+01  0.12336611501E+02  0.19030930477E+02  0.51100000000E-03 0. -1.
        -11    1    4    4    0    0 -0.78147484812E+01 -0.12697093735E+02  0.12459638802E+02  0.19430107629E+02  0.51100000000E-03 0.  1.
        -12    1    4    4    0    0 -0.58530265719E+00  0.35446365955E+00  0.93010805177E+01  0.93262169438E+01  0.00000000000E+00 0.  1.
</event>
<event>
 8    1  0.4798632E-010  0.9118800E+02  0.7816164E-02  0.1184000E+00
        -11   -1    0    0    0    0  0.00000000000E+00  0.00000000000E+00  0.45593999997E+02  0.45594000000E+02  0.51100000000E-03 0.  1.
         11   -1    0    0    0    0 -0.00000000000E+00 -0.00000000000E+00 -0.45593999997E+02  0.45594000000E+02  0.51100000000E-03 0. -1.
         23    2    1    2    0    0 -0.35527136788E-14 -0.71054273576E-14  0.88817841970E-15  0.91188000000E+02  0.91188000000E+02 0.  0.
    9900012    2    3    3    0    0  0.17260023815E+02  0.39213172510E+02 -0.69312356401E+01  0.47787270192E+02  0.19999996114E+02 0.  0.
        -12    1    3    3    0    0 -0.17260023815E+02 -0.39213172510E+02  0.69312356401E+01  0.43400729808E+02  0.00000000000E+00 0.  1.
         11    1    4    4    0    0  0.33616072525E+00  0.56297264891E+01 -0.52647057923E+01  0.77151767132E+01  0.51100000000E-03 0. -1.
        -11    1    4    4    0    0  0.13574743781E+02  0.23603184236E+02  0.48986138054E+01  0.27665509073E+02  0.51100000000E-03 0.  1.
        -12    1    4    4    0    0  0.33491193089E+01  0.99802617844E+01 -0.65651436532E+01  0.12406584406E+02  0.00000000000E+00 0.  1.
</event>
<event>
 8    1  0.4798632E-010  0.9118800E+02  0.7816164E-02  0.1184000E+00
        -11   -1    0    0    0    0  0.00000000000E+00  0.00000000000E+00  0.45593999997E+02  0.45594000000E+02  0.51100000000E-03 0. -1.
         11   -1    0    0    0    0 -0.00000000000E+00 -0.00000000000E+00 -0.45593999997E+02  0.45594000000E+02  0.51100000000E-03 0.  1.
         23    2    1    2    0    0  0.17763568394E-14  0.00000000000E+00  0.00000000000E+00  0.91188000000E+02  0.91188000000E+02 0.  0.
    9900012    2    3    3    0    0  0.11262952419E+02  0.20772243427E+02 -0.36404436087E+02  0.47787272345E+02  0.20000005929E+02 0.  0.
         12    1    3    3    0    0 -0.11262952419E+02 -0.20772243427E+02  0.36404436087E+02  0.43400727655E+02  0.00000000000E+00 0. -1.
         11    1    4    4    0    0  0.62812823045E+01  0.21808235148E+02 -0.19739893959E+02  0.30078514615E+02  0.51100000000E-03 0. -1.
        -11    1    4    4    0    0  0.25875342778E+01 -0.38927607650E+00 -0.13147169861E+02  0.13405034320E+02  0.51100000000E-03 0.  1.
         12    1    4    4    0    0  0.23941358369E+01 -0.64671564405E+00 -0.35173722663E+01  0.43037234099E+01  0.00000000000E+00 0. -1.
</event>
<event>
 8    1  0.4798632E-010  0.9118800E+02  0.7816164E-02  0.1184000E+00
        -11   -1    0    0    0    0  0.00000000000E+00  0.00000000000E+00  0.45593999997E+02  0.45594000000E+02  0.51100000000E-03 0. -1.
         11   -1    0    0    0    0 -0.00000000000E+00 -0.00000000000E+00 -0.45593999997E+02  0.45594000000E+02  0.51100000000E-03 0.  1.
         23    2    1    2    0    0  0.35527136788E-14 -0.35527136788E-14 -0.35527136788E-14  0.91188000000E+02  0.91188000000E+02 0.  0.
    9900012    2    3    3    0    0  0.20765308375E+02  0.25288280365E+02  0.28511897060E+02  0.47787269250E+02  0.19999991817E+02 0.  0.
        -12    1    3    3    0    0 -0.20765308375E+02 -0.25288280365E+02 -0.28511897060E+02  0.43400730750E+02  0.00000000000E+00 0.  1.
         11    1    4    4    0    0 -0.58577805541E+00  0.38344309436E+00  0.78954454518E+01  0.79264256561E+01  0.51100000000E-03 0.  1.
        -11    1    4    4    0    0  0.93747181895E+01  0.81768214829E+01  0.30495927120E+01  0.12808035238E+02  0.51100000000E-03 0. -1.
         12    1    4    4    0    0  0.11976368241E+02  0.16728015788E+02  0.17566858896E+02  0.27052808355E+02  0.00000000000E+00 0. -1.
</event>
<event>
 8    1  0.4798632E-010  0.9118800E+02  0.7816164E-02  0.1184000E+00
        -11   -1    0    0    0    0  0.00000000000E+00  0.00000000000E+00  0.45593999997E+02  0.45594000000E+02  0.51100000000E-03 0. -1.
         11   -1    0    0    0    0 -0.00000000000E+00 -0.00000000000E+00 -0.45593999997E+02  0.45594000000E+02  0.51100000000E-03 0.  1.
         23    2    1    2    0    0 -0.71054273576E-14  0.00000000000E+00  0.00000000000E+00  0.91188000000E+02  0.91188000000E+02 0.  0.
    9900012    2    3    3    0    0  0.32663198145E+02 -0.22257487466E+01 -0.28491790869E+02  0.47787301648E+02  0.20000139532E+02 0.  0.
         12    1    3    3    0    0 -0.32663198145E+02  0.22257487466E+01  0.28491790869E+02  0.43400698352E+02  0.00000000000E+00 0. -1.
         11    1    4    4    0    0  0.23244644020E+01 -0.51227845952E+01 -0.87822878227E+01  0.10429507967E+02  0.51100000000E-03 0. -1.
        -11    1    4    4    0    0  0.13508172981E+02 -0.27136805321E+01 -0.64725128919E+01  0.15222622071E+02  0.51100000000E-03 0.  1.
         12    1    4    4    0    0  0.16830560762E+02  0.56107163807E+01 -0.13236990154E+02  0.22135171610E+02  0.00000000000E+00 0. -1.
</event>
<event>
 8    1  0.4798632E-010  0.9118800E+02  0.7816164E-02  0.1184000E+00
        -11   -1    0    0    0    0  0.00000000000E+00  0.00000000000E+00  0.45593999997E+02  0.45594000000E+02  0.51100000000E-03 0. -1.
         11   -1    0    0    0    0 -0.00000000000E+00 -0.00000000000E+00 -0.45593999997E+02  0.45594000000E+02  0.51100000000E-03 0.  1.
         23    2    1    2    0    0  0.00000000000E+00  0.17763568394E-14  0.00000000000E+00  0.91188000000E+02  0.91188000000E+02 0.  0.
    9900012    2    3    3    0    0  0.20506501594E+02  0.14870097726E+02 -0.35241846656E+02  0.47787260724E+02  0.19999952946E+02 0.  0.
         12    1    3    3    0    0 -0.20506501594E+02 -0.14870097726E+02  0.35241846656E+02  0.43400739276E+02  0.00000000000E+00 0. -1.
         11    1    4    4    0    0 -0.13351550017E+01  0.39592631587E+01 -0.89613643589E+00  0.42733434699E+01  0.51100000000E-03 0. -1.
        -11    1    4    4    0    0  0.22960137864E+02  0.93551306008E+01 -0.31584653917E+02  0.40153166284E+02  0.51100000000E-03 0.  1.
        -12    1    4    4    0    0 -0.11184812686E+01  0.15557039669E+01 -0.27610563023E+01  0.33607509704E+01  0.00000000000E+00 0.  1.
</event>
<event>
 8    1  0.4798632E-010  0.9118800E+02  0.7816164E-02  0.1184000E+00
        -11   -1    0    0    0    0  0.00000000000E+00  0.00000000000E+00  0.45593999997E+02  0.45594000000E+02  0.51100000000E-03 0. -1.
         11   -1    0    0    0    0 -0.00000000000E+00 -0.00000000000E+00 -0.45593999997E+02  0.45594000000E+02  0.51100000000E-03 0.  1.
         23    2    1    2    0    0  0.00000000000E+00  0.00000000000E+00 -0.71054273576E-14  0.91188000000E+02  0.91188000000E+02 0.  0.
    9900012    2    3    3    0    0 -0.22410276025E+01 -0.16996075083E+02  0.39871471816E+02  0.47787273765E+02  0.20000012403E+02 0.  0.
        -12    1    3    3    0    0  0.22410276025E+01  0.16996075083E+02 -0.39871471816E+02  0.43400726235E+02  0.00000000000E+00 0.  1.
         11    1    4    4    0    0 -0.29358882755E+01 -0.15775271005E+02  0.14974068895E+02  0.21947695887E+02  0.51100000000E-03 0. -1.
        -11    1    4    4    0    0  0.84959254068E+00  0.27815304564E+01  0.10585902242E+02  0.10978162218E+02  0.51100000000E-03 0.  1.
         12    1    4    4    0    0 -0.15473186766E+00 -0.40023345346E+01  0.14311500680E+02  0.14861415659E+02  0.00000000000E+00 0. -1.
</event>
<event>
 8    1  0.4798632E-010  0.9118800E+02  0.7816164E-02  0.1184000E+00
        -11   -1    0    0    0    0  0.00000000000E+00  0.00000000000E+00  0.45593999997E+02  0.45594000000E+02  0.51100000000E-03 0. -1.
         11   -1    0    0    0    0 -0.00000000000E+00 -0.00000000000E+00 -0.45593999997E+02  0.45594000000E+02  0.51100000000E-03 0.  1.
         23    2    1    2    0    0  0.00000000000E+00  0.00000000000E+00  0.71054273576E-14  0.91188000000E+02  0.91188000000E+02 0.  0.
    9900012    2    3    3    0    0  0.16439946218E+02 -0.25657975841E+02 -0.30903387482E+02  0.47787275193E+02  0.20000018914E+02 0.  0.
         12    1    3    3    0    0 -0.16439946218E+02  0.25657975841E+02  0.30903387482E+02  0.43400724807E+02  0.00000000000E+00 0. -1.
         11    1    4    4    0    0 -0.17952477522E+01 -0.65724133907E+01 -0.86187718594E+00  0.68674860622E+01  0.51100000000E-03 0. -1.
        -11    1    4    4    0    0  0.30978510308E+01 -0.69671829280E+01 -0.45070461102E+01  0.88573011613E+01  0.51100000000E-03 0.  1.
         12    1    4    4    0    0  0.15137342939E+02 -0.12118379523E+02 -0.25534464186E+02  0.32062487969E+02  0.00000000000E+00 0. -1.
</event>
<event>
 8    1  0.4798632E-010  0.9118800E+02  0.7816164E-02  0.1184000E+00
        -11   -1    0    0    0    0  0.00000000000E+00  0.00000000000E+00  0.45593999997E+02  0.45594000000E+02  0.51100000000E-03 0. -1.
         11   -1    0    0    0    0 -0.00000000000E+00 -0.00000000000E+00 -0.45593999997E+02  0.45594000000E+02  0.51100000000E-03 0.  1.
         23    2    1    2    0    0  0.71054273576E-14  0.88817841970E-15  0.35527136788E-14  0.91188000000E+02  0.91188000000E+02 0.  0.
    9900012    2    3    3    0    0 -0.38747843689E+02 -0.22326334908E+01 -0.19422740110E+02  0.47787275626E+02  0.20000020888E+02 0.  0.
         12    1    3    3    0    0  0.38747843689E+02  0.22326334908E+01  0.19422740110E+02  0.43400724374E+02  0.00000000000E+00 0. -1.
         11    1    4    4    0    0 -0.53813171641E+01  0.23257897159E+01  0.20619661230E+00  0.58660369524E+01  0.51100000000E-03 0. -1.
        -11    1    4    4    0    0 -0.13623625462E+02  0.33601947671E+01 -0.14209331231E+02  0.19969956782E+02  0.51100000000E-03 0.  1.
        -12    1    4    4    0    0 -0.19742901063E+02 -0.79186179738E+01 -0.54196054913E+01  0.21951281891E+02  0.00000000000E+00 0.  1.
</event>
<event>
 8    1  0.4798632E-010  0.9118800E+02  0.7816164E-02  0.1184000E+00
        -11   -1    0    0    0    0  0.00000000000E+00  0.00000000000E+00  0.45593999997E+02  0.45594000000E+02  0.51100000000E-03 0.  1.
         11   -1    0    0    0    0 -0.00000000000E+00 -0.00000000000E+00 -0.45593999997E+02  0.45594000000E+02  0.51100000000E-03 0. -1.
         23    2    1    2    0    0  0.35527136788E-14  0.00000000000E+00  0.35527136788E-14  0.91188000000E+02  0.91188000000E+02 0.  0.
    9900012    2    3    3    0    0 -0.17580165816E+02  0.31078863857E+02 -0.24671140694E+02  0.47787271989E+02  0.20000004306E+02 0.  0.
         12    1    3    3    0    0  0.17580165816E+02 -0.31078863857E+02  0.24671140694E+02  0.43400728011E+02  0.00000000000E+00 0. -1.
         11    1    4    4    0    0 -0.34426069900E+01  0.47750625663E+01 -0.12316061646E+02  0.13650572886E+02  0.51100000000E-03 0. -1.
        -11    1    4    4    0    0 -0.11135802410E+02  0.26357844500E+02 -0.12269312801E+02  0.31133231423E+02  0.51100000000E-03 0.  1.
         12    1    4    4    0    0 -0.30017564161E+01 -0.54043209127E-01 -0.85766247196E-01  0.30034676791E+01  0.00000000000E+00 0. -1.
</event>
<event>
 8    1  0.4798632E-010  0.9118800E+02  0.7816164E-02  0.1184000E+00
        -11   -1    0    0    0    0  0.00000000000E+00  0.00000000000E+00  0.45593999997E+02  0.45594000000E+02  0.51100000000E-03 0. -1.
         11   -1    0    0    0    0 -0.00000000000E+00 -0.00000000000E+00 -0.45593999997E+02  0.45594000000E+02  0.51100000000E-03 0.  1.
         23    2    1    2    0    0 -0.26645352591E-14  0.35527136788E-14 -0.71054273576E-14  0.91188000000E+02  0.91188000000E+02 0.  0.
    9900012    2    3    3    0    0  0.59316473587E+01 -0.29806698129E+02  0.30983848976E+02  0.47787278911E+02  0.20000035866E+02 0.  0.
        -12    1    3    3    0    0 -0.59316473587E+01  0.29806698129E+02 -0.30983848976E+02  0.43400721089E+02  0.00000000000E+00 0.  1.
         11    1    4    4    0    0 -0.56424426143E+01 -0.68571900342E+01  0.31022684844E+01  0.94065022102E+01  0.51100000000E-03 0. -1.
        -11    1    4    4    0    0  0.40902713765E+01 -0.31906438500E+01  0.45041558106E+01  0.68700762688E+01  0.51100000000E-03 0.  1.
         12    1    4    4    0    0  0.74838185965E+01 -0.19758864244E+02  0.23377424681E+02  0.31510700432E+02  0.00000000000E+00 0. -1.
</event>
<event>
 8    1  0.4798632E-010  0.9118800E+02  0.7816164E-02  0.1184000E+00
        -11   -1    0    0    0    0  0.00000000000E+00  0.00000000000E+00  0.45593999997E+02  0.45594000000E+02  0.51100000000E-03 0. -1.
         11   -1    0    0    0    0 -0.00000000000E+00 -0.00000000000E+00 -0.45593999997E+02  0.45594000000E+02  0.51100000000E-03 0.  1.
         23    2    1    2    0    0  0.00000000000E+00  0.00000000000E+00  0.00000000000E+00  0.91188000000E+02  0.91188000000E+02 0.  0.
    9900012    2    3    3    0    0 -0.27993278768E+02  0.20881777423E+02  0.25767242285E+02  0.47787273514E+02  0.20000011260E+02 0.  0.
        -12    1    3    3    0    0  0.27993278768E+02 -0.20881777423E+02 -0.25767242285E+02  0.43400726486E+02  0.00000000000E+00 0.  1.
         11    1    4    4    0    0 -0.12779631546E+02  0.16442215742E+02  0.21294024381E+02  0.29784239382E+02  0.51100000000E-03 0. -1.
        -11    1    4    4    0    0 -0.13812661986E+02  0.46953833920E+01  0.14495271870E+01  0.14660743012E+02  0.51100000000E-03 0.  1.
         12    1    4    4    0    0 -0.14009852355E+01 -0.25582171087E+00  0.30236907174E+01  0.33422911203E+01  0.00000000000E+00 0. -1.
</event>
<event>
 8    1  0.4798632E-010  0.9118800E+02  0.7816164E-02  0.1184000E+00
        -11   -1    0    0    0    0  0.00000000000E+00  0.00000000000E+00  0.45593999997E+02  0.45594000000E+02  0.51100000000E-03 0. -1.
         11   -1    0    0    0    0 -0.00000000000E+00 -0.00000000000E+00 -0.45593999997E+02  0.45594000000E+02  0.51100000000E-03 0.  1.
         23    2    1    2    0    0  0.00000000000E+00 -0.35527136788E-14  0.00000000000E+00  0.91188000000E+02  0.91188000000E+02 0.  0.
    9900012    2    3    3    0    0 -0.79620074698E+01  0.18381389616E+02  0.38501352991E+02  0.47787271558E+02  0.20000002342E+02 0.  0.
        -12    1    3    3    0    0  0.79620074698E+01 -0.18381389616E+02 -0.38501352991E+02  0.43400728442E+02  0.00000000000E+00 0.  1.
         11    1    4    4    0    0 -0.31046262268E+01  0.11757357145E+02  0.24499292212E+02  0.27351224291E+02  0.51100000000E-03 0. -1.
        -11    1    4    4    0    0 -0.87839621229E+01  0.39645698602E+01  0.67310224089E+01  0.11755103899E+02  0.51100000000E-03 0.  1.
        -12    1    4    4    0    0  0.39265808800E+01  0.26594626108E+01  0.72710383699E+01  0.86809433682E+01  0.00000000000E+00 0.  1.
</event>
<event>
 8    1  0.4798632E-010  0.9118800E+02  0.7816164E-02  0.1184000E+00
        -11   -1    0    0    0    0  0.00000000000E+00  0.00000000000E+00  0.45593999997E+02  0.45594000000E+02  0.51100000000E-03 0. -1.
         11   -1    0    0    0    0 -0.00000000000E+00 -0.00000000000E+00 -0.45593999997E+02  0.45594000000E+02  0.51100000000E-03 0.  1.
         23    2    1    2    0    0  0.00000000000E+00 -0.44408920985E-15  0.71054273576E-14  0.91188000000E+02  0.91188000000E+02 0.  0.
    9900012    2    3    3    0    0  0.75015129593E+01 -0.10754713114E+01  0.42733989902E+02  0.47787271571E+02  0.20000002402E+02 0.  0.
        -12    1    3    3    0    0 -0.75015129593E+01  0.10754713114E+01 -0.42733989902E+02  0.43400728429E+02  0.00000000000E+00 0.  1.
         11    1    4    4    0    0 -0.21349506147E+01 -0.71540581227E+01  0.20135630119E+02  0.21475152207E+02  0.51100000000E-03 0. -1.
        -11    1    4    4    0    0  0.95065799304E+01  0.37241548133E+01  0.13576653135E+02  0.16987345339E+02  0.51100000000E-03 0.  1.
        -12    1    4    4    0    0  0.12988364361E+00  0.23544319980E+01  0.90217066478E+01  0.93247740259E+01  0.00000000000E+00 0.  1.
</event>
<event>
 8    1  0.4798632E-010  0.9118800E+02  0.7816164E-02  0.1184000E+00
        -11   -1    0    0    0    0  0.00000000000E+00  0.00000000000E+00  0.45593999997E+02  0.45594000000E+02  0.51100000000E-03 0. -1.
         11   -1    0    0    0    0 -0.00000000000E+00 -0.00000000000E+00 -0.45593999997E+02  0.45594000000E+02  0.51100000000E-03 0.  1.
         23    2    1    2    0    0  0.71054273576E-14  0.17763568394E-14  0.00000000000E+00  0.91188000000E+02  0.91188000000E+02 0.  0.
    9900012    2    3    3    0    0  0.36688306415E+02  0.11297584859E+02 -0.20247379306E+02  0.47787267057E+02  0.19999981820E+02 0.  0.
         12    1    3    3    0    0 -0.36688306415E+02 -0.11297584859E+02  0.20247379306E+02  0.43400732943E+02  0.00000000000E+00 0. -1.
         11    1    4    4    0    0  0.94354533525E+01 -0.29140698592E+01  0.78261820293E+00  0.99061634664E+01  0.51100000000E-03 0. -1.
        -11    1    4    4    0    0  0.19142134162E+02  0.86917608408E+01 -0.17817189797E+02  0.27557580796E+02  0.51100000000E-03 0.  1.
        -12    1    4    4    0    0  0.81107189003E+01  0.55198938774E+01 -0.32128077112E+01  0.10323522794E+02  0.00000000000E+00 0.  1.
</event>
<event>
 8    1  0.4798632E-010  0.9118800E+02  0.7816164E-02  0.1184000E+00
        -11   -1    0    0    0    0  0.00000000000E+00  0.00000000000E+00  0.45593999997E+02  0.45594000000E+02  0.51100000000E-03 0. -1.
         11   -1    0    0    0    0 -0.00000000000E+00 -0.00000000000E+00 -0.45593999997E+02  0.45594000000E+02  0.51100000000E-03 0.  1.
         23    2    1    2    0    0  0.00000000000E+00  0.22204460493E-15  0.00000000000E+00  0.91188000000E+02  0.91188000000E+02 0.  0.
    9900012    2    3    3    0    0  0.27297893286E+02  0.72107387118E+00 -0.33733192884E+02  0.47787271578E+02  0.20000002432E+02 0.  0.
         12    1    3    3    0    0 -0.27297893286E+02 -0.72107387118E+00  0.33733192884E+02  0.43400728422E+02  0.00000000000E+00 0. -1.
         11    1    4    4    0    0  0.12717362847E+02  0.44427880617E+01 -0.55729866698E+01  0.14578335441E+02  0.51100000000E-03 0. -1.
        -11    1    4    4    0    0  0.82969064584E+01 -0.41592103713E+01 -0.85758568046E+01  0.12636574215E+02  0.51100000000E-03 0.  1.
         12    1    4    4    0    0  0.62836239806E+01  0.43749618081E+00 -0.19584349410E+02  0.20572361922E+02  0.00000000000E+00 0. -1.
</event>
<event>
 8    1  0.4798632E-010  0.9118800E+02  0.7816164E-02  0.1184000E+00
        -11   -1    0    0    0    0  0.00000000000E+00  0.00000000000E+00  0.45593999997E+02  0.45594000000E+02  0.51100000000E-03 0. -1.
         11   -1    0    0    0    0 -0.00000000000E+00 -0.00000000000E+00 -0.45593999997E+02  0.45594000000E+02  0.51100000000E-03 0.  1.
         23    2    1    2    0    0  0.35527136788E-14  0.88817841970E-15  0.00000000000E+00  0.91188000000E+02  0.91188000000E+02 0.  0.
    9900012    2    3    3    0    0  0.29704303663E+02  0.76954443813E+01 -0.30692955442E+02  0.47787273807E+02  0.20000012595E+02 0.  0.
         12    1    3    3    0    0 -0.29704303663E+02 -0.76954443813E+01  0.30692955442E+02  0.43400726193E+02  0.00000000000E+00 0. -1.
         11    1    4    4    0    0  0.70496708936E+00  0.37615419622E+00 -0.10453119101E+02  0.10483614347E+02  0.51100000000E-03 0. -1.
        -11    1    4    4    0    0  0.27865968568E+02  0.76852827960E+01 -0.16294816306E+02  0.33182778886E+02  0.51100000000E-03 0.  1.
        -12    1    4    4    0    0  0.11333680058E+01 -0.36599261097E+00 -0.39450200343E+01  0.41208805733E+01  0.00000000000E+00 0.  1.
</event>
<event>
 8    1  0.4798632E-010  0.9118800E+02  0.7816164E-02  0.1184000E+00
        -11   -1    0    0    0    0  0.00000000000E+00  0.00000000000E+00  0.45593999997E+02  0.45594000000E+02  0.51100000000E-03 0. -1.
         11   -1    0    0    0    0 -0.00000000000E+00 -0.00000000000E+00 -0.45593999997E+02  0.45594000000E+02  0.51100000000E-03 0.  1.
         23    2    1    2    0    0 -0.35527136788E-14 -0.35527136788E-14  0.35527136788E-14  0.91188000000E+02  0.91188000000E+02 0.  0.
    9900012    2    3    3    0    0  0.23987413722E+02  0.31411030080E+02 -0.17932494784E+02  0.47787271931E+02  0.20000004041E+02 0.  0.
         12    1    3    3    0    0 -0.23987413722E+02 -0.31411030080E+02  0.17932494784E+02  0.43400728069E+02  0.00000000000E+00 0. -1.
         11    1    4    4    0    0  0.11586296697E+02  0.16013691469E+02  0.40247747868E+00  0.19769738845E+02  0.51100000000E-03 0. -1.
        -11    1    4    4    0    0  0.64020165240E+01  0.12975412686E+02 -0.10614517658E+02  0.17944780169E+02  0.51100000000E-03 0.  1.
         12    1    4    4    0    0  0.59991005018E+01  0.24219259247E+01 -0.77204546050E+01  0.10072752917E+02  0.00000000000E+00 0. -1.
</event>
<event>
 8    1  0.4798632E-010  0.9118800E+02  0.7816164E-02  0.1184000E+00
        -11   -1    0    0    0    0  0.00000000000E+00  0.00000000000E+00  0.45593999997E+02  0.45594000000E+02  0.51100000000E-03 0.  1.
         11   -1    0    0    0    0 -0.00000000000E+00 -0.00000000000E+00 -0.45593999997E+02  0.45594000000E+02  0.51100000000E-03 0. -1.
         23    2    1    2    0    0  0.00000000000E+00  0.00000000000E+00 -0.88817841970E-15  0.91188000000E+02  0.91188000000E+02 0.  0.
    9900012    2    3    3    0    0 -0.17954527086E+02 -0.38971514233E+02 -0.65176079138E+01  0.47787272156E+02  0.20000005068E+02 0.  0.
         12    1    3    3    0    0  0.17954527086E+02  0.38971514233E+02  0.65176079138E+01  0.43400727844E+02  0.00000000000E+00 0. -1.
         11    1    4    4    0    0 -0.22390210407E+01  0.80959839871E+00  0.51289555645E+00  0.24355136832E+01  0.51100000000E-03 0. -1.
        -11    1    4    4    0    0 -0.15973621654E+01 -0.21159191131E+02 -0.55655656600E+01  0.21937147868E+02  0.51100000000E-03 0.  1.
        -12    1    4    4    0    0 -0.14118143880E+02 -0.18621921500E+02 -0.14649378102E+01  0.23414610605E+02  0.00000000000E+00 0.  1.
</event>
<event>
 8    1  0.4798632E-010  0.9118800E+02  0.7816164E-02  0.1184000E+00
        -11   -1    0    0    0    0  0.00000000000E+00  0.00000000000E+00  0.45593999997E+02  0.45594000000E+02  0.51100000000E-03 0. -1.
         11   -1    0    0    0    0 -0.00000000000E+00 -0.00000000000E+00 -0.45593999997E+02  0.45594000000E+02  0.51100000000E-03 0.  1.
         23    2    1    2    0    0  0.00000000000E+00  0.00000000000E+00  0.35527136788E-14  0.91188000000E+02  0.91188000000E+02 0.  0.
    9900012    2    3    3    0    0  0.34072297454E+02  0.83835127026E+01  0.25542495193E+02  0.47787264986E+02  0.19999972379E+02 0.  0.
        -12    1    3    3    0    0 -0.34072297454E+02 -0.83835127026E+01 -0.25542495193E+02  0.43400735014E+02  0.00000000000E+00 0.  1.
         11    1    4    4    0    0  0.18701636335E+02  0.79632392709E+01  0.20595209736E+02  0.28936603906E+02  0.51100000000E-03 0. -1.
        -11    1    4    4    0    0  0.12948030802E+02 -0.36480152181E+01  0.38033796728E+01  0.13979456852E+02  0.51100000000E-03 0.  1.
        -12    1    4    4    0    0  0.24226303171E+01  0.40682886498E+01  0.11439057844E+01  0.48712042284E+01  0.00000000000E+00 0.  1.
</event>
<event>
 8    1  0.4798632E-010  0.9118800E+02  0.7816164E-02  0.1184000E+00
        -11   -1    0    0    0    0  0.00000000000E+00  0.00000000000E+00  0.45593999997E+02  0.45594000000E+02  0.51100000000E-03 0.  1.
         11   -1    0    0    0    0 -0.00000000000E+00 -0.00000000000E+00 -0.45593999997E+02  0.45594000000E+02  0.51100000000E-03 0. -1.
         23    2    1    2    0    0 -0.71054273576E-14  0.00000000000E+00 -0.22204460493E-15  0.91188000000E+02  0.91188000000E+02 0.  0.
    9900012    2    3    3    0    0 -0.35745277406E+02  0.24600161600E+02 -0.85456550340E+00  0.47787273165E+02  0.20000009670E+02 0.  0.
        -12    1    3    3    0    0  0.35745277406E+02 -0.24600161600E+02  0.85456550340E+00  0.43400726835E+02  0.00000000000E+00 0.  1.
         11    1    4    4    0    0 -0.26632445876E+02  0.23484031774E+02  0.15479501040E+01  0.35541286858E+02  0.51100000000E-03 0. -1.
        -11    1    4    4    0    0  0.65260875167E+00 -0.16841561671E+01 -0.73977767248E+00  0.19518072251E+01  0.51100000000E-03 0.  1.
         12    1    4    4    0    0 -0.97654402820E+01  0.28002859925E+01 -0.16627379349E+01  0.10294179082E+02  0.00000000000E+00 0. -1.
</event>
<event>
 8    1  0.4798632E-010  0.9118800E+02  0.7816164E-02  0.1184000E+00
        -11   -1    0    0    0    0  0.00000000000E+00  0.00000000000E+00  0.45593999997E+02  0.45594000000E+02  0.51100000000E-03 0. -1.
         11   -1    0    0    0    0 -0.00000000000E+00 -0.00000000000E+00 -0.45593999997E+02  0.45594000000E+02  0.51100000000E-03 0.  1.
         23    2    1    2    0    0  0.00000000000E+00  0.00000000000E+00  0.35527136788E-14  0.91188000000E+02  0.91188000000E+02 0.  0.
    9900012    2    3    3    0    0  0.32606309466E+02 -0.54603356698E+00 -0.28638318545E+02  0.47787275827E+02  0.20000021807E+02 0.  0.
         12    1    3    3    0    0 -0.32606309466E+02  0.54603356698E+00  0.28638318545E+02  0.43400724173E+02  0.00000000000E+00 0. -1.
         11    1    4    4    0    0 -0.14427271324E+01 -0.36337727768E+01 -0.25057143499E+01  0.46437453457E+01  0.51100000000E-03 0. -1.
        -11    1    4    4    0    0  0.20576911304E+02  0.30727730112E+01 -0.14700803159E+02  0.25474788058E+02  0.51100000000E-03 0.  1.
         12    1    4    4    0    0  0.13472125294E+02  0.14966198607E-01 -0.11431801036E+02  0.17668742424E+02  0.00000000000E+00 0. -1.
</event>
<event>
 8    1  0.4798632E-010  0.9118800E+02  0.7816164E-02  0.1184000E+00
        -11   -1    0    0    0    0  0.00000000000E+00  0.00000000000E+00  0.45593999997E+02  0.45594000000E+02  0.51100000000E-03 0. -1.
         11   -1    0    0    0    0 -0.00000000000E+00 -0.00000000000E+00 -0.45593999997E+02  0.45594000000E+02  0.51100000000E-03 0.  1.
         23    2    1    2    0    0 -0.35527136788E-14 -0.35527136788E-14  0.00000000000E+00  0.91188000000E+02  0.91188000000E+02 0.  0.
    9900012    2    3    3    0    0  0.23485874535E+02  0.20497653378E+02  0.30197409685E+02  0.47787266730E+02  0.19999980330E+02 0.  0.
        -12    1    3    3    0    0 -0.23485874535E+02 -0.20497653378E+02 -0.30197409685E+02  0.43400733270E+02  0.00000000000E+00 0.  1.
         11    1    4    4    0    0  0.25540980016E+01 -0.34303641912E+01  0.72515674564E+01  0.84187912388E+01  0.51100000000E-03 0.  1.
        -11    1    4    4    0    0  0.14317876876E+02  0.16959692469E+02  0.14005169388E+02  0.26244571567E+02  0.51100000000E-03 0. -1.
         12    1    4    4    0    0  0.66138996569E+01  0.69683251004E+01  0.89406728404E+01  0.13123903924E+02  0.00000000000E+00 0. -1.
</event>
<event>
 8    1  0.6515016E-010  0.9118800E+02  0.7816164E-02  0.1184000E+00
        -11   -1    0    0    0    0  0.00000000000E+00  0.00000000000E+00  0.45593999997E+02  0.45594000000E+02  0.51100000000E-03 0. -1.
         11   -1    0    0    0    0 -0.00000000000E+00 -0.00000000000E+00 -0.45593999997E+02  0.45594000000E+02  0.51100000000E-03 0.  1.
         23    2    1    2    0    0 -0.22204460493E-15  0.17763568394E-14  0.00000000000E+00  0.91188000000E+02  0.91188000000E+02 0.  0.
    9900012    2    3    3    0    0  0.15138451890E+01 -0.92900472084E+01  0.42367752681E+02  0.47787272223E+02  0.20000005372E+02 0.  0.
        -12    1    3    3    0    0 -0.15138451890E+01  0.92900472084E+01 -0.42367752681E+02  0.43400727777E+02  0.00000000000E+00 0.  1.
         11    1    4    4    0    0 -0.91081590129E+00 -0.64011771273E+01  0.21230920632E+02  0.22193617222E+02  0.51100000000E-03 0. -1.
        -11    1    4    4    0    0 -0.13959861482E+01  0.49381647826E+01  0.11564122353E+02  0.12651607598E+02  0.51100000000E-03 0.  1.
        -12    1    4    4    0    0  0.38206472384E+01 -0.78270348637E+01  0.95727096952E+01  0.12942047403E+02  0.00000000000E+00 0.  1.
</event>
<event>
 8    1  0.4798632E-010  0.9118800E+02  0.7816164E-02  0.1184000E+00
        -11   -1    0    0    0    0  0.00000000000E+00  0.00000000000E+00  0.45593999997E+02  0.45594000000E+02  0.51100000000E-03 0. -1.
         11   -1    0    0    0    0 -0.00000000000E+00 -0.00000000000E+00 -0.45593999997E+02  0.45594000000E+02  0.51100000000E-03 0.  1.
         23    2    1    2    0    0  0.00000000000E+00  0.00000000000E+00  0.00000000000E+00  0.91188000000E+02  0.91188000000E+02 0.  0.
    9900012    2    3    3    0    0 -0.32512698615E+02 -0.12775085358E+02  0.25755470074E+02  0.47787278625E+02  0.20000034562E+02 0.  0.
        -12    1    3    3    0    0  0.32512698615E+02  0.12775085358E+02 -0.25755470074E+02  0.43400721375E+02  0.00000000000E+00 0.  1.
         11    1    4    4    0    0 -0.95523259315E+01 -0.13655033576E+02  0.14269227185E+02  0.21938954337E+02  0.51100000000E-03 0. -1.
        -11    1    4    4    0    0 -0.61613623695E+01  0.11934734598E+01  0.21959235212E+01  0.66489732681E+01  0.51100000000E-03 0.  1.
         12    1    4    4    0    0 -0.16799010314E+02 -0.31352524092E+00  0.92903193676E+01  0.19199351020E+02  0.00000000000E+00 0. -1.
</event>
<event>
 8    1  0.4798632E-010  0.9118800E+02  0.7816164E-02  0.1184000E+00
        -11   -1    0    0    0    0  0.00000000000E+00  0.00000000000E+00  0.45593999997E+02  0.45594000000E+02  0.51100000000E-03 0. -1.
         11   -1    0    0    0    0 -0.00000000000E+00 -0.00000000000E+00 -0.45593999997E+02  0.45594000000E+02  0.51100000000E-03 0.  1.
         23    2    1    2    0    0  0.00000000000E+00  0.00000000000E+00  0.66613381478E-15  0.91188000000E+02  0.91188000000E+02 0.  0.
    9900012    2    3    3    0    0 -0.10301952260E+02 -0.42156697197E+02  0.55310513009E+00  0.47787271156E+02  0.20000000508E+02 0.  0.
        -12    1    3    3    0    0  0.10301952260E+02  0.42156697197E+02 -0.55310513009E+00  0.43400728844E+02  0.00000000000E+00 0.  1.
         11    1    4    4    0    0 -0.97273302931E+01 -0.25490445681E+02 -0.61058827377E+01  0.27958282849E+02  0.51100000000E-03 0. -1.
        -11    1    4    4    0    0 -0.10251464402E+01 -0.15374789196E+02  0.84512891936E+01  0.17574394936E+02  0.51100000000E-03 0.  1.
         12    1    4    4    0    0  0.45052447301E+00 -0.12914623198E+01 -0.17923013258E+01  0.22545933706E+01  0.00000000000E+00 0. -1.
</event>
<event>
 8    1  0.4798632E-010  0.9118800E+02  0.7816164E-02  0.1184000E+00
        -11   -1    0    0    0    0  0.00000000000E+00  0.00000000000E+00  0.45593999997E+02  0.45594000000E+02  0.51100000000E-03 0. -1.
         11   -1    0    0    0    0 -0.00000000000E+00 -0.00000000000E+00 -0.45593999997E+02  0.45594000000E+02  0.51100000000E-03 0.  1.
         23    2    1    2    0    0  0.00000000000E+00 -0.17763568394E-14  0.00000000000E+00  0.91188000000E+02  0.91188000000E+02 0.  0.
    9900012    2    3    3    0    0 -0.30632815693E+02  0.80175192757E+01  0.29681195615E+02  0.47787269756E+02  0.19999994126E+02 0.  0.
        -12    1    3    3    0    0  0.30632815693E+02 -0.80175192757E+01 -0.29681195615E+02  0.43400730244E+02  0.00000000000E+00 0.  1.
         11    1    4    4    0    0 -0.24585747615E+02  0.13727510323E+02  0.19768056106E+02  0.34404644569E+02  0.51100000000E-03 0. -1.
        -11    1    4    4    0    0 -0.20830476752E+01 -0.42713174047E+01  0.57075767636E+01  0.74269558206E+01  0.51100000000E-03 0.  1.
         12    1    4    4    0    0 -0.39640204020E+01 -0.14386736422E+01  0.42055627448E+01  0.59556693659E+01  0.00000000000E+00 0. -1.
</event>
<event>
 8    1  0.4798632E-010  0.9118800E+02  0.7816164E-02  0.1184000E+00
        -11   -1    0    0    0    0  0.00000000000E+00  0.00000000000E+00  0.45593999997E+02  0.45594000000E+02  0.51100000000E-03 0. -1.
         11   -1    0    0    0    0 -0.00000000000E+00 -0.00000000000E+00 -0.45593999997E+02  0.45594000000E+02  0.51100000000E-03 0.  1.
         23    2    1    2    0    0 -0.35527136788E-14  0.00000000000E+00  0.00000000000E+00  0.91188000000E+02  0.91188000000E+02 0.  0.
    9900012    2    3    3    0    0  0.17252790311E+02 -0.19726901015E+02 -0.34595006702E+02  0.47787263994E+02  0.19999967853E+02 0.  0.
         12    1    3    3    0    0 -0.17252790311E+02  0.19726901015E+02  0.34595006702E+02  0.43400736006E+02  0.00000000000E+00 0. -1.
         11    1    4    4    0    0  0.10330496994E+02 -0.10362251531E+02 -0.29737582733E+02  0.33142408663E+02  0.51100000000E-03 0. -1.
        -11    1    4    4    0    0  0.55247106330E+01 -0.94670403430E+01 -0.62926081998E+01  0.12638995160E+02  0.51100000000E-03 0.  1.
         12    1    4    4    0    0  0.13975826842E+01  0.10239085824E+00  0.14351842310E+01  0.20058601706E+01  0.00000000000E+00 0. -1.
</event>
<event>
 8    1  0.4798632E-010  0.9118800E+02  0.7816164E-02  0.1184000E+00
        -11   -1    0    0    0    0  0.00000000000E+00  0.00000000000E+00  0.45593999997E+02  0.45594000000E+02  0.51100000000E-03 0. -1.
         11   -1    0    0    0    0 -0.00000000000E+00 -0.00000000000E+00 -0.45593999997E+02  0.45594000000E+02  0.51100000000E-03 0.  1.
         23    2    1    2    0    0  0.00000000000E+00  0.00000000000E+00 -0.35527136788E-14  0.91188000000E+02  0.91188000000E+02 0.  0.
    9900012    2    3    3    0    0 -0.71308027576E+01 -0.33782964702E+02  0.26296128701E+02  0.47787269169E+02  0.19999991450E+02 0.  0.
        -12    1    3    3    0    0  0.71308027576E+01  0.33782964702E+02 -0.26296128701E+02  0.43400730831E+02  0.00000000000E+00 0.  1.
         11    1    4    4    0    0 -0.88788628393E+01 -0.30151162871E+02  0.28447350898E+02  0.42393143327E+02  0.51100000000E-03 0. -1.
        -11    1    4    4    0    0  0.33807751815E+00  0.10367882210E+00 -0.12525547235E+01  0.13015142346E+01  0.51100000000E-03 0.  1.
        -12    1    4    4    0    0  0.14099825636E+01 -0.37354806531E+01 -0.89866747405E+00  0.40926116073E+01  0.00000000000E+00 0.  1.
</event>
<event>
 8    1  0.4798632E-010  0.9118800E+02  0.7816164E-02  0.1184000E+00
        -11   -1    0    0    0    0  0.00000000000E+00  0.00000000000E+00  0.45593999997E+02  0.45594000000E+02  0.51100000000E-03 0. -1.
         11   -1    0    0    0    0 -0.00000000000E+00 -0.00000000000E+00 -0.45593999997E+02  0.45594000000E+02  0.51100000000E-03 0.  1.
         23    2    1    2    0    0  0.00000000000E+00  0.00000000000E+00  0.00000000000E+00  0.91188000000E+02  0.91188000000E+02 0.  0.
    9900012    2    3    3    0    0  0.25972793495E+02 -0.10198836745E+02 -0.33241853607E+02  0.47787273000E+02  0.20000008918E+02 0.  0.
         12    1    3    3    0    0 -0.25972793495E+02  0.10198836745E+02  0.33241853607E+02  0.43400727000E+02  0.00000000000E+00 0. -1.
         11    1    4    4    0    0  0.52376064885E+01  0.26385059159E+01 -0.56658770346E+00  0.58919654686E+01  0.51100000000E-03 0. -1.
        -11    1    4    4    0    0 -0.62520123067E+00 -0.11519132067E+01 -0.43531565559E+01  0.45461800311E+01  0.51100000000E-03 0.  1.
         12    1    4    4    0    0  0.21360388237E+02 -0.11685429454E+02 -0.28322109347E+02  0.37349127501E+02  0.00000000000E+00 0. -1.
</event>
<event>
 8    1  0.5632020E-010  0.9118800E+02  0.7816164E-02  0.1184000E+00
        -11   -1    0    0    0    0  0.00000000000E+00  0.00000000000E+00  0.45593999997E+02  0.45594000000E+02  0.51100000000E-03 0. -1.
         11   -1    0    0    0    0 -0.00000000000E+00 -0.00000000000E+00 -0.45593999997E+02  0.45594000000E+02  0.51100000000E-03 0.  1.
         23    2    1    2    0    0 -0.17763568394E-14  0.35527136788E-14  0.00000000000E+00  0.91188000000E+02  0.91188000000E+02 0.  0.
    9900012    2    3    3    0    0  0.66792831651E+01 -0.16696602928E+02 -0.39499785564E+02  0.47787280737E+02  0.20000044192E+02 0.  0.
         12    1    3    3    0    0 -0.66792831651E+01  0.16696602928E+02  0.39499785564E+02  0.43400719263E+02  0.00000000000E+00 0. -1.
         11    1    4    4    0    0  0.38019345114E+01 -0.35029258750E+01 -0.15334841105E+01  0.53922879646E+01  0.51100000000E-03 0. -1.
        -11    1    4    4    0    0  0.52952167149E+01 -0.13899637427E+02 -0.36649328513E+02  0.39552655048E+02  0.51100000000E-03 0.  1.
        -12    1    4    4    0    0 -0.24178680612E+01  0.70596037429E+00 -0.13169729409E+01  0.28423377242E+01  0.00000000000E+00 0.  1.
</event>
<event>
 8    1  0.4798632E-010  0.9118800E+02  0.7816164E-02  0.1184000E+00
        -11   -1    0    0    0    0  0.00000000000E+00  0.00000000000E+00  0.45593999997E+02  0.45594000000E+02  0.51100000000E-03 0. -1.
         11   -1    0    0    0    0 -0.00000000000E+00 -0.00000000000E+00 -0.45593999997E+02  0.45594000000E+02  0.51100000000E-03 0.  1.
         23    2    1    2    0    0  0.00000000000E+00  0.00000000000E+00  0.00000000000E+00  0.91188000000E+02  0.91188000000E+02 0.  0.
    9900012    2    3    3    0    0 -0.20887795114E+02 -0.78210788616E+01 -0.37231087767E+02  0.47787272407E+02  0.20000006211E+02 0.  0.
         12    1    3    3    0    0  0.20887795114E+02  0.78210788616E+01  0.37231087767E+02  0.43400727593E+02  0.00000000000E+00 0. -1.
         11    1    4    4    0    0 -0.42193882940E+01 -0.29427077181E+01  0.65162728396E+00  0.51853046842E+01  0.51100000000E-03 0. -1.
        -11    1    4    4    0    0 -0.14930190548E+02 -0.58614717060E+01 -0.25976387239E+02  0.30529332364E+02  0.51100000000E-03 0.  1.
         12    1    4    4    0    0 -0.17382162729E+01  0.98310056252E+00 -0.11906327812E+02  0.12072635358E+02  0.00000000000E+00 0. -1.
</event>
<event>
 8    1  0.4798632E-010  0.9118800E+02  0.7816164E-02  0.1184000E+00
        -11   -1    0    0    0    0  0.00000000000E+00  0.00000000000E+00  0.45593999997E+02  0.45594000000E+02  0.51100000000E-03 0. -1.
         11   -1    0    0    0    0 -0.00000000000E+00 -0.00000000000E+00 -0.45593999997E+02  0.45594000000E+02  0.51100000000E-03 0.  1.
         23    2    1    2    0    0  0.00000000000E+00 -0.17763568394E-14  0.00000000000E+00  0.91188000000E+02  0.91188000000E+02 0.  0.
    9900012    2    3    3    0    0  0.37599602208E+02  0.10888636928E+02 -0.18743812690E+02  0.47787274033E+02  0.20000013625E+02 0.  0.
         12    1    3    3    0    0 -0.37599602208E+02 -0.10888636928E+02  0.18743812690E+02  0.43400725967E+02  0.00000000000E+00 0. -1.
         11    1    4    4    0    0  0.12908683866E+02  0.77956000095E+01  0.27748905881E-01  0.15079995654E+02  0.51100000000E-03 0. -1.
        -11    1    4    4    0    0  0.11542481343E+02  0.43110033100E+01 -0.14041498011E+02  0.18680933910E+02  0.51100000000E-03 0.  1.
        -12    1    4    4    0    0  0.13148436999E+02 -0.12179663919E+01 -0.47300635843E+01  0.14026344469E+02  0.00000000000E+00 0.  1.
</event>
<event>
 8    1  0.4798632E-010  0.9118800E+02  0.7816164E-02  0.1184000E+00
        -11   -1    0    0    0    0  0.00000000000E+00  0.00000000000E+00  0.45593999997E+02  0.45594000000E+02  0.51100000000E-03 0. -1.
         11   -1    0    0    0    0 -0.00000000000E+00 -0.00000000000E+00 -0.45593999997E+02  0.45594000000E+02  0.51100000000E-03 0.  1.
         23    2    1    2    0    0  0.17763568394E-14  0.88817841970E-15  0.71054273576E-14  0.91188000000E+02  0.91188000000E+02 0.  0.
    9900012    2    3    3    0    0 -0.13376833221E+02 -0.58611586913E+01 -0.40869672740E+02  0.47787274222E+02  0.20000014487E+02 0.  0.
         12    1    3    3    0    0  0.13376833221E+02  0.58611586913E+01  0.40869672740E+02  0.43400725778E+02  0.00000000000E+00 0. -1.
         11    1    4    4    0    0 -0.90474479092E+01 -0.11016905151E+02 -0.21597234896E+02  0.25877964916E+02  0.51100000000E-03 0. -1.
        -11    1    4    4    0    0  0.47584736569E+00  0.30875503442E+01 -0.14484695235E+02  0.14817752669E+02  0.51100000000E-03 0.  1.
         12    1    4    4    0    0 -0.48052326772E+01  0.20681961152E+01 -0.47877426092E+01  0.70915566377E+01  0.00000000000E+00 0. -1.
</event>
<event>
 8    1  0.4798632E-010  0.9118800E+02  0.7816164E-02  0.1184000E+00
        -11   -1    0    0    0    0  0.00000000000E+00  0.00000000000E+00  0.45593999997E+02  0.45594000000E+02  0.51100000000E-03 0. -1.
         11   -1    0    0    0    0 -0.00000000000E+00 -0.00000000000E+00 -0.45593999997E+02  0.45594000000E+02  0.51100000000E-03 0.  1.
         23    2    1    2    0    0  0.71054273576E-14  0.00000000000E+00  0.00000000000E+00  0.91188000000E+02  0.91188000000E+02 0.  0.
    9900012    2    3    3    0    0 -0.42628534355E+02 -0.75036828235E+01 -0.31821659072E+01  0.47787269856E+02  0.19999994580E+02 0.  0.
         12    1    3    3    0    0  0.42628534355E+02  0.75036828235E+01  0.31821659072E+01  0.43400730144E+02  0.00000000000E+00 0. -1.
         11    1    4    4    0    0 -0.15410040633E+00 -0.37029656998E+01 -0.16155527493E+01  0.40429831629E+01  0.51100000000E-03 0. -1.
        -11    1    4    4    0    0 -0.57640154551E+01  0.98753201886E+00 -0.32391581600E+01  0.66851506716E+01  0.51100000000E-03 0.  1.
         12    1    4    4    0    0 -0.36710418494E+02 -0.47882491426E+01  0.16725450020E+01  0.37059136021E+02  0.00000000000E+00 0. -1.
</event>
<event>
 8    1  0.4798632E-010  0.9118800E+02  0.7816164E-02  0.1184000E+00
        -11   -1    0    0    0    0  0.00000000000E+00  0.00000000000E+00  0.45593999997E+02  0.45594000000E+02  0.51100000000E-03 0. -1.
         11   -1    0    0    0    0 -0.00000000000E+00 -0.00000000000E+00 -0.45593999997E+02  0.45594000000E+02  0.51100000000E-03 0.  1.
         23    2    1    2    0    0  0.00000000000E+00  0.00000000000E+00  0.35527136788E-14  0.91188000000E+02  0.91188000000E+02 0.  0.
    9900012    2    3    3    0    0 -0.26712502244E+02 -0.12673655817E+02  0.31771748321E+02  0.47787270522E+02  0.19999997616E+02 0.  0.
        -12    1    3    3    0    0  0.26712502244E+02  0.12673655817E+02 -0.31771748321E+02  0.43400729478E+02  0.00000000000E+00 0.  1.
         11    1    4    4    0    0 -0.17874924041E+02 -0.12551204997E+02  0.19295265040E+02  0.29143659852E+02  0.51100000000E-03 0. -1.
        -11    1    4    4    0    0 -0.24832548708E+01  0.27982992923E+01  0.10831339129E+02  0.11459273156E+02  0.51100000000E-03 0.  1.
         12    1    4    4    0    0 -0.63543233317E+01 -0.29207501123E+01  0.16451441524E+01  0.71843375132E+01  0.00000000000E+00 0. -1.
</event>
<event>
 8    1  0.4798632E-010  0.9118800E+02  0.7816164E-02  0.1184000E+00
        -11   -1    0    0    0    0  0.00000000000E+00  0.00000000000E+00  0.45593999997E+02  0.45594000000E+02  0.51100000000E-03 0. -1.
         11   -1    0    0    0    0 -0.00000000000E+00 -0.00000000000E+00 -0.45593999997E+02  0.45594000000E+02  0.51100000000E-03 0.  1.
         23    2    1    2    0    0  0.00000000000E+00  0.00000000000E+00  0.00000000000E+00  0.91188000000E+02  0.91188000000E+02 0.  0.
    9900012    2    3    3    0    0  0.38996274981E+02  0.15820237464E+02 -0.10612909884E+02  0.47787271527E+02  0.20000002198E+02 0.  0.
         12    1    3    3    0    0 -0.38996274981E+02 -0.15820237464E+02  0.10612909884E+02  0.43400728473E+02  0.00000000000E+00 0. -1.
         11    1    4    4    0    0  0.14884146741E+02  0.71719168795E+01  0.55465027073E+01  0.17428078163E+02  0.51100000000E-03 0. -1.
        -11    1    4    4    0    0  0.13338122078E+02  0.41145920992E+01 -0.97698970432E+01  0.17037789094E+02  0.51100000000E-03 0.  1.
        -12    1    4    4    0    0  0.10774006163E+02  0.45337284851E+01 -0.63895155482E+01  0.13321404269E+02  0.00000000000E+00 0.  1.
</event>
<event>
 8    1  0.4798632E-010  0.9118800E+02  0.7816164E-02  0.1184000E+00
        -11   -1    0    0    0    0  0.00000000000E+00  0.00000000000E+00  0.45593999997E+02  0.45594000000E+02  0.51100000000E-03 0. -1.
         11   -1    0    0    0    0 -0.00000000000E+00 -0.00000000000E+00 -0.45593999997E+02  0.45594000000E+02  0.51100000000E-03 0.  1.
         23    2    1    2    0    0  0.00000000000E+00  0.00000000000E+00  0.00000000000E+00  0.91188000000E+02  0.91188000000E+02 0.  0.
    9900012    2    3    3    0    0  0.15331536699E+02  0.14448120142E+02  0.37944948301E+02  0.47787270804E+02  0.19999998905E+02 0.  0.
        -12    1    3    3    0    0 -0.15331536699E+02 -0.14448120142E+02 -0.37944948301E+02  0.43400729196E+02  0.00000000000E+00 0.  1.
         11    1    4    4    0    0  0.12247027048E+02  0.16713175992E+02  0.18321562834E+02  0.27658625927E+02  0.51100000000E-03 0. -1.
        -11    1    4    4    0    0  0.86328346566E+00 -0.17528288479E+01  0.58439737968E+01  0.61619556401E+01  0.51100000000E-03 0.  1.
         12    1    4    4    0    0  0.22212261853E+01 -0.51222700242E+00  0.13779411670E+02  0.13966689237E+02  0.00000000000E+00 0. -1.
</event>
<event>
 8    1  0.4798632E-010  0.9118800E+02  0.7816164E-02  0.1184000E+00
        -11   -1    0    0    0    0  0.00000000000E+00  0.00000000000E+00  0.45593999997E+02  0.45594000000E+02  0.51100000000E-03 0. -1.
         11   -1    0    0    0    0 -0.00000000000E+00 -0.00000000000E+00 -0.45593999997E+02  0.45594000000E+02  0.51100000000E-03 0.  1.
         23    2    1    2    0    0  0.35527136788E-14  0.00000000000E+00 -0.35527136788E-14  0.91188000000E+02  0.91188000000E+02 0.  0.
    9900012    2    3    3    0    0 -0.29474606066E+02  0.15576550695E+02  0.27789243525E+02  0.47787269706E+02  0.19999993900E+02 0.  0.
        -12    1    3    3    0    0  0.29474606066E+02 -0.15576550695E+02 -0.27789243525E+02  0.43400730294E+02  0.00000000000E+00 0.  1.
         11    1    4    4    0    0  0.54312316253E+00  0.46292593175E+01 -0.87634180624E+00  0.47426785492E+01  0.51100000000E-03 0.  1.
        -11    1    4    4    0    0 -0.21667862799E+02  0.71345985188E+01  0.18714517429E+02  0.29506472802E+02  0.51100000000E-03 0. -1.
        -12    1    4    4    0    0 -0.83498664291E+01  0.38126928590E+01  0.99510679020E+01  0.13538118356E+02  0.00000000000E+00 0.  1.
</event>
<event>
 8    1  0.4798632E-010  0.9118800E+02  0.7816164E-02  0.1184000E+00
        -11   -1    0    0    0    0  0.00000000000E+00  0.00000000000E+00  0.45593999997E+02  0.45594000000E+02  0.51100000000E-03 0.  1.
         11   -1    0    0    0    0 -0.00000000000E+00 -0.00000000000E+00 -0.45593999997E+02  0.45594000000E+02  0.51100000000E-03 0. -1.
         23    2    1    2    0    0 -0.35527136788E-14 -0.35527136788E-14  0.44408920985E-15  0.91188000000E+02  0.91188000000E+02 0.  0.
    9900012    2    3    3    0    0  0.31363670646E+02  0.29972359515E+02  0.12653358064E+01  0.47787271366E+02  0.20000001464E+02 0.  0.
         12    1    3    3    0    0 -0.31363670646E+02 -0.29972359515E+02 -0.12653358064E+01  0.43400728634E+02  0.00000000000E+00 0. -1.
         11    1    4    4    0    0  0.58456211472E+01  0.99015458768E+01  0.53659992567E+01  0.12688807889E+02  0.51100000000E-03 0. -1.
        -11    1    4    4    0    0  0.11635413953E+02  0.53359312341E+01 -0.70922052196E+01  0.14634015004E+02  0.51100000000E-03 0.  1.
        -12    1    4    4    0    0  0.13882635546E+02  0.14734882404E+02  0.29915417694E+01  0.20464448473E+02  0.00000000000E+00 0.  1.
</event>
<event>
 8    1  0.4798632E-010  0.9118800E+02  0.7816164E-02  0.1184000E+00
        -11   -1    0    0    0    0  0.00000000000E+00  0.00000000000E+00  0.45593999997E+02  0.45594000000E+02  0.51100000000E-03 0. -1.
         11   -1    0    0    0    0 -0.00000000000E+00 -0.00000000000E+00 -0.45593999997E+02  0.45594000000E+02  0.51100000000E-03 0.  1.
         23    2    1    2    0    0 -0.44408920985E-15  0.00000000000E+00  0.00000000000E+00  0.91188000000E+02  0.91188000000E+02 0.  0.
    9900012    2    3    3    0    0 -0.10658794498E+01  0.34771294355E+02  0.25950808155E+02  0.47787268969E+02  0.19999990537E+02 0.  0.
        -12    1    3    3    0    0  0.10658794498E+01 -0.34771294355E+02 -0.25950808155E+02  0.43400731031E+02  0.00000000000E+00 0.  1.
         11    1    4    4    0    0  0.50633033395E+01  0.20996258036E+02  0.22078252101E+02  0.30885742800E+02  0.51100000000E-03 0. -1.
        -11    1    4    4    0    0 -0.60664472656E+01  0.11170715503E+02  0.54776648387E+01  0.13841657401E+02  0.51100000000E-03 0.  1.
         12    1    4    4    0    0 -0.62735523726E-01  0.26043208167E+01 -0.16051087852E+01  0.30598687676E+01  0.00000000000E+00 0. -1.
</event>
<event>
 8    1  0.4798632E-010  0.9118800E+02  0.7816164E-02  0.1184000E+00
        -11   -1    0    0    0    0  0.00000000000E+00  0.00000000000E+00  0.45593999997E+02  0.45594000000E+02  0.51100000000E-03 0.  1.
         11   -1    0    0    0    0 -0.00000000000E+00 -0.00000000000E+00 -0.45593999997E+02  0.45594000000E+02  0.51100000000E-03 0. -1.
         23    2    1    2    0    0  0.00000000000E+00  0.00000000000E+00  0.35527136788E-14  0.91188000000E+02  0.91188000000E+02 0.  0.
    9900012    2    3    3    0    0 -0.36169896206E+02 -0.17180722391E+02 -0.16738717086E+02  0.47787271168E+02  0.20000000564E+02 0.  0.
         12    1    3    3    0    0  0.36169896206E+02  0.17180722391E+02  0.16738717086E+02  0.43400728832E+02  0.00000000000E+00 0. -1.
         11    1    4    4    0    0 -0.20882463782E+01 -0.61398786200E+01  0.69597981623E+00  0.65225202622E+01  0.51100000000E-03 0. -1.
        -11    1    4    4    0    0 -0.27991328904E+02 -0.47243136815E+01 -0.15242565079E+02  0.32220636617E+02  0.51100000000E-03 0.  1.
         12    1    4    4    0    0 -0.60903209239E+01 -0.63165300899E+01 -0.21921318232E+01  0.90441142885E+01  0.00000000000E+00 0. -1.
</event>
<event>
 8    1  0.4798632E-010  0.9118800E+02  0.7816164E-02  0.1184000E+00
        -11   -1    0    0    0    0  0.00000000000E+00  0.00000000000E+00  0.45593999997E+02  0.45594000000E+02  0.51100000000E-03 0. -1.
         11   -1    0    0    0    0 -0.00000000000E+00 -0.00000000000E+00 -0.45593999997E+02  0.45594000000E+02  0.51100000000E-03 0.  1.
         23    2    1    2    0    0  0.00000000000E+00  0.00000000000E+00 -0.71054273576E-14  0.91188000000E+02  0.91188000000E+02 0.  0.
    9900012    2    3    3    0    0  0.21885201267E+02 -0.22219742329E+02  0.30181862346E+02  0.47787265002E+02  0.19999972451E+02 0.  0.
        -12    1    3    3    0    0 -0.21885201267E+02  0.22219742329E+02 -0.30181862346E+02  0.43400734998E+02  0.00000000000E+00 0.  1.
         11    1    4    4    0    0  0.11721083688E+02 -0.17716729495E+02  0.11421626206E+02  0.24118869216E+02  0.51100000000E-03 0. -1.
        -11    1    4    4    0    0  0.73578069720E+01  0.34631172547E+00  0.52586333838E+01  0.90504409050E+01  0.51100000000E-03 0.  1.
         12    1    4    4    0    0  0.28063106066E+01 -0.48493245597E+01  0.13501602757E+02  0.14617954881E+02  0.00000000000E+00 0. -1.
</event>
<event>
 8    1  0.4798632E-010  0.9118800E+02  0.7816164E-02  0.1184000E+00
        -11   -1    0    0    0    0  0.00000000000E+00  0.00000000000E+00  0.45593999997E+02  0.45594000000E+02  0.51100000000E-03 0. -1.
         11   -1    0    0    0    0 -0.00000000000E+00 -0.00000000000E+00 -0.45593999997E+02  0.45594000000E+02  0.51100000000E-03 0.  1.
         23    2    1    2    0    0  0.00000000000E+00  0.00000000000E+00  0.35527136788E-14  0.91188000000E+02  0.91188000000E+02 0.  0.
    9900012    2    3    3    0    0 -0.19903026639E+02  0.23698834488E+02 -0.30427948114E+02  0.47787248257E+02  0.19999896102E+02 0.  0.
         12    1    3    3    0    0  0.19903026639E+02 -0.23698834488E+02  0.30427948114E+02  0.43400751743E+02  0.00000000000E+00 0. -1.
         11    1    4    4    0    0 -0.55062805074E+01  0.47621699814E+01 -0.20038204719E+02  0.21319639692E+02  0.51100000000E-03 0. -1.
        -11    1    4    4    0    0 -0.54436562604E+01  0.60171356528E+01 -0.10451416401E+01  0.81811757256E+01  0.51100000000E-03 0.  1.
         12    1    4    4    0    0 -0.89530898712E+01  0.12919528854E+02 -0.93446017545E+01  0.18286432839E+02  0.00000000000E+00 0. -1.
</event>
<event>
 8    1  0.4798632E-010  0.9118800E+02  0.7816164E-02  0.1184000E+00
        -11   -1    0    0    0    0  0.00000000000E+00  0.00000000000E+00  0.45593999997E+02  0.45594000000E+02  0.51100000000E-03 0. -1.
         11   -1    0    0    0    0 -0.00000000000E+00 -0.00000000000E+00 -0.45593999997E+02  0.45594000000E+02  0.51100000000E-03 0.  1.
         23    2    1    2    0    0 -0.35527136788E-14  0.35527136788E-14  0.35527136788E-14  0.91188000000E+02  0.91188000000E+02 0.  0.
    9900012    2    3    3    0    0 -0.19048799114E+02 -0.29095071630E+02 -0.25966189332E+02  0.47787275014E+02  0.20000018099E+02 0.  0.
         12    1    3    3    0    0  0.19048799114E+02  0.29095071630E+02  0.25966189332E+02  0.43400724986E+02  0.00000000000E+00 0. -1.
         11    1    4    4    0    0  0.14129871817E+01 -0.21207838977E+01  0.17924063559E+01  0.31156023370E+01  0.51100000000E-03 0. -1.
        -11    1    4    4    0    0 -0.40393381656E+01 -0.94666085939E+01 -0.12650340133E+02  0.16308403871E+02  0.51100000000E-03 0.  1.
         12    1    4    4    0    0 -0.16422448130E+02 -0.17507679139E+02 -0.15108255555E+02  0.28363268806E+02  0.00000000000E+00 0. -1.
</event>
<event>
 8    1  0.4798632E-010  0.9118800E+02  0.7816164E-02  0.1184000E+00
        -11   -1    0    0    0    0  0.00000000000E+00  0.00000000000E+00  0.45593999997E+02  0.45594000000E+02  0.51100000000E-03 0. -1.
         11   -1    0    0    0    0 -0.00000000000E+00 -0.00000000000E+00 -0.45593999997E+02  0.45594000000E+02  0.51100000000E-03 0.  1.
         23    2    1    2    0    0 -0.35527136788E-14  0.00000000000E+00  0.00000000000E+00  0.91188000000E+02  0.91188000000E+02 0.  0.
    9900012    2    3    3    0    0  0.22540191180E+02 -0.26662494156E+02 -0.25781281336E+02  0.47787270970E+02  0.19999999660E+02 0.  0.
         12    1    3    3    0    0 -0.22540191180E+02  0.26662494156E+02  0.25781281336E+02  0.43400729030E+02  0.00000000000E+00 0. -1.
         11    1    4    4    0    0  0.24101117501E+02 -0.24927725084E+02 -0.19630262057E+02  0.39844730283E+02  0.51100000000E-03 0. -1.
        -11    1    4    4    0    0 -0.68761195762E+00 -0.28178902815E+01 -0.58343863580E+01  0.65156258547E+01  0.51100000000E-03 0.  1.
         12    1    4    4    0    0 -0.87331436312E+00  0.10831212097E+01 -0.31663292107E+00  0.14269148323E+01  0.00000000000E+00 0. -1.
</event>
<event>
 8    1  0.4798632E-010  0.9118800E+02  0.7816164E-02  0.1184000E+00
        -11   -1    0    0    0    0  0.00000000000E+00  0.00000000000E+00  0.45593999997E+02  0.45594000000E+02  0.51100000000E-03 0.  1.
         11   -1    0    0    0    0 -0.00000000000E+00 -0.00000000000E+00 -0.45593999997E+02  0.45594000000E+02  0.51100000000E-03 0. -1.
         23    2    1    2    0    0  0.00000000000E+00  0.00000000000E+00  0.00000000000E+00  0.91188000000E+02  0.91188000000E+02 0.  0.
    9900012    2    3    3    0    0 -0.37058336522E+02  0.93460775504E+01  0.20565840329E+02  0.47787271207E+02  0.20000000739E+02 0.  0.
        -12    1    3    3    0    0  0.37058336522E+02 -0.93460775504E+01 -0.20565840329E+02  0.43400728793E+02  0.00000000000E+00 0.  1.
         11    1    4    4    0    0 -0.14877739082E+02 -0.25807359980E+01  0.50089298148E+01  0.15909013063E+02  0.51100000000E-03 0. -1.
        -11    1    4    4    0    0 -0.26832700884E+01  0.67376521322E+01  0.65905855470E+01  0.97995771713E+01  0.51100000000E-03 0.  1.
        -12    1    4    4    0    0 -0.19497327352E+02  0.51891614163E+01  0.89663249668E+01  0.22078680973E+02  0.00000000000E+00 0.  1.
</event>
<event>
 8    1  0.4798632E-010  0.9118800E+02  0.7816164E-02  0.1184000E+00
        -11   -1    0    0    0    0  0.00000000000E+00  0.00000000000E+00  0.45593999997E+02  0.45594000000E+02  0.51100000000E-03 0. -1.
         11   -1    0    0    0    0 -0.00000000000E+00 -0.00000000000E+00 -0.45593999997E+02  0.45594000000E+02  0.51100000000E-03 0.  1.
         23    2    1    2    0    0 -0.22204460493E-15  0.17763568394E-14  0.71054273576E-14  0.91188000000E+02  0.91188000000E+02 0.  0.
    9900012    2    3    3    0    0  0.18059595579E+01  0.10697916243E+02  0.42022804113E+02  0.47787274576E+02  0.20000016101E+02 0.  0.
        -12    1    3    3    0    0 -0.18059595579E+01 -0.10697916243E+02 -0.42022804113E+02  0.43400725424E+02  0.00000000000E+00 0.  1.
         11    1    4    4    0    0 -0.12861367676E+01  0.98784803862E+01  0.11108162743E+02  0.14920784240E+02  0.51100000000E-03 0. -1.
        -11    1    4    4    0    0  0.57581806150E+01 -0.28272212113E+01  0.14794130807E+02  0.16125015671E+02  0.51100000000E-03 0.  1.
         12    1    4    4    0    0 -0.26660842895E+01  0.36466570677E+01  0.16120510562E+02  0.16741474666E+02  0.00000000000E+00 0. -1.
</event>
<event>
 8    1  0.4798632E-010  0.9118800E+02  0.7816164E-02  0.1184000E+00
        -11   -1    0    0    0    0  0.00000000000E+00  0.00000000000E+00  0.45593999997E+02  0.45594000000E+02  0.51100000000E-03 0.  1.
         11   -1    0    0    0    0 -0.00000000000E+00 -0.00000000000E+00 -0.45593999997E+02  0.45594000000E+02  0.51100000000E-03 0. -1.
         23    2    1    2    0    0  0.71054273576E-14 -0.66613381478E-15  0.35527136788E-14  0.91188000000E+02  0.91188000000E+02 0.  0.
    9900012    2    3    3    0    0  0.39451342031E+02 -0.98961428529E+00  0.18061995820E+02  0.47787269390E+02  0.19999992458E+02 0.  0.
        -12    1    3    3    0    0 -0.39451342031E+02  0.98961428529E+00 -0.18061995820E+02  0.43400730610E+02  0.00000000000E+00 0.  1.
         11    1    4    4    0    0  0.12404047082E+02  0.40939805534E+01  0.11612819682E+02  0.17477947305E+02  0.51100000000E-03 0.  1.
        -11    1    4    4    0    0  0.88771332988E+01 -0.59504357220E+01 -0.82330942468E+00  0.10718629556E+02  0.51100000000E-03 0. -1.
         12    1    4    4    0    0  0.18170161650E+02  0.86684088334E+00  0.72724855629E+01  0.19590692529E+02  0.00000000000E+00 0. -1.
</event>
<event>
 8    1  0.4798632E-010  0.9118800E+02  0.7816164E-02  0.1184000E+00
        -11   -1    0    0    0    0  0.00000000000E+00  0.00000000000E+00  0.45593999997E+02  0.45594000000E+02  0.51100000000E-03 0. -1.
         11   -1    0    0    0    0 -0.00000000000E+00 -0.00000000000E+00 -0.45593999997E+02  0.45594000000E+02  0.51100000000E-03 0.  1.
         23    2    1    2    0    0 -0.21510571102E-15  0.00000000000E+00  0.17763568394E-14  0.91188000000E+02  0.91188000000E+02 0.  0.
    9900012    2    3    3    0    0 -0.38738148529E-01  0.41663795481E+02 -0.12155241568E+02  0.47787271295E+02  0.20000001142E+02 0.  0.
         12    1    3    3    0    0  0.38738148529E-01 -0.41663795481E+02  0.12155241568E+02  0.43400728705E+02  0.00000000000E+00 0. -1.
         11    1    4    4    0    0 -0.11892665958E+01  0.21664360578E+02  0.38160474174E+01  0.22030004368E+02  0.51100000000E-03 0. -1.
        -11    1    4    4    0    0  0.18898959236E+01  0.97635814690E+01 -0.77734459759E+01  0.12622428146E+02  0.51100000000E-03 0.  1.
         12    1    4    4    0    0 -0.73936747628E+00  0.10235853435E+02 -0.81978430093E+01  0.13134838781E+02  0.00000000000E+00 0. -1.
</event>
<event>
 8    1  0.4982546E-010  0.9118800E+02  0.7816164E-02  0.1184000E+00
        -11   -1    0    0    0    0  0.00000000000E+00  0.00000000000E+00  0.45593999997E+02  0.45594000000E+02  0.51100000000E-03 0. -1.
         11   -1    0    0    0    0 -0.00000000000E+00 -0.00000000000E+00 -0.45593999997E+02  0.45594000000E+02  0.51100000000E-03 0.  1.
         23    2    1    2    0    0  0.00000000000E+00 -0.22204460493E-15  0.00000000000E+00  0.91188000000E+02  0.91188000000E+02 0.  0.
    9900012    2    3    3    0    0  0.25455327769E+02 -0.91393252675E+00 -0.35139926482E+02  0.47787269388E+02  0.19999992447E+02 0.  0.
         12    1    3    3    0    0 -0.25455327769E+02  0.91393252675E+00  0.35139926482E+02  0.43400730612E+02  0.00000000000E+00 0. -1.
         11    1    4    4    0    0 -0.17486922842E+01  0.32179012763E+00 -0.12012490133E+01  0.21458035894E+01  0.51100000000E-03 0. -1.
        -11    1    4    4    0    0  0.21884701776E+02  0.92786894406E+00 -0.33307129304E+02  0.39864344662E+02  0.51100000000E-03 0.  1.
        -12    1    4    4    0    0  0.53193182771E+01 -0.21635915984E+01 -0.63154816505E+00  0.57771211363E+01  0.00000000000E+00 0.  1.
</event>
<event>
 8    1  0.4798632E-010  0.9118800E+02  0.7816164E-02  0.1184000E+00
        -11   -1    0    0    0    0  0.00000000000E+00  0.00000000000E+00  0.45593999997E+02  0.45594000000E+02  0.51100000000E-03 0. -1.
         11   -1    0    0    0    0 -0.00000000000E+00 -0.00000000000E+00 -0.45593999997E+02  0.45594000000E+02  0.51100000000E-03 0.  1.
         23    2    1    2    0    0  0.22204460493E-15 -0.35527136788E-14  0.00000000000E+00  0.91188000000E+02  0.91188000000E+02 0.  0.
    9900012    2    3    3    0    0 -0.17358787954E+01  0.19394270213E+02 -0.38787530349E+02  0.47787268406E+02  0.19999987971E+02 0.  0.
         12    1    3    3    0    0  0.17358787954E+01 -0.19394270213E+02  0.38787530349E+02  0.43400731594E+02  0.00000000000E+00 0. -1.
         11    1    4    4    0    0  0.48794800464E+01  0.10268799460E+02 -0.21775293948E+02  0.24564628934E+02  0.51100000000E-03 0.  1.
        -11    1    4    4    0    0 -0.27607972017E+01 -0.42901980478E+00 -0.10880092528E+02  0.11233097207E+02  0.51100000000E-03 0. -1.
         12    1    4    4    0    0 -0.38545616402E+01  0.95544905572E+01 -0.61321438735E+01  0.11989542265E+02  0.00000000000E+00 0. -1.
</event>
<event>
 8    1  0.4798632E-010  0.9118800E+02  0.7816164E-02  0.1184000E+00
        -11   -1    0    0    0    0  0.00000000000E+00  0.00000000000E+00  0.45593999997E+02  0.45594000000E+02  0.51100000000E-03 0. -1.
         11   -1    0    0    0    0 -0.00000000000E+00 -0.00000000000E+00 -0.45593999997E+02  0.45594000000E+02  0.51100000000E-03 0.  1.
         23    2    1    2    0    0  0.00000000000E+00  0.00000000000E+00  0.00000000000E+00  0.91188000000E+02  0.91188000000E+02 0.  0.
    9900012    2    3    3    0    0 -0.45920120662E+01  0.35257886179E+02 -0.24888106506E+02  0.47787274683E+02  0.20000016588E+02 0.  0.
         12    1    3    3    0    0  0.45920120662E+01 -0.35257886179E+02  0.24888106506E+02  0.43400725317E+02  0.00000000000E+00 0. -1.
         11    1    4    4    0    0 -0.28298707608E+01  0.11812480611E+02 -0.59018879448E+00  0.12161052166E+02  0.51100000000E-03 0. -1.
        -11    1    4    4    0    0 -0.45428260046E+01  0.18289855667E+02 -0.22799545039E+02  0.29579982128E+02  0.51100000000E-03 0.  1.
         12    1    4    4    0    0  0.27806846992E+01  0.51555499003E+01 -0.14983726724E+01  0.60462403886E+01  0.00000000000E+00 0. -1.
</event>
<event>
 8    1  0.4798632E-010  0.9118800E+02  0.7816164E-02  0.1184000E+00
        -11   -1    0    0    0    0  0.00000000000E+00  0.00000000000E+00  0.45593999997E+02  0.45594000000E+02  0.51100000000E-03 0. -1.
         11   -1    0    0    0    0 -0.00000000000E+00 -0.00000000000E+00 -0.45593999997E+02  0.45594000000E+02  0.51100000000E-03 0.  1.
         23    2    1    2    0    0  0.00000000000E+00 -0.35527136788E-14  0.00000000000E+00  0.91188000000E+02  0.91188000000E+02 0.  0.
    9900012    2    3    3    0    0  0.19720703893E+02 -0.20331860239E+02 -0.32883626323E+02  0.47787267484E+02  0.19999983766E+02 0.  0.
         12    1    3    3    0    0 -0.19720703893E+02  0.20331860239E+02  0.32883626323E+02  0.43400732516E+02  0.00000000000E+00 0. -1.
         11    1    4    4    0    0  0.86926615691E+00 -0.65644858089E+01 -0.11219146216E+01  0.67161588922E+01  0.51100000000E-03 0. -1.
        -11    1    4    4    0    0  0.10658823522E+02 -0.33914999655E+01 -0.21854152132E+02  0.24550290356E+02  0.51100000000E-03 0.  1.
        -12    1    4    4    0    0  0.81926142138E+01 -0.10375874465E+02 -0.99075595690E+01  0.16520818236E+02  0.00000000000E+00 0.  1.
</event>
<event>
 8    1  0.4798632E-010  0.9118800E+02  0.7816164E-02  0.1184000E+00
        -11   -1    0    0    0    0  0.00000000000E+00  0.00000000000E+00  0.45593999997E+02  0.45594000000E+02  0.51100000000E-03 0.  1.
         11   -1    0    0    0    0 -0.00000000000E+00 -0.00000000000E+00 -0.45593999997E+02  0.45594000000E+02  0.51100000000E-03 0. -1.
         23    2    1    2    0    0  0.00000000000E+00  0.35527136788E-14  0.35527136788E-14  0.91188000000E+02  0.91188000000E+02 0.  0.
    9900012    2    3    3    0    0 -0.24948177469E+02 -0.26087843235E+02 -0.24096393627E+02  0.47787270634E+02  0.19999998129E+02 0.  0.
         12    1    3    3    0    0  0.24948177469E+02  0.26087843235E+02  0.24096393627E+02  0.43400729366E+02  0.00000000000E+00 0. -1.
         11    1    4    4    0    0  0.14475053434E+01 -0.12312736047E+01  0.16641197456E+01  0.25259851935E+01  0.51100000000E-03 0. -1.
        -11    1    4    4    0    0 -0.35690467346E+00 -0.14265358915E+01  0.42107366223E+00  0.15296041598E+01  0.51100000000E-03 0.  1.
         12    1    4    4    0    0 -0.26038778139E+02 -0.23430033739E+02 -0.26181587035E+02  0.43731681281E+02  0.00000000000E+00 0. -1.
</event>
<event>
 8    1  0.4798632E-010  0.9118800E+02  0.7816164E-02  0.1184000E+00
        -11   -1    0    0    0    0  0.00000000000E+00  0.00000000000E+00  0.45593999997E+02  0.45594000000E+02  0.51100000000E-03 0. -1.
         11   -1    0    0    0    0 -0.00000000000E+00 -0.00000000000E+00 -0.45593999997E+02  0.45594000000E+02  0.51100000000E-03 0.  1.
         23    2    1    2    0    0  0.00000000000E+00  0.00000000000E+00  0.00000000000E+00  0.91188000000E+02  0.91188000000E+02 0.  0.
    9900012    2    3    3    0    0  0.99329424832E+01 -0.10252355421E+02 -0.40985956374E+02  0.47787276988E+02  0.20000027099E+02 0.  0.
         12    1    3    3    0    0 -0.99329424832E+01  0.10252355421E+02  0.40985956374E+02  0.43400723012E+02  0.00000000000E+00 0. -1.
         11    1    4    4    0    0  0.45840857968E+01 -0.10019506410E+02 -0.31897333655E+02  0.33746766451E+02  0.51100000000E-03 0. -1.
        -11    1    4    4    0    0  0.78467812493E+01 -0.33998369920E+00 -0.82805816170E+01  0.11412957420E+02  0.51100000000E-03 0.  1.
         12    1    4    4    0    0 -0.24979245629E+01  0.10713468813E+00 -0.80804110198E+00  0.26275531176E+01  0.00000000000E+00 0. -1.
</event>
<event>
 8    1  0.4798632E-010  0.9118800E+02  0.7816164E-02  0.1184000E+00
        -11   -1    0    0    0    0  0.00000000000E+00  0.00000000000E+00  0.45593999997E+02  0.45594000000E+02  0.51100000000E-03 0.  1.
         11   -1    0    0    0    0 -0.00000000000E+00 -0.00000000000E+00 -0.45593999997E+02  0.45594000000E+02  0.51100000000E-03 0. -1.
         23    2    1    2    0    0 -0.35527136788E-14  0.00000000000E+00  0.00000000000E+00  0.91188000000E+02  0.91188000000E+02 0.  0.
    9900012    2    3    3    0    0  0.24436203181E+02  0.35279829622E+02 -0.64675269334E+01  0.47787270643E+02  0.19999998171E+02 0.  0.
         12    1    3    3    0    0 -0.24436203181E+02 -0.35279829622E+02  0.64675269334E+01  0.43400729357E+02  0.00000000000E+00 0. -1.
         11    1    4    4    0    0  0.86076233293E+01  0.15857319135E+01  0.61370299523E+00  0.87739590099E+01  0.51100000000E-03 0. -1.
        -11    1    4    4    0    0  0.15868483536E+02  0.27887437456E+02 -0.37126705222E+01  0.32300183595E+02  0.51100000000E-03 0.  1.
         12    1    4    4    0    0 -0.39903684035E-01  0.58066602526E+01 -0.33685594063E+01  0.67131280389E+01  0.00000000000E+00 0. -1.
</event>
<event>
 8    1  0.4798632E-010  0.9118800E+02  0.7816164E-02  0.1184000E+00
        -11   -1    0    0    0    0  0.00000000000E+00  0.00000000000E+00  0.45593999997E+02  0.45594000000E+02  0.51100000000E-03 0. -1.
         11   -1    0    0    0    0 -0.00000000000E+00 -0.00000000000E+00 -0.45593999997E+02  0.45594000000E+02  0.51100000000E-03 0.  1.
         23    2    1    2    0    0  0.00000000000E+00  0.00000000000E+00  0.00000000000E+00  0.91188000000E+02  0.91188000000E+02 0.  0.
    9900012    2    3    3    0    0  0.22283449235E+02  0.18260166536E+02  0.32459776629E+02  0.47787275461E+02  0.20000020136E+02 0.  0.
        -12    1    3    3    0    0 -0.22283449235E+02 -0.18260166536E+02 -0.32459776629E+02  0.43400724539E+02  0.00000000000E+00 0.  1.
         11    1    4    4    0    0  0.22346970834E+01 -0.65062826991E-01  0.88266387231E+01  0.91053641133E+01  0.51100000000E-03 0. -1.
        -11    1    4    4    0    0  0.21825715614E+02  0.14808553921E+02  0.18525749646E+02  0.32231328417E+02  0.51100000000E-03 0.  1.
        -12    1    4    4    0    0 -0.17769634624E+01  0.35166754418E+01  0.51073882600E+01  0.64505829308E+01  0.00000000000E+00 0.  1.
</event>
<event>
 8    1  0.4798632E-010  0.9118800E+02  0.7816164E-02  0.1184000E+00
        -11   -1    0    0    0    0  0.00000000000E+00  0.00000000000E+00  0.45593999997E+02  0.45594000000E+02  0.51100000000E-03 0.  1.
         11   -1    0    0    0    0 -0.00000000000E+00 -0.00000000000E+00 -0.45593999997E+02  0.45594000000E+02  0.51100000000E-03 0. -1.
         23    2    1    2    0    0  0.00000000000E+00 -0.71054273576E-14 -0.17763568394E-14  0.91188000000E+02  0.91188000000E+02 0.  0.
    9900012    2    3    3    0    0  0.92918009606E+01 -0.40353746848E+02 -0.12994644619E+02  0.47787271451E+02  0.20000001854E+02 0.  0.
        -12    1    3    3    0    0 -0.92918009606E+01  0.40353746848E+02  0.12994644619E+02  0.43400728549E+02  0.00000000000E+00 0.  1.
         11    1    4    4    0    0  0.19402680321E+01  0.40827128612E-01  0.18502321909E+01  0.26813553125E+01  0.51100000000E-03 0. -1.
        -11    1    4    4    0    0  0.93628315028E+01 -0.27312030593E+02 -0.13271634124E+02  0.31776499201E+02  0.51100000000E-03 0.  1.
         12    1    4    4    0    0 -0.20112985743E+01 -0.13082543384E+02 -0.15732426859E+01  0.13329416938E+02  0.00000000000E+00 0. -1.
</event>
<event>
 8    1  0.4798632E-010  0.9118800E+02  0.7816164E-02  0.1184000E+00
        -11   -1    0    0    0    0  0.00000000000E+00  0.00000000000E+00  0.45593999997E+02  0.45594000000E+02  0.51100000000E-03 0. -1.
         11   -1    0    0    0    0 -0.00000000000E+00 -0.00000000000E+00 -0.45593999997E+02  0.45594000000E+02  0.51100000000E-03 0.  1.
         23    2    1    2    0    0  0.00000000000E+00 -0.35527136788E-14  0.00000000000E+00  0.91188000000E+02  0.91188000000E+02 0.  0.
    9900012    2    3    3    0    0  0.45735985654E+01  0.27179445034E+02  0.33525857671E+02  0.47787272256E+02  0.20000005522E+02 0.  0.
        -12    1    3    3    0    0 -0.45735985654E+01 -0.27179445034E+02 -0.33525857671E+02  0.43400727744E+02  0.00000000000E+00 0.  1.
         11    1    4    4    0    0  0.73594935790E+01  0.16170798498E+02  0.29491316405E+02  0.34429560168E+02  0.51100000000E-03 0. -1.
        -11    1    4    4    0    0 -0.12853510591E+01  0.20752981341E+01 -0.13801682740E+01  0.28042564819E+01  0.51100000000E-03 0.  1.
         12    1    4    4    0    0 -0.15005439544E+01  0.89333484014E+01  0.54147095402E+01  0.10553455606E+02  0.00000000000E+00 0. -1.
</event>
<event>
 8    1  0.4798632E-010  0.9118800E+02  0.7816164E-02  0.1184000E+00
        -11   -1    0    0    0    0  0.00000000000E+00  0.00000000000E+00  0.45593999997E+02  0.45594000000E+02  0.51100000000E-03 0. -1.
         11   -1    0    0    0    0 -0.00000000000E+00 -0.00000000000E+00 -0.45593999997E+02  0.45594000000E+02  0.51100000000E-03 0.  1.
         23    2    1    2    0    0  0.88817841970E-15 -0.35527136788E-14  0.00000000000E+00  0.91188000000E+02  0.91188000000E+02 0.  0.
    9900012    2    3    3    0    0  0.52086955084E+01  0.27552502100E+02  0.33126251771E+02  0.47787315244E+02  0.20000201524E+02 0.  0.
        -12    1    3    3    0    0 -0.52086955084E+01 -0.27552502100E+02 -0.33126251771E+02  0.43400684756E+02  0.00000000000E+00 0.  1.
         11    1    4    4    0    0  0.53230096238E+00  0.24904533728E+02  0.22922098982E+02  0.33851761646E+02  0.51100000000E-03 0. -1.
        -11    1    4    4    0    0 -0.11755154293E+01 -0.17643753763E+01  0.28597002951E+01  0.35598796373E+01  0.51100000000E-03 0.  1.
        -12    1    4    4    0    0  0.58519099753E+01  0.44123437486E+01  0.73444524940E+01  0.10375673961E+02  0.00000000000E+00 0.  1.
</event>
<event>
 8    1  0.4798632E-010  0.9118800E+02  0.7816164E-02  0.1184000E+00
        -11   -1    0    0    0    0  0.00000000000E+00  0.00000000000E+00  0.45593999997E+02  0.45594000000E+02  0.51100000000E-03 0. -1.
         11   -1    0    0    0    0 -0.00000000000E+00 -0.00000000000E+00 -0.45593999997E+02  0.45594000000E+02  0.51100000000E-03 0.  1.
         23    2    1    2    0    0  0.00000000000E+00  0.00000000000E+00  0.00000000000E+00  0.91188000000E+02  0.91188000000E+02 0.  0.
    9900012    2    3    3    0    0  0.22188290405E+01 -0.57924305940E+01  0.42955157370E+02  0.47787297251E+02  0.20000119484E+02 0.  0.
        -12    1    3    3    0    0 -0.22188290405E+01  0.57924305940E+01 -0.42955157370E+02  0.43400702749E+02  0.00000000000E+00 0.  1.
         11    1    4    4    0    0  0.42208346979E+01 -0.10569050620E+02  0.39960155113E+02  0.41549178975E+02  0.51100000000E-03 0. -1.
        -11    1    4    4    0    0 -0.13362365880E+01  0.36829244529E+01  0.13293824164E+01  0.41372356248E+01  0.51100000000E-03 0.  1.
         12    1    4    4    0    0 -0.66576906943E+00  0.10936955733E+01  0.16656198398E+01  0.21008826506E+01  0.00000000000E+00 0. -1.
</event>
<event>
 8    1  0.4798632E-010  0.9118800E+02  0.7816164E-02  0.1184000E+00
        -11   -1    0    0    0    0  0.00000000000E+00  0.00000000000E+00  0.45593999997E+02  0.45594000000E+02  0.51100000000E-03 0. -1.
         11   -1    0    0    0    0 -0.00000000000E+00 -0.00000000000E+00 -0.45593999997E+02  0.45594000000E+02  0.51100000000E-03 0.  1.
         23    2    1    2    0    0 -0.22204460493E-14  0.00000000000E+00  0.00000000000E+00  0.91188000000E+02  0.91188000000E+02 0.  0.
    9900012    2    3    3    0    0  0.39882411305E+01  0.63448872215E+01  0.42748793487E+02  0.47787274133E+02  0.20000014082E+02 0.  0.
        -12    1    3    3    0    0 -0.39882411305E+01 -0.63448872215E+01 -0.42748793487E+02  0.43400725867E+02  0.00000000000E+00 0.  1.
         11    1    4    4    0    0  0.83070716863E+01  0.32841302080E+01  0.17477504065E+02  0.19627941813E+02  0.51100000000E-03 0. -1.
        -11    1    4    4    0    0 -0.46909411785E+01  0.53770161895E+01  0.24747382075E+02  0.25755584872E+02  0.51100000000E-03 0.  1.
        -12    1    4    4    0    0  0.37211062268E+00 -0.23162591760E+01  0.52390734727E+00  0.24037474481E+01  0.00000000000E+00 0.  1.
</event>
<event>
 8    1  0.4798632E-010  0.9118800E+02  0.7816164E-02  0.1184000E+00
        -11   -1    0    0    0    0  0.00000000000E+00  0.00000000000E+00  0.45593999997E+02  0.45594000000E+02  0.51100000000E-03 0. -1.
         11   -1    0    0    0    0 -0.00000000000E+00 -0.00000000000E+00 -0.45593999997E+02  0.45594000000E+02  0.51100000000E-03 0.  1.
         23    2    1    2    0    0  0.00000000000E+00  0.00000000000E+00  0.00000000000E+00  0.91188000000E+02  0.91188000000E+02 0.  0.
    9900012    2    3    3    0    0  0.17967346231E+02 -0.23882824137E+02 -0.31470756889E+02  0.47787270069E+02  0.19999995554E+02 0.  0.
         12    1    3    3    0    0 -0.17967346231E+02  0.23882824137E+02  0.31470756889E+02  0.43400729931E+02  0.00000000000E+00 0. -1.
         11    1    4    4    0    0  0.59875088695E-01 -0.24314559835E+01  0.89430775866E+00  0.25913992078E+01  0.51100000000E-03 0. -1.
        -11    1    4    4    0    0  0.19149368336E+02 -0.18104621163E+02 -0.32218127438E+02  0.41623110780E+02  0.51100000000E-03 0.  1.
        -12    1    4    4    0    0 -0.12418971935E+01 -0.33467469901E+01 -0.14693720922E+00  0.35727600813E+01  0.00000000000E+00 0.  1.
</event>
<event>
 8    1  0.4798632E-010  0.9118800E+02  0.7816164E-02  0.1184000E+00
        -11   -1    0    0    0    0  0.00000000000E+00  0.00000000000E+00  0.45593999997E+02  0.45594000000E+02  0.51100000000E-03 0. -1.
         11   -1    0    0    0    0 -0.00000000000E+00 -0.00000000000E+00 -0.45593999997E+02  0.45594000000E+02  0.51100000000E-03 0.  1.
         23    2    1    2    0    0  0.17763568394E-14  0.00000000000E+00  0.00000000000E+00  0.91188000000E+02  0.91188000000E+02 0.  0.
    9900012    2    3    3    0    0 -0.11679077185E+02  0.42251172045E+01  0.41585708591E+02  0.47787267076E+02  0.19999981907E+02 0.  0.
        -12    1    3    3    0    0  0.11679077185E+02 -0.42251172045E+01 -0.41585708591E+02  0.43400732924E+02  0.00000000000E+00 0.  1.
         11    1    4    4    0    0 -0.10965334036E+02  0.76243427797E+00  0.17049728954E+02  0.20285786014E+02  0.51100000000E-03 0. -1.
        -11    1    4    4    0    0  0.52903097353E+01  0.35803951067E+01  0.13587511495E+02  0.15014229087E+02  0.51100000000E-03 0.  1.
        -12    1    4    4    0    0 -0.60040528845E+01 -0.11771218016E+00  0.10948468143E+02  0.12487251975E+02  0.00000000000E+00 0.  1.
</event>
<event>
 8    1  0.4800858E-010  0.9118800E+02  0.7816164E-02  0.1184000E+00
        -11   -1    0    0    0    0  0.00000000000E+00  0.00000000000E+00  0.45593999997E+02  0.45594000000E+02  0.51100000000E-03 0. -1.
         11   -1    0    0    0    0 -0.00000000000E+00 -0.00000000000E+00 -0.45593999997E+02  0.45594000000E+02  0.51100000000E-03 0.  1.
         23    2    1    2    0    0 -0.35527136788E-14  0.17763568394E-14  0.71054273576E-14  0.91188000000E+02  0.91188000000E+02 0.  0.
    9900012    2    3    3    0    0  0.25443775002E+02  0.56012562982E+01 -0.34711140526E+02  0.47787273795E+02  0.20000012541E+02 0.  0.
         12    1    3    3    0    0 -0.25443775002E+02 -0.56012562982E+01  0.34711140526E+02  0.43400726205E+02  0.00000000000E+00 0. -1.
         11    1    4    4    0    0 -0.12331091685E+00  0.11630427458E+01  0.14392218155E+00  0.11783835820E+01  0.51100000000E-03 0.  1.
        -11    1    4    4    0    0  0.83081568203E+00 -0.41935181494E+01 -0.24129001159E+01  0.49089649008E+01  0.51100000000E-03 0. -1.
        -12    1    4    4    0    0  0.24736270237E+02  0.86317317018E+01 -0.32442162592E+02  0.41699925312E+02  0.00000000000E+00 0.  1.
</event>
<event>
 8    1  0.4798632E-010  0.9118800E+02  0.7816164E-02  0.1184000E+00
        -11   -1    0    0    0    0  0.00000000000E+00  0.00000000000E+00  0.45593999997E+02  0.45594000000E+02  0.51100000000E-03 0. -1.
         11   -1    0    0    0    0 -0.00000000000E+00 -0.00000000000E+00 -0.45593999997E+02  0.45594000000E+02  0.51100000000E-03 0.  1.
         23    2    1    2    0    0 -0.35527136788E-14  0.00000000000E+00  0.00000000000E+00  0.91188000000E+02  0.91188000000E+02 0.  0.
    9900012    2    3    3    0    0 -0.17909979661E+02  0.98414428304E+01  0.38288396175E+02  0.47787278231E+02  0.20000032765E+02 0.  0.
        -12    1    3    3    0    0  0.17909979661E+02 -0.98414428304E+01 -0.38288396175E+02  0.43400721769E+02  0.00000000000E+00 0.  1.
         11    1    4    4    0    0 -0.16966535185E+02  0.24109394756E+01  0.14221183551E+02  0.22269216582E+02  0.51100000000E-03 0. -1.
        -11    1    4    4    0    0 -0.20821485323E+01  0.31336602454E+01  0.14304201508E+02  0.14790718376E+02  0.51100000000E-03 0.  1.
         12    1    4    4    0    0  0.11387040560E+01  0.42968431094E+01  0.97630111165E+01  0.10727343273E+02  0.00000000000E+00 0. -1.
</event>
<event>
 8    1  0.4798632E-010  0.9118800E+02  0.7816164E-02  0.1184000E+00
        -11   -1    0    0    0    0  0.00000000000E+00  0.00000000000E+00  0.45593999997E+02  0.45594000000E+02  0.51100000000E-03 0.  1.
         11   -1    0    0    0    0 -0.00000000000E+00 -0.00000000000E+00 -0.45593999997E+02  0.45594000000E+02  0.51100000000E-03 0. -1.
         23    2    1    2    0    0  0.00000000000E+00  0.00000000000E+00 -0.22204460493E-15  0.91188000000E+02  0.91188000000E+02 0.  0.
    9900012    2    3    3    0    0  0.53361730224E+01  0.43064108844E+02 -0.79393251334E+00  0.47787279477E+02  0.20000038449E+02 0.  0.
         12    1    3    3    0    0 -0.53361730224E+01 -0.43064108844E+02  0.79393251334E+00  0.43400720523E+02  0.00000000000E+00 0. -1.
         11    1    4    4    0    0  0.15101173876E+01  0.17503752180E+02  0.64901647328E+01  0.18729229387E+02  0.51100000000E-03 0. -1.
        -11    1    4    4    0    0  0.22504201018E+01  0.71863297929E+01 -0.74820897612E+01  0.10615526081E+02  0.51100000000E-03 0.  1.
        -12    1    4    4    0    0  0.15756355330E+01  0.18374026871E+02  0.19799251507E+00  0.18442524009E+02  0.00000000000E+00 0.  1.
</event>
<event>
 8    1  0.4798632E-010  0.9118800E+02  0.7816164E-02  0.1184000E+00
        -11   -1    0    0    0    0  0.00000000000E+00  0.00000000000E+00  0.45593999997E+02  0.45594000000E+02  0.51100000000E-03 0. -1.
         11   -1    0    0    0    0 -0.00000000000E+00 -0.00000000000E+00 -0.45593999997E+02  0.45594000000E+02  0.51100000000E-03 0.  1.
         23    2    1    2    0    0  0.00000000000E+00  0.00000000000E+00  0.00000000000E+00  0.91188000000E+02  0.91188000000E+02 0.  0.
    9900012    2    3    3    0    0  0.19659256932E+02 -0.33938899341E+02  0.18581926597E+02  0.47787271116E+02  0.20000000326E+02 0.  0.
        -12    1    3    3    0    0 -0.19659256932E+02  0.33938899341E+02 -0.18581926597E+02  0.43400728884E+02  0.00000000000E+00 0.  1.
         11    1    4    4    0    0  0.85097905469E+01 -0.20194012067E+02  0.10220541865E+02  0.24180035873E+02  0.51100000000E-03 0. -1.
        -11    1    4    4    0    0  0.71958075538E+01 -0.38150434825E+01 -0.23487279892E+01  0.84764807883E+01  0.51100000000E-03 0.  1.
        -12    1    4    4    0    0  0.39536588312E+01 -0.99298437910E+01  0.10710112722E+02  0.15130754455E+02  0.00000000000E+00 0.  1.
</event>
<event>
 8    1  0.4798632E-010  0.9118800E+02  0.7816164E-02  0.1184000E+00
        -11   -1    0    0    0    0  0.00000000000E+00  0.00000000000E+00  0.45593999997E+02  0.45594000000E+02  0.51100000000E-03 0. -1.
         11   -1    0    0    0    0 -0.00000000000E+00 -0.00000000000E+00 -0.45593999997E+02  0.45594000000E+02  0.51100000000E-03 0.  1.
         23    2    1    2    0    0  0.00000000000E+00  0.35527136788E-14 -0.35527136788E-14  0.91188000000E+02  0.91188000000E+02 0.  0.
    9900012    2    3    3    0    0  0.13827432507E+02 -0.29837787937E+02  0.28321929311E+02  0.47787272372E+02  0.20000006054E+02 0.  0.
        -12    1    3    3    0    0 -0.13827432507E+02  0.29837787937E+02 -0.28321929311E+02  0.43400727628E+02  0.00000000000E+00 0.  1.
         11    1    4    4    0    0  0.13016062254E+02 -0.28727120853E+02  0.24962814617E+02  0.40221977363E+02  0.51100000000E-03 0. -1.
        -11    1    4    4    0    0 -0.84329431259E+00 -0.33986235641E+00  0.50174107883E+01  0.50991237481E+01  0.51100000000E-03 0.  1.
         12    1    4    4    0    0  0.16546645656E+01 -0.77080472789E+00 -0.16582960945E+01  0.24661712613E+01  0.00000000000E+00 0. -1.
</event>
<event>
 8    1  0.4798632E-010  0.9118800E+02  0.7816164E-02  0.1184000E+00
        -11   -1    0    0    0    0  0.00000000000E+00  0.00000000000E+00  0.45593999997E+02  0.45594000000E+02  0.51100000000E-03 0. -1.
         11   -1    0    0    0    0 -0.00000000000E+00 -0.00000000000E+00 -0.45593999997E+02  0.45594000000E+02  0.51100000000E-03 0.  1.
         23    2    1    2    0    0  0.00000000000E+00 -0.33306690739E-15  0.00000000000E+00  0.91188000000E+02  0.91188000000E+02 0.  0.
    9900012    2    3    3    0    0  0.34067851814E+02  0.76673757640E+00  0.26877815289E+02  0.47787269955E+02  0.19999995034E+02 0.  0.
        -12    1    3    3    0    0 -0.34067851814E+02 -0.76673757640E+00 -0.26877815289E+02  0.43400730045E+02  0.00000000000E+00 0.  1.
         11    1    4    4    0    0  0.14782879787E+01  0.10720875216E+01  0.53036488527E+01  0.56092244041E+01  0.51100000000E-03 0. -1.
        -11    1    4    4    0    0  0.26568338273E+02  0.62885450236E+01  0.16701349762E+02  0.32005585157E+02  0.51100000000E-03 0.  1.
        -12    1    4    4    0    0  0.60212255619E+01 -0.65938949688E+01  0.48728166748E+01  0.10172460394E+02  0.00000000000E+00 0.  1.
</event>
<event>
 8    1  0.4798632E-010  0.9118800E+02  0.7816164E-02  0.1184000E+00
        -11   -1    0    0    0    0  0.00000000000E+00  0.00000000000E+00  0.45593999997E+02  0.45594000000E+02  0.51100000000E-03 0. -1.
         11   -1    0    0    0    0 -0.00000000000E+00 -0.00000000000E+00 -0.45593999997E+02  0.45594000000E+02  0.51100000000E-03 0.  1.
         23    2    1    2    0    0  0.00000000000E+00  0.00000000000E+00  0.00000000000E+00  0.91188000000E+02  0.91188000000E+02 0.  0.
    9900012    2    3    3    0    0  0.24959160288E+02  0.33702227703E+02 -0.11172447614E+02  0.47787269360E+02  0.19999992320E+02 0.  0.
         12    1    3    3    0    0 -0.24959160288E+02 -0.33702227703E+02  0.11172447614E+02  0.43400730640E+02  0.00000000000E+00 0. -1.
         11    1    4    4    0    0  0.70102953733E+01  0.41155732584E+01  0.34416831303E+01  0.88276479029E+01  0.51100000000E-03 0. -1.
        -11    1    4    4    0    0  0.16827812823E+02  0.25060677222E+02 -0.15906875580E+02  0.34120983547E+02  0.51100000000E-03 0.  1.
        -12    1    4    4    0    0  0.11210520913E+01  0.45259772222E+01  0.12927448365E+01  0.48386379096E+01  0.00000000000E+00 0.  1.
</event>
<event>
 8    1  0.4798632E-010  0.9118800E+02  0.7816164E-02  0.1184000E+00
        -11   -1    0    0    0    0  0.00000000000E+00  0.00000000000E+00  0.45593999997E+02  0.45594000000E+02  0.51100000000E-03 0.  1.
         11   -1    0    0    0    0 -0.00000000000E+00 -0.00000000000E+00 -0.45593999997E+02  0.45594000000E+02  0.51100000000E-03 0. -1.
         23    2    1    2    0    0  0.00000000000E+00 -0.71054273576E-14  0.00000000000E+00  0.91188000000E+02  0.91188000000E+02 0.  0.
    9900012    2    3    3    0    0  0.23612387818E+02  0.34668772125E+02  0.11142462961E+02  0.47787273049E+02  0.20000009138E+02 0.  0.
        -12    1    3    3    0    0 -0.23612387818E+02 -0.34668772125E+02 -0.11142462961E+02  0.43400726951E+02  0.00000000000E+00 0.  1.
         11    1    4    4    0    0  0.10403071744E+02  0.10046331708E+02 -0.38274496063E+01  0.14960015149E+02  0.51100000000E-03 0.  1.
        -11    1    4    4    0    0  0.18210309021E+01  0.11772861059E+02  0.76801838301E+01  0.14173977388E+02  0.51100000000E-03 0. -1.
        -12    1    4    4    0    0  0.11388285171E+02  0.12849579358E+02  0.72897287366E+01  0.18653280512E+02  0.00000000000E+00 0.  1.
</event>
<event>
 8    1  0.4798632E-010  0.9118800E+02  0.7816164E-02  0.1184000E+00
        -11   -1    0    0    0    0  0.00000000000E+00  0.00000000000E+00  0.45593999997E+02  0.45594000000E+02  0.51100000000E-03 0. -1.
         11   -1    0    0    0    0 -0.00000000000E+00 -0.00000000000E+00 -0.45593999997E+02  0.45594000000E+02  0.51100000000E-03 0.  1.
         23    2    1    2    0    0 -0.88817841970E-15  0.17763568394E-14  0.00000000000E+00  0.91188000000E+02  0.91188000000E+02 0.  0.
    9900012    2    3    3    0    0 -0.68694762061E+01  0.10242434527E+02  0.41611603796E+02  0.47787277208E+02  0.20000028102E+02 0.  0.
        -12    1    3    3    0    0  0.68694762061E+01 -0.10242434527E+02 -0.41611603796E+02  0.43400722792E+02  0.00000000000E+00 0.  1.
         11    1    4    4    0    0 -0.12662218853E+02  0.34114180127E+01  0.17507783141E+02  0.21874460677E+02  0.51100000000E-03 0. -1.
        -11    1    4    4    0    0  0.46881370180E+01  0.55854283907E+01  0.22281958295E+02  0.23444856680E+02  0.51100000000E-03 0.  1.
         12    1    4    4    0    0  0.11046056289E+01  0.12455881234E+01  0.18218623602E+01  0.24679598514E+01  0.00000000000E+00 0. -1.
</event>
<event>
 8    1  0.4798632E-010  0.9118800E+02  0.7816164E-02  0.1184000E+00
        -11   -1    0    0    0    0  0.00000000000E+00  0.00000000000E+00  0.45593999997E+02  0.45594000000E+02  0.51100000000E-03 0. -1.
         11   -1    0    0    0    0 -0.00000000000E+00 -0.00000000000E+00 -0.45593999997E+02  0.45594000000E+02  0.51100000000E-03 0.  1.
         23    2    1    2    0    0  0.00000000000E+00  0.00000000000E+00 -0.35527136788E-14  0.91188000000E+02  0.91188000000E+02 0.  0.
    9900012    2    3    3    0    0 -0.32053448934E+02  0.11983193125E+02 -0.26694621754E+02  0.47787270321E+02  0.19999996703E+02 0.  0.
         12    1    3    3    0    0  0.32053448934E+02 -0.11983193125E+02  0.26694621754E+02  0.43400729679E+02  0.00000000000E+00 0. -1.
         11    1    4    4    0    0 -0.24670585947E+02  0.76116671405E+01 -0.13387448212E+02  0.29082624666E+02  0.51100000000E-03 0. -1.
        -11    1    4    4    0    0 -0.51640960783E+01 -0.19907523633E+01 -0.27490845509E+01  0.61796803645E+01  0.51100000000E-03 0.  1.
         12    1    4    4    0    0 -0.22187669095E+01  0.63622783474E+01 -0.10558088991E+02  0.12524965290E+02  0.00000000000E+00 0. -1.
</event>
<event>
 8    1  0.8298448E-010  0.9118800E+02  0.7816164E-02  0.1184000E+00
        -11   -1    0    0    0    0  0.00000000000E+00  0.00000000000E+00  0.45593999997E+02  0.45594000000E+02  0.51100000000E-03 0. -1.
         11   -1    0    0    0    0 -0.00000000000E+00 -0.00000000000E+00 -0.45593999997E+02  0.45594000000E+02  0.51100000000E-03 0.  1.
         23    2    1    2    0    0  0.00000000000E+00  0.44408920985E-15  0.71054273576E-14  0.91188000000E+02  0.91188000000E+02 0.  0.
    9900012    2    3    3    0    0  0.51400066792E+01  0.27817591140E+01 -0.43005409153E+02  0.47787273406E+02  0.20000010768E+02 0.  0.
         12    1    3    3    0    0 -0.51400066792E+01 -0.27817591140E+01  0.43005409153E+02  0.43400726594E+02  0.00000000000E+00 0. -1.
         11    1    4    4    0    0  0.41078089355E+01 -0.16920701345E+01 -0.14308031672E+01  0.46673754461E+01  0.51100000000E-03 0. -1.
        -11    1    4    4    0    0  0.35679650819E+01  0.52333043215E+01 -0.38689164213E+02  0.39204199733E+02  0.51100000000E-03 0.  1.
        -12    1    4    4    0    0 -0.25357673381E+01 -0.75947507308E+00 -0.28854417736E+01  0.39156982275E+01  0.00000000000E+00 0.  1.
</event>
<event>
 8    1  0.4798632E-010  0.9118800E+02  0.7816164E-02  0.1184000E+00
        -11   -1    0    0    0    0  0.00000000000E+00  0.00000000000E+00  0.45593999997E+02  0.45594000000E+02  0.51100000000E-03 0.  1.
         11   -1    0    0    0    0 -0.00000000000E+00 -0.00000000000E+00 -0.45593999997E+02  0.45594000000E+02  0.51100000000E-03 0. -1.
         23    2    1    2    0    0  0.00000000000E+00  0.00000000000E+00  0.00000000000E+00  0.91188000000E+02  0.91188000000E+02 0.  0.
    9900012    2    3    3    0    0  0.27119042817E+02 -0.33846384119E+02  0.16135947346E+01  0.47787263956E+02  0.19999967680E+02 0.  0.
        -12    1    3    3    0    0 -0.27119042817E+02  0.33846384119E+02 -0.16135947346E+01  0.43400736044E+02  0.00000000000E+00 0.  1.
         11    1    4    4    0    0  0.14892630702E+02 -0.14821369309E+02  0.15854751725E+01  0.21070765749E+02  0.51100000000E-03 0. -1.
        -11    1    4    4    0    0 -0.26195484353E+01 -0.58950052557E+01 -0.20984647958E+01  0.67835592228E+01  0.51100000000E-03 0.  1.
        -12    1    4    4    0    0  0.14845960550E+02 -0.13130009554E+02  0.21265843579E+01  0.19932938984E+02  0.00000000000E+00 0.  1.
</event>
<event>
 8    1  0.4798632E-010  0.9118800E+02  0.7816164E-02  0.1184000E+00
        -11   -1    0    0    0    0  0.00000000000E+00  0.00000000000E+00  0.45593999997E+02  0.45594000000E+02  0.51100000000E-03 0. -1.
         11   -1    0    0    0    0 -0.00000000000E+00 -0.00000000000E+00 -0.45593999997E+02  0.45594000000E+02  0.51100000000E-03 0.  1.
         23    2    1    2    0    0 -0.35527136788E-14  0.00000000000E+00  0.35527136788E-14  0.91188000000E+02  0.91188000000E+02 0.  0.
    9900012    2    3    3    0    0  0.12288278202E+02 -0.33384642047E+02 -0.24861356690E+02  0.47787272331E+02  0.20000005864E+02 0.  0.
         12    1    3    3    0    0 -0.12288278202E+02  0.33384642047E+02  0.24861356690E+02  0.43400727669E+02  0.00000000000E+00 0. -1.
         11    1    4    4    0    0  0.18175144698E+01 -0.25666153399E+02 -0.18441042841E+02  0.31656387199E+02  0.51100000000E-03 0. -1.
        -11    1    4    4    0    0  0.23781843530E+00 -0.38509138527E+01 -0.17295776705E+01  0.42281833320E+01  0.51100000000E-03 0.  1.
         12    1    4    4    0    0  0.10232945297E+02 -0.38675747956E+01 -0.46907361779E+01  0.11902701800E+02  0.00000000000E+00 0. -1.
</event>
<event>
 8    1  0.4798632E-010  0.9118800E+02  0.7816164E-02  0.1184000E+00
        -11   -1    0    0    0    0  0.00000000000E+00  0.00000000000E+00  0.45593999997E+02  0.45594000000E+02  0.51100000000E-03 0. -1.
         11   -1    0    0    0    0 -0.00000000000E+00 -0.00000000000E+00 -0.45593999997E+02  0.45594000000E+02  0.51100000000E-03 0.  1.
         23    2    1    2    0    0 -0.17763568394E-14 -0.88817841970E-15  0.00000000000E+00  0.91188000000E+02  0.91188000000E+02 0.  0.
    9900012    2    3    3    0    0  0.66832165847E+01 -0.77899336736E+01 -0.42169596888E+02  0.47787270141E+02  0.19999995882E+02 0.  0.
         12    1    3    3    0    0 -0.66832165847E+01  0.77899336736E+01  0.42169596888E+02  0.43400729859E+02  0.00000000000E+00 0. -1.
         11    1    4    4    0    0 -0.15182170280E+01 -0.33329246659E+01 -0.36739005809E+00  0.36808077223E+01  0.51100000000E-03 0. -1.
        -11    1    4    4    0    0  0.14610783951E+01  0.27180398148E+01 -0.19298726829E+02  0.19543882624E+02  0.51100000000E-03 0.  1.
        -12    1    4    4    0    0  0.67403552176E+01 -0.71750488226E+01 -0.22503480001E+02  0.24562579796E+02  0.00000000000E+00 0.  1.
</event>
<event>
 8    1  0.4798632E-010  0.9118800E+02  0.7816164E-02  0.1184000E+00
        -11   -1    0    0    0    0  0.00000000000E+00  0.00000000000E+00  0.45593999997E+02  0.45594000000E+02  0.51100000000E-03 0. -1.
         11   -1    0    0    0    0 -0.00000000000E+00 -0.00000000000E+00 -0.45593999997E+02  0.45594000000E+02  0.51100000000E-03 0.  1.
         23    2    1    2    0    0  0.00000000000E+00 -0.88817841970E-15  0.00000000000E+00  0.91188000000E+02  0.91188000000E+02 0.  0.
    9900012    2    3    3    0    0  0.19454115365E+02 -0.70125737786E+01 -0.38157361215E+02  0.47787274078E+02  0.20000013833E+02 0.  0.
         12    1    3    3    0    0 -0.19454115365E+02  0.70125737786E+01  0.38157361215E+02  0.43400725922E+02  0.00000000000E+00 0. -1.
         11    1    4    4    0    0  0.15117574698E+02 -0.11621791049E+02 -0.18618966818E+02  0.26650947780E+02  0.51100000000E-03 0. -1.
        -11    1    4    4    0    0 -0.66034072544E+00  0.25202390926E+01 -0.73745733871E+01  0.78212523205E+01  0.51100000000E-03 0.  1.
         12    1    4    4    0    0  0.49968813923E+01  0.20889781782E+01 -0.12163821010E+02  0.13315073978E+02  0.00000000000E+00 0. -1.
</event>
<event>
 8    1  0.4798632E-010  0.9118800E+02  0.7816164E-02  0.1184000E+00
        -11   -1    0    0    0    0  0.00000000000E+00  0.00000000000E+00  0.45593999997E+02  0.45594000000E+02  0.51100000000E-03 0. -1.
         11   -1    0    0    0    0 -0.00000000000E+00 -0.00000000000E+00 -0.45593999997E+02  0.45594000000E+02  0.51100000000E-03 0.  1.
         23    2    1    2    0    0 -0.88817841970E-15  0.71054273576E-14  0.00000000000E+00  0.91188000000E+02  0.91188000000E+02 0.  0.
    9900012    2    3    3    0    0 -0.44220130016E+01 -0.37504304911E+02 -0.21389148512E+02  0.47787276966E+02  0.20000026997E+02 0.  0.
         12    1    3    3    0    0  0.44220130016E+01  0.37504304911E+02  0.21389148512E+02  0.43400723034E+02  0.00000000000E+00 0. -1.
         11    1    4    4    0    0  0.19247536281E+01  0.10551555350E+01 -0.32513271433E+01  0.39229017558E+01  0.51100000000E-03 0. -1.
        -11    1    4    4    0    0 -0.80178291338E+01 -0.31476829746E+02 -0.16378530352E+02  0.36377639445E+02  0.51100000000E-03 0.  1.
         12    1    4    4    0    0  0.16710625041E+01 -0.70826307000E+01 -0.17592910171E+01  0.74867357645E+01  0.00000000000E+00 0. -1.
</event>
<event>
 8    1  0.4798632E-010  0.9118800E+02  0.7816164E-02  0.1184000E+00
        -11   -1    0    0    0    0  0.00000000000E+00  0.00000000000E+00  0.45593999997E+02  0.45594000000E+02  0.51100000000E-03 0. -1.
         11   -1    0    0    0    0 -0.00000000000E+00 -0.00000000000E+00 -0.45593999997E+02  0.45594000000E+02  0.51100000000E-03 0.  1.
         23    2    1    2    0    0 -0.71054273576E-14  0.00000000000E+00  0.00000000000E+00  0.91188000000E+02  0.91188000000E+02 0.  0.
    9900012    2    3    3    0    0 -0.27707518881E+02  0.21764107287E+02  0.25342466676E+02  0.47787267451E+02  0.19999983617E+02 0.  0.
        -12    1    3    3    0    0  0.27707518881E+02 -0.21764107287E+02 -0.25342466676E+02  0.43400732549E+02  0.00000000000E+00 0.  1.
         11    1    4    4    0    0 -0.18619043869E+02  0.13439706642E+02  0.12903743408E+02  0.26340104469E+02  0.51100000000E-03 0. -1.
        -11    1    4    4    0    0  0.81600653640E+00  0.56823886534E+01  0.57669025906E+00  0.57695735883E+01  0.51100000000E-03 0.  1.
        -12    1    4    4    0    0 -0.99044815476E+01  0.26420119923E+01  0.11862033009E+02  0.15677589394E+02  0.00000000000E+00 0.  1.
</event>
<event>
 8    1  0.4798632E-010  0.9118800E+02  0.7816164E-02  0.1184000E+00
        -11   -1    0    0    0    0  0.00000000000E+00  0.00000000000E+00  0.45593999997E+02  0.45594000000E+02  0.51100000000E-03 0. -1.
         11   -1    0    0    0    0 -0.00000000000E+00 -0.00000000000E+00 -0.45593999997E+02  0.45594000000E+02  0.51100000000E-03 0.  1.
         23    2    1    2    0    0  0.35527136788E-14 -0.35527136788E-14  0.00000000000E+00  0.91188000000E+02  0.91188000000E+02 0.  0.
    9900012    2    3    3    0    0 -0.23398856894E+02  0.20964883952E+02  0.29943119370E+02  0.47787271196E+02  0.20000000693E+02 0.  0.
        -12    1    3    3    0    0  0.23398856894E+02 -0.20964883952E+02 -0.29943119370E+02  0.43400728804E+02  0.00000000000E+00 0.  1.
         11    1    4    4    0    0 -0.15992624346E+02  0.18246371745E+02  0.16374013667E+02  0.29271187867E+02  0.51100000000E-03 0. -1.
        -11    1    4    4    0    0 -0.89476055622E+01  0.16506032307E+01  0.13898882846E+02  0.16612136556E+02  0.51100000000E-03 0.  1.
         12    1    4    4    0    0  0.15413730140E+01  0.10679089763E+01 -0.32977714329E+00  0.19039467730E+01  0.00000000000E+00 0. -1.
</event>
<event>
 8    1  0.4798632E-010  0.9118800E+02  0.7816164E-02  0.1184000E+00
        -11   -1    0    0    0    0  0.00000000000E+00  0.00000000000E+00  0.45593999997E+02  0.45594000000E+02  0.51100000000E-03 0. -1.
         11   -1    0    0    0    0 -0.00000000000E+00 -0.00000000000E+00 -0.45593999997E+02  0.45594000000E+02  0.51100000000E-03 0.  1.
         23    2    1    2    0    0  0.35527136788E-14 -0.44408920985E-15  0.00000000000E+00  0.91188000000E+02  0.91188000000E+02 0.  0.
    9900012    2    3    3    0    0  0.16917120577E+02  0.14035027301E+01  0.39943274488E+02  0.47787263078E+02  0.19999963678E+02 0.  0.
        -12    1    3    3    0    0 -0.16917120577E+02 -0.14035027301E+01 -0.39943274488E+02  0.43400736922E+02  0.00000000000E+00 0.  1.
         11    1    4    4    0    0 -0.14991172129E+00  0.18991544015E+01  0.15008797529E+02  0.15129218899E+02  0.51100000000E-03 0. -1.
        -11    1    4    4    0    0  0.34485518648E+00  0.38041729546E+01  0.47899297719E+01  0.61265067085E+01  0.51100000000E-03 0.  1.
        -12    1    4    4    0    0  0.16722177112E+02 -0.42998246261E+01  0.20144547187E+02  0.26531537470E+02  0.00000000000E+00 0.  1.
</event>
<event>
 8    1  0.4798632E-010  0.9118800E+02  0.7816164E-02  0.1184000E+00
        -11   -1    0    0    0    0  0.00000000000E+00  0.00000000000E+00  0.45593999997E+02  0.45594000000E+02  0.51100000000E-03 0. -1.
         11   -1    0    0    0    0 -0.00000000000E+00 -0.00000000000E+00 -0.45593999997E+02  0.45594000000E+02  0.51100000000E-03 0.  1.
         23    2    1    2    0    0  0.00000000000E+00  0.00000000000E+00  0.44408920985E-15  0.91188000000E+02  0.91188000000E+02 0.  0.
    9900012    2    3    3    0    0 -0.29711753430E+02 -0.31414392256E+02  0.37376781786E+01  0.47787279143E+02  0.20000036924E+02 0.  0.
        -12    1    3    3    0    0  0.29711753430E+02  0.31414392256E+02 -0.37376781786E+01  0.43400720857E+02  0.00000000000E+00 0.  1.
         11    1    4    4    0    0 -0.12321328751E+02 -0.14828025584E+02  0.13185717481E+01  0.19324184759E+02  0.51100000000E-03 0. -1.
        -11    1    4    4    0    0 -0.17727249081E+02 -0.15049236192E+02  0.64535580144E+01  0.24132618616E+02  0.51100000000E-03 0.  1.
        -12    1    4    4    0    0  0.33682440187E+00 -0.15371304810E+01 -0.40344515839E+01  0.43304757679E+01  0.00000000000E+00 0.  1.
</event>
<event>
 8    1  0.4798632E-010  0.9118800E+02  0.7816164E-02  0.1184000E+00
        -11   -1    0    0    0    0  0.00000000000E+00  0.00000000000E+00  0.45593999997E+02  0.45594000000E+02  0.51100000000E-03 0. -1.
         11   -1    0    0    0    0 -0.00000000000E+00 -0.00000000000E+00 -0.45593999997E+02  0.45594000000E+02  0.51100000000E-03 0.  1.
         23    2    1    2    0    0  0.00000000000E+00  0.00000000000E+00  0.00000000000E+00  0.91188000000E+02  0.91188000000E+02 0.  0.
    9900012    2    3    3    0    0 -0.21433093266E+02 -0.36026323172E+02 -0.11240535579E+02  0.47787273182E+02  0.20000009746E+02 0.  0.
         12    1    3    3    0    0  0.21433093266E+02  0.36026323172E+02  0.11240535579E+02  0.43400726818E+02  0.00000000000E+00 0. -1.
         11    1    4    4    0    0  0.12196902038E+01 -0.62618383385E+00 -0.41468931904E+01  0.43676622787E+01  0.51100000000E-03 0. -1.
        -11    1    4    4    0    0 -0.13820806836E+02 -0.27434969480E+02 -0.70868498060E+01  0.31526428475E+02  0.51100000000E-03 0.  1.
         12    1    4    4    0    0 -0.88319766338E+01 -0.79651698585E+01 -0.67925822564E-02  0.11893182428E+02  0.00000000000E+00 0. -1.
</event>
<event>
 8    1  0.4798632E-010  0.9118800E+02  0.7816164E-02  0.1184000E+00
        -11   -1    0    0    0    0  0.00000000000E+00  0.00000000000E+00  0.45593999997E+02  0.45594000000E+02  0.51100000000E-03 0. -1.
         11   -1    0    0    0    0 -0.00000000000E+00 -0.00000000000E+00 -0.45593999997E+02  0.45594000000E+02  0.51100000000E-03 0.  1.
         23    2    1    2    0    0  0.00000000000E+00  0.00000000000E+00  0.00000000000E+00  0.91188000000E+02  0.91188000000E+02 0.  0.
    9900012    2    3    3    0    0  0.79227619450E+01  0.23637850898E+02 -0.35526124309E+02  0.47787266592E+02  0.19999979700E+02 0.  0.
         12    1    3    3    0    0 -0.79227619450E+01 -0.23637850898E+02  0.35526124309E+02  0.43400733408E+02  0.00000000000E+00 0. -1.
         11    1    4    4    0    0  0.88876696546E+00 -0.15890342144E+01 -0.11333049692E+02  0.11478368876E+02  0.51100000000E-03 0. -1.
        -11    1    4    4    0    0  0.77731410709E+01  0.16858570247E+02 -0.18129913224E+02  0.25948542669E+02  0.51100000000E-03 0.  1.
        -12    1    4    4    0    0 -0.73914609144E+00  0.83683148658E+01 -0.60631613930E+01  0.10360355048E+02  0.00000000000E+00 0.  1.
</event>
<event>
 8    1  0.4798632E-010  0.9118800E+02  0.7816164E-02  0.1184000E+00
        -11   -1    0    0    0    0  0.00000000000E+00  0.00000000000E+00  0.45593999997E+02  0.45594000000E+02  0.51100000000E-03 0. -1.
         11   -1    0    0    0    0 -0.00000000000E+00 -0.00000000000E+00 -0.45593999997E+02  0.45594000000E+02  0.51100000000E-03 0.  1.
         23    2    1    2    0    0  0.00000000000E+00 -0.17763568394E-14  0.00000000000E+00  0.91188000000E+02  0.91188000000E+02 0.  0.
    9900012    2    3    3    0    0  0.30108838613E+02  0.13843253045E+02  0.28025796697E+02  0.47787273071E+02  0.20000009238E+02 0.  0.
        -12    1    3    3    0    0 -0.30108838613E+02 -0.13843253045E+02 -0.28025796697E+02  0.43400726929E+02  0.00000000000E+00 0.  1.
         11    1    4    4    0    0  0.99443492866E+01  0.92290974253E+01  0.16746161051E+02  0.21552267449E+02  0.51100000000E-03 0. -1.
        -11    1    4    4    0    0  0.19722906230E+02  0.11801487877E+01  0.75647106975E+01  0.21156810476E+02  0.51100000000E-03 0.  1.
        -12    1    4    4    0    0  0.44158309610E+00  0.34340068321E+01  0.37149249489E+01  0.50781951449E+01  0.00000000000E+00 0.  1.
</event>
<event>
 8    1  0.4798632E-010  0.9118800E+02  0.7816164E-02  0.1184000E+00
        -11   -1    0    0    0    0  0.00000000000E+00  0.00000000000E+00  0.45593999997E+02  0.45594000000E+02  0.51100000000E-03 0. -1.
         11   -1    0    0    0    0 -0.00000000000E+00 -0.00000000000E+00 -0.45593999997E+02  0.45594000000E+02  0.51100000000E-03 0.  1.
         23    2    1    2    0    0  0.00000000000E+00  0.00000000000E+00  0.00000000000E+00  0.91188000000E+02  0.91188000000E+02 0.  0.
    9900012    2    3    3    0    0 -0.15560136391E+02 -0.20750401507E+02  0.34798365672E+02  0.47787271197E+02  0.20000000696E+02 0.  0.
        -12    1    3    3    0    0  0.15560136391E+02  0.20750401507E+02 -0.34798365672E+02  0.43400728803E+02  0.00000000000E+00 0.  1.
         11    1    4    4    0    0 -0.59896451565E+01 -0.55578310976E+01  0.10038640537E+02  0.12943710431E+02  0.51100000000E-03 0. -1.
        -11    1    4    4    0    0 -0.11920954095E+02 -0.39930108870E+01  0.94396333511E+01  0.15721321844E+02  0.51100000000E-03 0.  1.
        -12    1    4    4    0    0  0.23504628602E+01 -0.11199559522E+02  0.15320091783E+02  0.19122238922E+02  0.00000000000E+00 0.  1.
</event>
<event>
 8    1  0.4798632E-010  0.9118800E+02  0.7816164E-02  0.1184000E+00
        -11   -1    0    0    0    0  0.00000000000E+00  0.00000000000E+00  0.45593999997E+02  0.45594000000E+02  0.51100000000E-03 0.  1.
         11   -1    0    0    0    0 -0.00000000000E+00 -0.00000000000E+00 -0.45593999997E+02  0.45594000000E+02  0.51100000000E-03 0. -1.
         23    2    1    2    0    0  0.00000000000E+00  0.00000000000E+00 -0.88817841970E-15  0.91188000000E+02  0.91188000000E+02 0.  0.
    9900012    2    3    3    0    0 -0.29711135568E+02  0.31250202944E+02 -0.49291804288E+01  0.47787267512E+02  0.19999983895E+02 0.  0.
         12    1    3    3    0    0  0.29711135568E+02 -0.31250202944E+02  0.49291804288E+01  0.43400732488E+02  0.00000000000E+00 0. -1.
         11    1    4    4    0    0  0.80576426852E+00  0.86861286077E+01  0.14436317040E+01  0.88420675751E+01  0.51100000000E-03 0. -1.
        -11    1    4    4    0    0 -0.25714240299E+02  0.20990020136E+02 -0.42536050397E+01  0.33464851046E+02  0.51100000000E-03 0.  1.
         12    1    4    4    0    0 -0.48026595376E+01  0.15740542003E+01 -0.21192070931E+01  0.54803488906E+01  0.00000000000E+00 0. -1.
</event>
<event>
 8    1  0.4798632E-010  0.9118800E+02  0.7816164E-02  0.1184000E+00
        -11   -1    0    0    0    0  0.00000000000E+00  0.00000000000E+00  0.45593999997E+02  0.45594000000E+02  0.51100000000E-03 0.  1.
         11   -1    0    0    0    0 -0.00000000000E+00 -0.00000000000E+00 -0.45593999997E+02  0.45594000000E+02  0.51100000000E-03 0. -1.
         23    2    1    2    0    0  0.00000000000E+00  0.00000000000E+00 -0.66613381478E-15  0.91188000000E+02  0.91188000000E+02 0.  0.
    9900012    2    3    3    0    0  0.16839060120E+02 -0.39954060433E+02 -0.19344886287E+01  0.47787272620E+02  0.20000007185E+02 0.  0.
         12    1    3    3    0    0 -0.16839060120E+02  0.39954060433E+02  0.19344886287E+01  0.43400727380E+02  0.00000000000E+00 0. -1.
         11    1    4    4    0    0  0.23663119370E+01 -0.26313039388E+01 -0.56249936635E+01  0.66455809812E+01  0.51100000000E-03 0. -1.
        -11    1    4    4    0    0  0.74866312475E+01 -0.22345698800E+02  0.63398926344E+01  0.24404387745E+02  0.51100000000E-03 0.  1.
        -12    1    4    4    0    0  0.69861169359E+01 -0.14977057694E+02 -0.26493875996E+01  0.16737303895E+02  0.00000000000E+00 0.  1.
</event>
<event>
 8    1  0.4798632E-010  0.9118800E+02  0.7816164E-02  0.1184000E+00
        -11   -1    0    0    0    0  0.00000000000E+00  0.00000000000E+00  0.45593999997E+02  0.45594000000E+02  0.51100000000E-03 0. -1.
         11   -1    0    0    0    0 -0.00000000000E+00 -0.00000000000E+00 -0.45593999997E+02  0.45594000000E+02  0.51100000000E-03 0.  1.
         23    2    1    2    0    0  0.00000000000E+00  0.00000000000E+00  0.00000000000E+00  0.91188000000E+02  0.91188000000E+02 0.  0.
    9900012    2    3    3    0    0 -0.44930228367E+01  0.24254983851E+02  0.35708974205E+02  0.47787281866E+02  0.20000049338E+02 0.  0.
        -12    1    3    3    0    0  0.44930228367E+01 -0.24254983851E+02 -0.35708974205E+02  0.43400718134E+02  0.00000000000E+00 0.  1.
         11    1    4    4    0    0 -0.62682355071E+00  0.22876602459E+02  0.33349018676E+02  0.40446123358E+02  0.51100000000E-03 0. -1.
        -11    1    4    4    0    0 -0.12705661470E+01  0.97068400751E+00  0.39560147322E+01  0.42669214428E+01  0.51100000000E-03 0.  1.
         12    1    4    4    0    0 -0.25956331391E+01  0.40769738420E+00 -0.15960592028E+01  0.30742370645E+01  0.00000000000E+00 0. -1.
</event>
<event>
 8    1  0.4798632E-010  0.9118800E+02  0.7816164E-02  0.1184000E+00
        -11   -1    0    0    0    0  0.00000000000E+00  0.00000000000E+00  0.45593999997E+02  0.45594000000E+02  0.51100000000E-03 0. -1.
         11   -1    0    0    0    0 -0.00000000000E+00 -0.00000000000E+00 -0.45593999997E+02  0.45594000000E+02  0.51100000000E-03 0.  1.
         23    2    1    2    0    0  0.00000000000E+00  0.00000000000E+00  0.44408920985E-15  0.91188000000E+02  0.91188000000E+02 0.  0.
    9900012    2    3    3    0    0  0.14491663879E+02 -0.40791722489E+02  0.31064795217E+01  0.47787272350E+02  0.20000005951E+02 0.  0.
        -12    1    3    3    0    0 -0.14491663879E+02  0.40791722489E+02 -0.31064795217E+01  0.43400727650E+02  0.00000000000E+00 0.  1.
         11    1    4    4    0    0  0.11466049622E+02 -0.27889394027E+02 -0.52587708236E+01  0.30609528973E+02  0.51100000000E-03 0. -1.
        -11    1    4    4    0    0 -0.37060172723E+00  0.74306843334E+00  0.10133878983E+01  0.13101342032E+01  0.51100000000E-03 0.  1.
         12    1    4    4    0    0  0.33962159846E+01 -0.13645396895E+02  0.73518624471E+01  0.15867609173E+02  0.00000000000E+00 0. -1.
</event>
<event>
 8    1  0.4798632E-010  0.9118800E+02  0.7816164E-02  0.1184000E+00
        -11   -1    0    0    0    0  0.00000000000E+00  0.00000000000E+00  0.45593999997E+02  0.45594000000E+02  0.51100000000E-03 0. -1.
         11   -1    0    0    0    0 -0.00000000000E+00 -0.00000000000E+00 -0.45593999997E+02  0.45594000000E+02  0.51100000000E-03 0.  1.
         23    2    1    2    0    0  0.00000000000E+00  0.00000000000E+00 -0.71054273576E-14  0.91188000000E+02  0.91188000000E+02 0.  0.
    9900012    2    3    3    0    0  0.73378031617E+01 -0.15513003186E+02  0.39863851321E+02  0.47787271144E+02  0.20000000455E+02 0.  0.
        -12    1    3    3    0    0 -0.73378031617E+01  0.15513003186E+02 -0.39863851321E+02  0.43400728856E+02  0.00000000000E+00 0.  1.
         11    1    4    4    0    0  0.20011669464E+01 -0.20242497997E+01  0.24625282558E+02  0.24789247624E+02  0.51100000000E-03 0. -1.
        -11    1    4    4    0    0  0.69603830300E+01 -0.13872438628E+02  0.13294227563E+02  0.20435948037E+02  0.51100000000E-03 0.  1.
        -12    1    4    4    0    0 -0.16237468147E+01  0.38368524205E+00  0.19443411998E+01  0.25620754838E+01  0.00000000000E+00 0.  1.
</event>
<event>
 8    1  0.4798632E-010  0.9118800E+02  0.7816164E-02  0.1184000E+00
        -11   -1    0    0    0    0  0.00000000000E+00  0.00000000000E+00  0.45593999997E+02  0.45594000000E+02  0.51100000000E-03 0. -1.
         11   -1    0    0    0    0 -0.00000000000E+00 -0.00000000000E+00 -0.45593999997E+02  0.45594000000E+02  0.51100000000E-03 0.  1.
         23    2    1    2    0    0 -0.17763568394E-14  0.00000000000E+00  0.00000000000E+00  0.91188000000E+02  0.91188000000E+02 0.  0.
    9900012    2    3    3    0    0 -0.14771925992E+02 -0.23540660661E+02 -0.33335431427E+02  0.47787268551E+02  0.19999988633E+02 0.  0.
         12    1    3    3    0    0  0.14771925992E+02  0.23540660661E+02  0.33335431427E+02  0.43400731449E+02  0.00000000000E+00 0. -1.
         11    1    4    4    0    0 -0.91348544715E+01 -0.12001903575E+02 -0.72540497707E+01  0.16736561594E+02  0.51100000000E-03 0. -1.
        -11    1    4    4    0    0 -0.76392975001E+01 -0.10774800448E+02 -0.25669741854E+02  0.28868509454E+02  0.51100000000E-03 0.  1.
        -12    1    4    4    0    0  0.20022259799E+01 -0.76395663770E+00 -0.41163980284E+00  0.21821975040E+01  0.00000000000E+00 0.  1.
</event>
<event>
 8    1  0.4798632E-010  0.9118800E+02  0.7816164E-02  0.1184000E+00
        -11   -1    0    0    0    0  0.00000000000E+00  0.00000000000E+00  0.45593999997E+02  0.45594000000E+02  0.51100000000E-03 0. -1.
         11   -1    0    0    0    0 -0.00000000000E+00 -0.00000000000E+00 -0.45593999997E+02  0.45594000000E+02  0.51100000000E-03 0.  1.
         23    2    1    2    0    0 -0.88817841970E-15  0.00000000000E+00  0.00000000000E+00  0.91188000000E+02  0.91188000000E+02 0.  0.
    9900012    2    3    3    0    0  0.52705623370E+01  0.11084310602E+02 -0.41629109537E+02  0.47787268097E+02  0.19999986560E+02 0.  0.
         12    1    3    3    0    0 -0.52705623370E+01 -0.11084310602E+02  0.41629109537E+02  0.43400731903E+02  0.00000000000E+00 0. -1.
         11    1    4    4    0    0  0.36033459146E+01  0.50005908042E+01 -0.27451342739E+01  0.67472789044E+01  0.51100000000E-03 0. -1.
        -11    1    4    4    0    0  0.37856514951E+01  0.65311069969E+01 -0.37930121936E+02  0.38674030902E+02  0.51100000000E-03 0.  1.
        -12    1    4    4    0    0 -0.21184350726E+01 -0.44738719880E+00 -0.95385332759E+00  0.23659582907E+01  0.00000000000E+00 0.  1.
</event>
<event>
 8    1  0.4798632E-010  0.9118800E+02  0.7816164E-02  0.1184000E+00
        -11   -1    0    0    0    0  0.00000000000E+00  0.00000000000E+00  0.45593999997E+02  0.45594000000E+02  0.51100000000E-03 0. -1.
         11   -1    0    0    0    0 -0.00000000000E+00 -0.00000000000E+00 -0.45593999997E+02  0.45594000000E+02  0.51100000000E-03 0.  1.
         23    2    1    2    0    0 -0.41633363423E-16  0.00000000000E+00  0.00000000000E+00  0.91188000000E+02  0.91188000000E+02 0.  0.
    9900012    2    3    3    0    0 -0.16787457254E-01  0.35590344512E+02  0.24838483728E+02  0.47787272147E+02  0.20000005027E+02 0.  0.
        -12    1    3    3    0    0  0.16787457254E-01 -0.35590344512E+02 -0.24838483728E+02  0.43400727853E+02  0.00000000000E+00 0.  1.
         11    1    4    4    0    0 -0.91442725893E-01  0.44886790694E+01 -0.21943948144E+01  0.49971962562E+01  0.51100000000E-03 0.  1.
        -11    1    4    4    0    0  0.19605585347E+01  0.20527361845E+02  0.23973097348E+02  0.31621602914E+02  0.51100000000E-03 0. -1.
        -12    1    4    4    0    0 -0.18859032661E+01  0.10574303597E+02  0.30597811941E+01  0.11168472977E+02  0.00000000000E+00 0.  1.
</event>
<event>
 8    1  0.4798632E-010  0.9118800E+02  0.7816164E-02  0.1184000E+00
        -11   -1    0    0    0    0  0.00000000000E+00  0.00000000000E+00  0.45593999997E+02  0.45594000000E+02  0.51100000000E-03 0. -1.
         11   -1    0    0    0    0 -0.00000000000E+00 -0.00000000000E+00 -0.45593999997E+02  0.45594000000E+02  0.51100000000E-03 0.  1.
         23    2    1    2    0    0 -0.71054273576E-14  0.00000000000E+00  0.00000000000E+00  0.91188000000E+02  0.91188000000E+02 0.  0.
    9900012    2    3    3    0    0  0.37128750951E+02  0.87273481387E+01  0.20710193550E+02  0.47787275702E+02  0.20000021237E+02 0.  0.
        -12    1    3    3    0    0 -0.37128750951E+02 -0.87273481387E+01 -0.20710193550E+02  0.43400724298E+02  0.00000000000E+00 0.  1.
         11    1    4    4    0    0  0.20521849801E+02  0.90758521230E+01  0.15046409195E+02  0.27016880666E+02  0.51100000000E-03 0. -1.
        -11    1    4    4    0    0 -0.12474580414E+01 -0.99755895679E+00 -0.78021922977E+00  0.17776438746E+01  0.51100000000E-03 0.  1.
         12    1    4    4    0    0  0.17854359191E+02  0.64905497242E+00  0.64440035845E+01  0.18992751161E+02  0.00000000000E+00 0. -1.
</event>
<event>
 8    1  0.4798632E-010  0.9118800E+02  0.7816164E-02  0.1184000E+00
        -11   -1    0    0    0    0  0.00000000000E+00  0.00000000000E+00  0.45593999997E+02  0.45594000000E+02  0.51100000000E-03 0. -1.
         11   -1    0    0    0    0 -0.00000000000E+00 -0.00000000000E+00 -0.45593999997E+02  0.45594000000E+02  0.51100000000E-03 0.  1.
         23    2    1    2    0    0  0.00000000000E+00  0.00000000000E+00  0.00000000000E+00  0.91188000000E+02  0.91188000000E+02 0.  0.
    9900012    2    3    3    0    0  0.35954419918E+02  0.22098720079E+02 -0.10126664989E+02  0.47787273226E+02  0.20000009945E+02 0.  0.
         12    1    3    3    0    0 -0.35954419918E+02 -0.22098720079E+02  0.10126664989E+02  0.43400726774E+02  0.00000000000E+00 0. -1.
         11    1    4    4    0    0  0.40862686111E+01  0.68196557849E+01  0.26315072805E+01  0.83743732312E+01  0.51100000000E-03 0. -1.
        -11    1    4    4    0    0  0.92474602471E+01  0.21353159081E+01 -0.88194688092E+01  0.12956007309E+02  0.51100000000E-03 0.  1.
        -12    1    4    4    0    0  0.22620691059E+02  0.13143748386E+02 -0.39387034600E+01  0.26456892686E+02  0.00000000000E+00 0.  1.
</event>
<event>
 8    1  0.4798632E-010  0.9118800E+02  0.7816164E-02  0.1184000E+00
        -11   -1    0    0    0    0  0.00000000000E+00  0.00000000000E+00  0.45593999997E+02  0.45594000000E+02  0.51100000000E-03 0. -1.
         11   -1    0    0    0    0 -0.00000000000E+00 -0.00000000000E+00 -0.45593999997E+02  0.45594000000E+02  0.51100000000E-03 0.  1.
         23    2    1    2    0    0  0.00000000000E+00  0.00000000000E+00  0.00000000000E+00  0.91188000000E+02  0.91188000000E+02 0.  0.
    9900012    2    3    3    0    0 -0.18501329827E+02  0.39103383905E+01 -0.39064480196E+02  0.47787267695E+02  0.19999984727E+02 0.  0.
         12    1    3    3    0    0  0.18501329827E+02 -0.39103383905E+01  0.39064480196E+02  0.43400732305E+02  0.00000000000E+00 0. -1.
         11    1    4    4    0    0 -0.68268201089E+01  0.15738123445E-01 -0.22623906796E+01  0.71919491333E+01  0.51100000000E-03 0. -1.
        -11    1    4    4    0    0 -0.36190842924E+01  0.54718740321E+01 -0.27118938042E+02  0.27901182365E+02  0.51100000000E-03 0.  1.
        -12    1    4    4    0    0 -0.80554254257E+01 -0.15772737650E+01 -0.96831514736E+01  0.12694136197E+02  0.00000000000E+00 0.  1.
</event>
<event>
 8    1  0.4798632E-010  0.9118800E+02  0.7816164E-02  0.1184000E+00
        -11   -1    0    0    0    0  0.00000000000E+00  0.00000000000E+00  0.45593999997E+02  0.45594000000E+02  0.51100000000E-03 0. -1.
         11   -1    0    0    0    0 -0.00000000000E+00 -0.00000000000E+00 -0.45593999997E+02  0.45594000000E+02  0.51100000000E-03 0.  1.
         23    2    1    2    0    0  0.00000000000E+00  0.00000000000E+00  0.00000000000E+00  0.91188000000E+02  0.91188000000E+02 0.  0.
    9900012    2    3    3    0    0 -0.90701673231E+01  0.17186501615E+02 -0.38806953000E+02  0.47787269889E+02  0.19999994733E+02 0.  0.
         12    1    3    3    0    0  0.90701673231E+01 -0.17186501615E+02  0.38806953000E+02  0.43400730111E+02  0.00000000000E+00 0. -1.
         11    1    4    4    0    0  0.26207990559E+01  0.18375694781E+01  0.96218497780E+00  0.33423119948E+01  0.51100000000E-03 0. -1.
        -11    1    4    4    0    0 -0.10669603176E+02  0.12728272645E+02 -0.36692556383E+02  0.40276457772E+02  0.51100000000E-03 0.  1.
        -12    1    4    4    0    0 -0.10213632029E+01  0.26206594917E+01 -0.30765815947E+01  0.41685001226E+01  0.00000000000E+00 0.  1.
</event>
<event>
 8    1  0.4967802E-010  0.9118800E+02  0.7816164E-02  0.1184000E+00
        -11   -1    0    0    0    0  0.00000000000E+00  0.00000000000E+00  0.45593999997E+02  0.45594000000E+02  0.51100000000E-03 0. -1.
         11   -1    0    0    0    0 -0.00000000000E+00 -0.00000000000E+00 -0.45593999997E+02  0.45594000000E+02  0.51100000000E-03 0.  1.
         23    2    1    2    0    0  0.00000000000E+00  0.00000000000E+00  0.00000000000E+00  0.91188000000E+02  0.91188000000E+02 0.  0.
    9900012    2    3    3    0    0 -0.16377892303E+02 -0.17220801090E+02  0.36315727350E+02  0.47787269598E+02  0.19999993404E+02 0.  0.
        -12    1    3    3    0    0  0.16377892303E+02  0.17220801090E+02 -0.36315727350E+02  0.43400730402E+02  0.00000000000E+00 0.  1.
         11    1    4    4    0    0 -0.79360308843E+01 -0.98331094125E+01  0.25418502143E+02  0.28386103614E+02  0.51100000000E-03 0. -1.
        -11    1    4    4    0    0 -0.27338600909E+01 -0.75720873855E+01  0.11891302692E+01  0.81378455029E+01  0.51100000000E-03 0.  1.
        -12    1    4    4    0    0 -0.57080013279E+01  0.18439570769E+00  0.97080949375E+01  0.11263320481E+02  0.00000000000E+00 0.  1.
</event>
<event>
 8    1  0.4798632E-010  0.9118800E+02  0.7816164E-02  0.1184000E+00
        -11   -1    0    0    0    0  0.00000000000E+00  0.00000000000E+00  0.45593999997E+02  0.45594000000E+02  0.51100000000E-03 0. -1.
         11   -1    0    0    0    0 -0.00000000000E+00 -0.00000000000E+00 -0.45593999997E+02  0.45594000000E+02  0.51100000000E-03 0.  1.
         23    2    1    2    0    0 -0.35527136788E-14  0.00000000000E+00  0.00000000000E+00  0.91188000000E+02  0.91188000000E+02 0.  0.
    9900012    2    3    3    0    0 -0.13696639048E+02  0.10077540179E+02 -0.39930796775E+02  0.47787271108E+02  0.20000000288E+02 0.  0.
         12    1    3    3    0    0  0.13696639048E+02 -0.10077540179E+02  0.39930796775E+02  0.43400728892E+02  0.00000000000E+00 0. -1.
         11    1    4    4    0    0 -0.50935876427E+01  0.17911422457E+01 -0.16530287379E+02  0.17389744872E+02  0.51100000000E-03 0. -1.
        -11    1    4    4    0    0 -0.10334274548E+02  0.64388899306E+01 -0.24709994873E+02  0.27547057572E+02  0.51100000000E-03 0.  1.
         12    1    4    4    0    0  0.17312231423E+01  0.18475080028E+01  0.13094854769E+01  0.28504686637E+01  0.00000000000E+00 0. -1.
</event>
<event>
 8    1  0.4798632E-010  0.9118800E+02  0.7816164E-02  0.1184000E+00
        -11   -1    0    0    0    0  0.00000000000E+00  0.00000000000E+00  0.45593999997E+02  0.45594000000E+02  0.51100000000E-03 0. -1.
         11   -1    0    0    0    0 -0.00000000000E+00 -0.00000000000E+00 -0.45593999997E+02  0.45594000000E+02  0.51100000000E-03 0.  1.
         23    2    1    2    0    0 -0.35527136788E-14 -0.71054273576E-14  0.00000000000E+00  0.91188000000E+02  0.91188000000E+02 0.  0.
    9900012    2    3    3    0    0 -0.21451211718E+02  0.30899804043E+02 -0.21648800602E+02  0.47787274873E+02  0.20000017454E+02 0.  0.
         12    1    3    3    0    0  0.21451211718E+02 -0.30899804043E+02  0.21648800602E+02  0.43400725127E+02  0.00000000000E+00 0. -1.
         11    1    4    4    0    0  0.11856542080E+01  0.77234262592E+01 -0.58811465282E+01  0.97798248364E+01  0.51100000000E-03 0. -1.
        -11    1    4    4    0    0 -0.16031185935E+02  0.83738896386E+01 -0.10745525952E+02  0.21037758398E+02  0.51100000000E-03 0.  1.
        -12    1    4    4    0    0 -0.66056799912E+01  0.14802488145E+02 -0.50221281220E+01  0.16969691639E+02  0.00000000000E+00 0.  1.
</event>
<event>
 8    1  0.4798632E-010  0.9118800E+02  0.7816164E-02  0.1184000E+00
        -11   -1    0    0    0    0  0.00000000000E+00  0.00000000000E+00  0.45593999997E+02  0.45594000000E+02  0.51100000000E-03 0.  1.
         11   -1    0    0    0    0 -0.00000000000E+00 -0.00000000000E+00 -0.45593999997E+02  0.45594000000E+02  0.51100000000E-03 0. -1.
         23    2    1    2    0    0 -0.14210854715E-13  0.00000000000E+00  0.00000000000E+00  0.91188000000E+02  0.91188000000E+02 0.  0.
    9900012    2    3    3    0    0  0.39893510793E+02 -0.16823639142E+02 -0.30160521267E+01  0.47787267198E+02  0.19999982461E+02 0.  0.
         12    1    3    3    0    0 -0.39893510793E+02  0.16823639142E+02  0.30160521267E+01  0.43400732802E+02  0.00000000000E+00 0. -1.
         11    1    4    4    0    0 -0.17588087619E+01 -0.18896970449E+01  0.16654556706E+01  0.30721500670E+01  0.51100000000E-03 0. -1.
        -11    1    4    4    0    0  0.12082915182E+02 -0.51227020062E+01 -0.32867876643E+01  0.13529297415E+02  0.51100000000E-03 0.  1.
         12    1    4    4    0    0  0.29569404373E+02 -0.98112400911E+01 -0.13947201329E+01  0.31185819715E+02  0.00000000000E+00 0. -1.
</event>
<event>
 8    1  0.4798632E-010  0.9118800E+02  0.7816164E-02  0.1184000E+00
        -11   -1    0    0    0    0  0.00000000000E+00  0.00000000000E+00  0.45593999997E+02  0.45594000000E+02  0.51100000000E-03 0. -1.
         11   -1    0    0    0    0 -0.00000000000E+00 -0.00000000000E+00 -0.45593999997E+02  0.45594000000E+02  0.51100000000E-03 0.  1.
         23    2    1    2    0    0  0.00000000000E+00  0.35527136788E-14  0.00000000000E+00  0.91188000000E+02  0.91188000000E+02 0.  0.
    9900012    2    3    3    0    0 -0.10793130888E+02 -0.29149454265E+02 -0.30289282633E+02  0.47787274191E+02  0.20000014348E+02 0.  0.
         12    1    3    3    0    0  0.10793130888E+02  0.29149454265E+02  0.30289282633E+02  0.43400725809E+02  0.00000000000E+00 0. -1.
         11    1    4    4    0    0 -0.26069843390E+01 -0.22131461486E+02 -0.11351301598E+02  0.25008998442E+02  0.51100000000E-03 0.  1.
        -11    1    4    4    0    0 -0.54718006740E+01 -0.47367830239E+00 -0.70170205862E+01  0.89108670688E+01  0.51100000000E-03 0. -1.
        -12    1    4    4    0    0 -0.27143458748E+01 -0.65443144769E+01 -0.11920960448E+02  0.13867408681E+02  0.00000000000E+00 0.  1.
</event>
<event>
 8    1  0.4798632E-010  0.9118800E+02  0.7816164E-02  0.1184000E+00
        -11   -1    0    0    0    0  0.00000000000E+00  0.00000000000E+00  0.45593999997E+02  0.45594000000E+02  0.51100000000E-03 0. -1.
         11   -1    0    0    0    0 -0.00000000000E+00 -0.00000000000E+00 -0.45593999997E+02  0.45594000000E+02  0.51100000000E-03 0.  1.
         23    2    1    2    0    0 -0.44408920985E-15  0.00000000000E+00 -0.35527136788E-14  0.91188000000E+02  0.91188000000E+02 0.  0.
    9900012    2    3    3    0    0 -0.24378145946E+01  0.38557378106E+02  0.19773922131E+02  0.47787281770E+02  0.20000048903E+02 0.  0.
        -12    1    3    3    0    0  0.24378145946E+01 -0.38557378106E+02 -0.19773922131E+02  0.43400718230E+02  0.00000000000E+00 0.  1.
         11    1    4    4    0    0  0.63581433128E+01  0.10257202524E+02  0.95665541795E+01  0.15399842503E+02  0.51100000000E-03 0. -1.
        -11    1    4    4    0    0 -0.96027183687E+01  0.28323013536E+02  0.97293260093E+01  0.31449405092E+02  0.51100000000E-03 0.  1.
        -12    1    4    4    0    0  0.80676046128E+00 -0.22837953310E-01  0.47804194243E+00  0.93803417460E+00  0.00000000000E+00 0.  1.
</event>
<event>
 8    1  0.4798632E-010  0.9118800E+02  0.7816164E-02  0.1184000E+00
        -11   -1    0    0    0    0  0.00000000000E+00  0.00000000000E+00  0.45593999997E+02  0.45594000000E+02  0.51100000000E-03 0. -1.
         11   -1    0    0    0    0 -0.00000000000E+00 -0.00000000000E+00 -0.45593999997E+02  0.45594000000E+02  0.51100000000E-03 0.  1.
         23    2    1    2    0    0  0.44408920985E-15 -0.17763568394E-14 -0.71054273576E-14  0.91188000000E+02  0.91188000000E+02 0.  0.
    9900012    2    3    3    0    0  0.39112069144E+01 -0.13088695783E+02 -0.41194810015E+02  0.47787264189E+02  0.19999968743E+02 0.  0.
         12    1    3    3    0    0 -0.39112069144E+01  0.13088695783E+02  0.41194810015E+02  0.43400735811E+02  0.00000000000E+00 0. -1.
         11    1    4    4    0    0  0.23817923659E+01 -0.17374445812E+02 -0.34980419692E+02  0.39130219323E+02  0.51100000000E-03 0. -1.
        -11    1    4    4    0    0  0.18527825430E+01  0.96512389478E+00 -0.68396922824E+00  0.21981995929E+01  0.51100000000E-03 0.  1.
         12    1    4    4    0    0 -0.32336799453E+00  0.33206261344E+01 -0.55304210939E+01  0.64588452730E+01  0.00000000000E+00 0. -1.
</event>
<event>
 8    1  0.4798632E-010  0.9118800E+02  0.7816164E-02  0.1184000E+00
        -11   -1    0    0    0    0  0.00000000000E+00  0.00000000000E+00  0.45593999997E+02  0.45594000000E+02  0.51100000000E-03 0. -1.
         11   -1    0    0    0    0 -0.00000000000E+00 -0.00000000000E+00 -0.45593999997E+02  0.45594000000E+02  0.51100000000E-03 0.  1.
         23    2    1    2    0    0  0.00000000000E+00  0.00000000000E+00  0.35527136788E-14  0.91188000000E+02  0.91188000000E+02 0.  0.
    9900012    2    3    3    0    0 -0.13405915236E+02 -0.26304547735E+02 -0.31811571201E+02  0.47787264325E+02  0.19999969363E+02 0.  0.
         12    1    3    3    0    0  0.13405915236E+02  0.26304547735E+02  0.31811571201E+02  0.43400735675E+02  0.00000000000E+00 0. -1.
         11    1    4    4    0    0 -0.68522046965E+01 -0.24926621141E+01 -0.42184796354E+01  0.84238734745E+01  0.51100000000E-03 0. -1.
        -11    1    4    4    0    0 -0.62575039822E+00 -0.14178602744E+02 -0.23265562032E+02  0.27252719429E+02  0.51100000000E-03 0.  1.
        -12    1    4    4    0    0 -0.59279601417E+01 -0.96332828764E+01 -0.43275295338E+01  0.12110671422E+02  0.00000000000E+00 0.  1.
</event>
<event>
 8    1  0.4798632E-010  0.9118800E+02  0.7816164E-02  0.1184000E+00
        -11   -1    0    0    0    0  0.00000000000E+00  0.00000000000E+00  0.45593999997E+02  0.45594000000E+02  0.51100000000E-03 0. -1.
         11   -1    0    0    0    0 -0.00000000000E+00 -0.00000000000E+00 -0.45593999997E+02  0.45594000000E+02  0.51100000000E-03 0.  1.
         23    2    1    2    0    0 -0.80491169285E-15  0.35527136788E-14  0.00000000000E+00  0.91188000000E+02  0.91188000000E+02 0.  0.
    9900012    2    3    3    0    0 -0.23667855852E+00 -0.19244482893E+02  0.38900092417E+02  0.47787270413E+02  0.19999997123E+02 0.  0.
        -12    1    3    3    0    0  0.23667855852E+00  0.19244482893E+02 -0.38900092417E+02  0.43400729587E+02  0.00000000000E+00 0.  1.
         11    1    4    4    0    0 -0.83013250364E+01 -0.52106219202E+01  0.15825279286E+02  0.18614565342E+02  0.51100000000E-03 0. -1.
        -11    1    4    4    0    0  0.33635375635E-01  0.65052935244E+00 -0.18926030465E-01  0.65167340949E+00  0.51100000000E-03 0.  1.
         12    1    4    4    0    0  0.80310111022E+01 -0.14684390325E+02  0.23093739162E+02  0.28521031662E+02  0.00000000000E+00 0. -1.
</event>
<event>
 8    1  0.4798632E-010  0.9118800E+02  0.7816164E-02  0.1184000E+00
        -11   -1    0    0    0    0  0.00000000000E+00  0.00000000000E+00  0.45593999997E+02  0.45594000000E+02  0.51100000000E-03 0. -1.
         11   -1    0    0    0    0 -0.00000000000E+00 -0.00000000000E+00 -0.45593999997E+02  0.45594000000E+02  0.51100000000E-03 0.  1.
         23    2    1    2    0    0  0.00000000000E+00  0.00000000000E+00  0.35527136788E-14  0.91188000000E+02  0.91188000000E+02 0.  0.
    9900012    2    3    3    0    0 -0.18173868680E+02 -0.28482934983E+02  0.27240705043E+02  0.47787273056E+02  0.20000009170E+02 0.  0.
        -12    1    3    3    0    0  0.18173868680E+02  0.28482934983E+02 -0.27240705043E+02  0.43400726944E+02  0.00000000000E+00 0.  1.
         11    1    4    4    0    0 -0.13213089641E+02 -0.18933439125E+02  0.24719197995E+02  0.33824541456E+02  0.51100000000E-03 0. -1.
        -11    1    4    4    0    0 -0.63556565693E+01 -0.53953667745E+01 -0.92448243980E+00  0.83880284394E+01  0.51100000000E-03 0.  1.
         12    1    4    4    0    0  0.13948775302E+01 -0.41541290841E+01  0.34459894879E+01  0.55747031601E+01  0.00000000000E+00 0. -1.
</event>
<event>
 8    1  0.4798632E-010  0.9118800E+02  0.7816164E-02  0.1184000E+00
        -11   -1    0    0    0    0  0.00000000000E+00  0.00000000000E+00  0.45593999997E+02  0.45594000000E+02  0.51100000000E-03 0. -1.
         11   -1    0    0    0    0 -0.00000000000E+00 -0.00000000000E+00 -0.45593999997E+02  0.45594000000E+02  0.51100000000E-03 0.  1.
         23    2    1    2    0    0 -0.17763568394E-14  0.00000000000E+00  0.00000000000E+00  0.91188000000E+02  0.91188000000E+02 0.  0.
    9900012    2    3    3    0    0 -0.90309839095E+01  0.16481850286E+02 -0.39120495305E+02  0.47787271756E+02  0.20000003245E+02 0.  0.
         12    1    3    3    0    0  0.90309839095E+01 -0.16481850286E+02  0.39120495305E+02  0.43400728244E+02  0.00000000000E+00 0. -1.
         11    1    4    4    0    0 -0.86973589523E+01  0.70124306190E+01 -0.11738132255E+02  0.16204998767E+02  0.51100000000E-03 0. -1.
        -11    1    4    4    0    0  0.43334766077E+01  0.99964215843E+01 -0.20998310085E+02  0.23656637350E+02  0.51100000000E-03 0.  1.
        -12    1    4    4    0    0 -0.46671015649E+01 -0.52700191778E+00 -0.63840529642E+01  0.79256356393E+01  0.00000000000E+00 0.  1.
</event>
<event>
 8    1  0.4798632E-010  0.9118800E+02  0.7816164E-02  0.1184000E+00
        -11   -1    0    0    0    0  0.00000000000E+00  0.00000000000E+00  0.45593999997E+02  0.45594000000E+02  0.51100000000E-03 0. -1.
         11   -1    0    0    0    0 -0.00000000000E+00 -0.00000000000E+00 -0.45593999997E+02  0.45594000000E+02  0.51100000000E-03 0.  1.
         23    2    1    2    0    0  0.35527136788E-14  0.35527136788E-14  0.35527136788E-14  0.91188000000E+02  0.91188000000E+02 0.  0.
    9900012    2    3    3    0    0  0.23042859398E+02  0.19833302075E+02  0.30972409016E+02  0.47787270045E+02  0.19999995442E+02 0.  0.
        -12    1    3    3    0    0 -0.23042859398E+02 -0.19833302075E+02 -0.30972409016E+02  0.43400729955E+02  0.00000000000E+00 0.  1.
         11    1    4    4    0    0  0.19513322042E+01  0.80206036779E+01  0.20926949296E+01  0.85157003857E+01  0.51100000000E-03 0.  1.
        -11    1    4    4    0    0  0.10455002394E+02  0.89961743137E+01  0.22941165494E+02  0.26768177036E+02  0.51100000000E-03 0. -1.
        -12    1    4    4    0    0  0.10636524799E+02  0.28165240829E+01  0.59385485927E+01  0.12503392623E+02  0.00000000000E+00 0.  1.
</event>
<event>
 8    1  0.4798632E-010  0.9118800E+02  0.7816164E-02  0.1184000E+00
        -11   -1    0    0    0    0  0.00000000000E+00  0.00000000000E+00  0.45593999997E+02  0.45594000000E+02  0.51100000000E-03 0. -1.
         11   -1    0    0    0    0 -0.00000000000E+00 -0.00000000000E+00 -0.45593999997E+02  0.45594000000E+02  0.51100000000E-03 0.  1.
         23    2    1    2    0    0  0.00000000000E+00  0.00000000000E+00  0.00000000000E+00  0.91188000000E+02  0.91188000000E+02 0.  0.
    9900012    2    3    3    0    0 -0.22225824583E+02  0.14460315977E+02 -0.34358914462E+02  0.47787273974E+02  0.20000013358E+02 0.  0.
         12    1    3    3    0    0  0.22225824583E+02 -0.14460315977E+02  0.34358914462E+02  0.43400726026E+02  0.00000000000E+00 0. -1.
         11    1    4    4    0    0 -0.71338690533E+01  0.53402356236E+01 -0.16014924544E+01  0.90540036739E+01  0.51100000000E-03 0. -1.
        -11    1    4    4    0    0 -0.12593850828E+02  0.11521770371E+02 -0.28750453887E+02  0.33435682588E+02  0.51100000000E-03 0.  1.
        -12    1    4    4    0    0 -0.24981047012E+01 -0.24016900182E+01 -0.40069681212E+01  0.52975877119E+01  0.00000000000E+00 0.  1.
</event>
<event>
 8    1  0.4798632E-010  0.9118800E+02  0.7816164E-02  0.1184000E+00
        -11   -1    0    0    0    0  0.00000000000E+00  0.00000000000E+00  0.45593999997E+02  0.45594000000E+02  0.51100000000E-03 0. -1.
         11   -1    0    0    0    0 -0.00000000000E+00 -0.00000000000E+00 -0.45593999997E+02  0.45594000000E+02  0.51100000000E-03 0.  1.
         23    2    1    2    0    0  0.00000000000E+00  0.00000000000E+00  0.35527136788E-14  0.91188000000E+02  0.91188000000E+02 0.  0.
    9900012    2    3    3    0    0 -0.48262408603E+01  0.29270525262E+02  0.31679138910E+02  0.47787261619E+02  0.19999957026E+02 0.  0.
        -12    1    3    3    0    0  0.48262408603E+01 -0.29270525262E+02 -0.31679138910E+02  0.43400738381E+02  0.00000000000E+00 0.  1.
         11    1    4    4    0    0 -0.32020104413E+01  0.22925137227E+02  0.13873422417E+02  0.26986786351E+02  0.51100000000E-03 0. -1.
        -11    1    4    4    0    0  0.15012539113E+01  0.37170905962E+01  0.15704156572E+02  0.16207746904E+02  0.51100000000E-03 0.  1.
         12    1    4    4    0    0 -0.31254843302E+01  0.26282974391E+01  0.21015599212E+01  0.45927283644E+01  0.00000000000E+00 0. -1.
</event>
<event>
 8    1  0.4798632E-010  0.9118800E+02  0.7816164E-02  0.1184000E+00
        -11   -1    0    0    0    0  0.00000000000E+00  0.00000000000E+00  0.45593999997E+02  0.45594000000E+02  0.51100000000E-03 0. -1.
         11   -1    0    0    0    0 -0.00000000000E+00 -0.00000000000E+00 -0.45593999997E+02  0.45594000000E+02  0.51100000000E-03 0.  1.
         23    2    1    2    0    0 -0.17763568394E-14  0.00000000000E+00  0.00000000000E+00  0.91188000000E+02  0.91188000000E+02 0.  0.
    9900012    2    3    3    0    0  0.13400205365E+02 -0.40543550348E+02  0.77639153974E+01  0.47787270041E+02  0.19999995427E+02 0.  0.
        -12    1    3    3    0    0 -0.13400205365E+02  0.40543550348E+02 -0.77639153974E+01  0.43400729959E+02  0.00000000000E+00 0.  1.
         11    1    4    4    0    0  0.10021873374E+02 -0.35243509393E+02  0.38119094288E+01  0.36838479257E+02  0.51100000000E-03 0. -1.
        -11    1    4    4    0    0 -0.13476012341E+01 -0.42418368594E+01  0.41726114308E+01  0.61008110478E+01  0.51100000000E-03 0.  1.
         12    1    4    4    0    0  0.47259332249E+01 -0.10582040960E+01 -0.22060546213E+00  0.48479797364E+01  0.00000000000E+00 0. -1.
</event>
<event>
 8    1  0.4798632E-010  0.9118800E+02  0.7816164E-02  0.1184000E+00
        -11   -1    0    0    0    0  0.00000000000E+00  0.00000000000E+00  0.45593999997E+02  0.45594000000E+02  0.51100000000E-03 0. -1.
         11   -1    0    0    0    0 -0.00000000000E+00 -0.00000000000E+00 -0.45593999997E+02  0.45594000000E+02  0.51100000000E-03 0.  1.
         23    2    1    2    0    0 -0.22204460493E-15  0.00000000000E+00  0.00000000000E+00  0.91188000000E+02  0.91188000000E+02 0.  0.
    9900012    2    3    3    0    0 -0.16450709206E+01  0.22164707576E+02 -0.37277906423E+02  0.47787276187E+02  0.20000023445E+02 0.  0.
         12    1    3    3    0    0  0.16450709206E+01 -0.22164707576E+02  0.37277906423E+02  0.43400723813E+02  0.00000000000E+00 0. -1.
         11    1    4    4    0    0 -0.63422360759E+01  0.52547760152E+01 -0.11247472205E+02  0.13940669305E+02  0.51100000000E-03 0. -1.
        -11    1    4    4    0    0  0.80692713372E+01  0.78923771146E+01 -0.18294082698E+02  0.21495958189E+02  0.51100000000E-03 0.  1.
        -12    1    4    4    0    0 -0.33721061820E+01  0.90175544460E+01 -0.77363515199E+01  0.12350648693E+02  0.00000000000E+00 0.  1.
</event>
<event>
 8    1  0.4798632E-010  0.9118800E+02  0.7816164E-02  0.1184000E+00
        -11   -1    0    0    0    0  0.00000000000E+00  0.00000000000E+00  0.45593999997E+02  0.45594000000E+02  0.51100000000E-03 0. -1.
         11   -1    0    0    0    0 -0.00000000000E+00 -0.00000000000E+00 -0.45593999997E+02  0.45594000000E+02  0.51100000000E-03 0.  1.
         23    2    1    2    0    0  0.00000000000E+00  0.00000000000E+00  0.00000000000E+00  0.91188000000E+02  0.91188000000E+02 0.  0.
    9900012    2    3    3    0    0 -0.14788334382E+02  0.12843269708E+02 -0.38729561148E+02  0.47787270544E+02  0.19999997718E+02 0.  0.
         12    1    3    3    0    0  0.14788334382E+02 -0.12843269708E+02  0.38729561148E+02  0.43400729456E+02  0.00000000000E+00 0. -1.
         11    1    4    4    0    0 -0.49743799336E+01  0.12854360596E+02 -0.11919212303E+02  0.18222147630E+02  0.51100000000E-03 0. -1.
        -11    1    4    4    0    0 -0.65586024555E+01  0.34140562810E+01 -0.19559714792E+02  0.20910607104E+02  0.51100000000E-03 0.  1.
         12    1    4    4    0    0 -0.32553519929E+01 -0.34251471691E+01 -0.72506340537E+01  0.86545158101E+01  0.00000000000E+00 0. -1.
</event>
<event>
 8    1  0.4798632E-010  0.9118800E+02  0.7816164E-02  0.1184000E+00
        -11   -1    0    0    0    0  0.00000000000E+00  0.00000000000E+00  0.45593999997E+02  0.45594000000E+02  0.51100000000E-03 0. -1.
         11   -1    0    0    0    0 -0.00000000000E+00 -0.00000000000E+00 -0.45593999997E+02  0.45594000000E+02  0.51100000000E-03 0.  1.
         23    2    1    2    0    0 -0.71054273576E-14  0.22204460493E-15 -0.35527136788E-14  0.91188000000E+02  0.91188000000E+02 0.  0.
    9900012    2    3    3    0    0 -0.31937323376E+02 -0.13585857305E+01 -0.29356146144E+02  0.47787289222E+02  0.20000082878E+02 0.  0.
         12    1    3    3    0    0  0.31937323376E+02  0.13585857305E+01  0.29356146144E+02  0.43400710778E+02  0.00000000000E+00 0. -1.
         11    1    4    4    0    0 -0.38524729879E+01  0.15259680856E+01  0.13040097514E+01  0.43440267510E+01  0.51100000000E-03 0. -1.
        -11    1    4    4    0    0 -0.46102029677E+01 -0.51195495468E+01 -0.96730172591E+01  0.11875648282E+02  0.51100000000E-03 0.  1.
        -12    1    4    4    0    0 -0.23474647421E+02  0.22349957307E+01 -0.20987138636E+02  0.31567614189E+02  0.00000000000E+00 0.  1.
</event>
<event>
 8    1  0.4798632E-010  0.9118800E+02  0.7816164E-02  0.1184000E+00
        -11   -1    0    0    0    0  0.00000000000E+00  0.00000000000E+00  0.45593999997E+02  0.45594000000E+02  0.51100000000E-03 0.  1.
         11   -1    0    0    0    0 -0.00000000000E+00 -0.00000000000E+00 -0.45593999997E+02  0.45594000000E+02  0.51100000000E-03 0. -1.
         23    2    1    2    0    0  0.71054273576E-14  0.00000000000E+00  0.00000000000E+00  0.91188000000E+02  0.91188000000E+02 0.  0.
    9900012    2    3    3    0    0 -0.38693754346E+02 -0.18543820301E+02 -0.65225564308E+01  0.47787266837E+02  0.19999980815E+02 0.  0.
         12    1    3    3    0    0  0.38693754346E+02  0.18543820301E+02  0.65225564308E+01  0.43400733163E+02  0.00000000000E+00 0. -1.
         11    1    4    4    0    0 -0.24290421614E+02 -0.55005155759E+01 -0.57371386494E+01  0.25557680136E+02  0.51100000000E-03 0. -1.
        -11    1    4    4    0    0 -0.66481278172E+01 -0.10224069332E+02 -0.47336479842E+01  0.13081919610E+02  0.51100000000E-03 0.  1.
        -12    1    4    4    0    0 -0.77552049145E+01 -0.28192353926E+01  0.39482302027E+01  0.91476670905E+01  0.00000000000E+00 0.  1.
</event>
<event>
 8    1  0.4798632E-010  0.9118800E+02  0.7816164E-02  0.1184000E+00
        -11   -1    0    0    0    0  0.00000000000E+00  0.00000000000E+00  0.45593999997E+02  0.45594000000E+02  0.51100000000E-03 0. -1.
         11   -1    0    0    0    0 -0.00000000000E+00 -0.00000000000E+00 -0.45593999997E+02  0.45594000000E+02  0.51100000000E-03 0.  1.
         23    2    1    2    0    0  0.00000000000E+00  0.35527136788E-14  0.71054273576E-14  0.91188000000E+02  0.91188000000E+02 0.  0.
    9900012    2    3    3    0    0 -0.56722220672E+01 -0.24196524400E+02 -0.35580571176E+02  0.47787274874E+02  0.20000017462E+02 0.  0.
         12    1    3    3    0    0  0.56722220672E+01  0.24196524400E+02  0.35580571176E+02  0.43400725126E+02  0.00000000000E+00 0. -1.
         11    1    4    4    0    0  0.16743755982E+00  0.31363302593E+01 -0.16475675853E+01  0.35467001622E+01  0.51100000000E-03 0. -1.
        -11    1    4    4    0    0 -0.60544065076E+01 -0.16980610037E+02 -0.21914760087E+02  0.28376991830E+02  0.51100000000E-03 0.  1.
         12    1    4    4    0    0  0.21474688061E+00 -0.10352244622E+02 -0.12018243504E+02  0.15863582882E+02  0.00000000000E+00 0. -1.
</event>
<event>
 8    1  0.4798632E-010  0.9118800E+02  0.7816164E-02  0.1184000E+00
        -11   -1    0    0    0    0  0.00000000000E+00  0.00000000000E+00  0.45593999997E+02  0.45594000000E+02  0.51100000000E-03 0. -1.
         11   -1    0    0    0    0 -0.00000000000E+00 -0.00000000000E+00 -0.45593999997E+02  0.45594000000E+02  0.51100000000E-03 0.  1.
         23    2    1    2    0    0  0.88817841970E-15  0.00000000000E+00  0.10658141036E-13  0.91188000000E+02  0.91188000000E+02 0.  0.
    9900012    2    3    3    0    0  0.62735865187E+01  0.31154910502E+02  0.29557350123E+02  0.47787270946E+02  0.19999999549E+02 0.  0.
        -12    1    3    3    0    0 -0.62735865187E+01 -0.31154910502E+02 -0.29557350123E+02  0.43400729054E+02  0.00000000000E+00 0.  1.
         11    1    4    4    0    0 -0.17037965083E+01  0.12787699114E+02  0.23622854679E+01  0.13115203547E+02  0.51100000000E-03 0. -1.
        -11    1    4    4    0    0  0.11419587393E+00  0.24563505132E+01  0.86924984033E+01  0.90336165125E+01  0.51100000000E-03 0.  1.
         12    1    4    4    0    0  0.78631871530E+01  0.15910860874E+02  0.18502566252E+02  0.25638450887E+02  0.00000000000E+00 0. -1.
</event>
<event>
 8    1  0.4798632E-010  0.9118800E+02  0.7816164E-02  0.1184000E+00
        -11   -1    0    0    0    0  0.00000000000E+00  0.00000000000E+00  0.45593999997E+02  0.45594000000E+02  0.51100000000E-03 0. -1.
         11   -1    0    0    0    0 -0.00000000000E+00 -0.00000000000E+00 -0.45593999997E+02  0.45594000000E+02  0.51100000000E-03 0.  1.
         23    2    1    2    0    0  0.44408920985E-15  0.44408920985E-15  0.00000000000E+00  0.91188000000E+02  0.91188000000E+02 0.  0.
    9900012    2    3    3    0    0 -0.83415331196E+00  0.36693510042E+01 -0.43237293264E+02  0.47787268700E+02  0.19999989313E+02 0.  0.
         12    1    3    3    0    0  0.83415331196E+00 -0.36693510042E+01  0.43237293264E+02  0.43400731300E+02  0.00000000000E+00 0. -1.
         11    1    4    4    0    0 -0.18409965494E+01  0.11719038869E+01  0.52078141185E-01  0.21829657370E+01  0.51100000000E-03 0. -1.
        -11    1    4    4    0    0  0.42165460237E+01  0.11783908784E+01 -0.41442788127E+02  0.41673403430E+02  0.51100000000E-03 0.  1.
        -12    1    4    4    0    0 -0.32097027862E+01  0.13190562390E+01 -0.18465832777E+01  0.39308995331E+01  0.00000000000E+00 0.  1.
</event>
<event>
 8    1  0.4798632E-010  0.9118800E+02  0.7816164E-02  0.1184000E+00
        -11   -1    0    0    0    0  0.00000000000E+00  0.00000000000E+00  0.45593999997E+02  0.45594000000E+02  0.51100000000E-03 0. -1.
         11   -1    0    0    0    0 -0.00000000000E+00 -0.00000000000E+00 -0.45593999997E+02  0.45594000000E+02  0.51100000000E-03 0.  1.
         23    2    1    2    0    0 -0.22204460493E-15  0.00000000000E+00  0.00000000000E+00  0.91188000000E+02  0.91188000000E+02 0.  0.
    9900012    2    3    3    0    0  0.19568215094E+01 -0.72587744424E+01  0.42744642069E+02  0.47787269794E+02  0.19999994298E+02 0.  0.
        -12    1    3    3    0    0 -0.19568215094E+01  0.72587744424E+01 -0.42744642069E+02  0.43400730206E+02  0.00000000000E+00 0.  1.
         11    1    4    4    0    0  0.12032479535E+01 -0.29525275741E+01  0.80199744406E+01  0.86304817364E+01  0.51100000000E-03 0. -1.
        -11    1    4    4    0    0 -0.49305041269E+01 -0.60629775560E+01  0.60813537969E+01  0.99021428011E+01  0.51100000000E-03 0.  1.
        -12    1    4    4    0    0  0.56840776828E+01  0.17567306877E+01  0.28643313832E+02  0.29254645256E+02  0.00000000000E+00 0.  1.
</event>
<event>
 8    1  0.4798632E-010  0.9118800E+02  0.7816164E-02  0.1184000E+00
        -11   -1    0    0    0    0  0.00000000000E+00  0.00000000000E+00  0.45593999997E+02  0.45594000000E+02  0.51100000000E-03 0. -1.
         11   -1    0    0    0    0 -0.00000000000E+00 -0.00000000000E+00 -0.45593999997E+02  0.45594000000E+02  0.51100000000E-03 0.  1.
         23    2    1    2    0    0  0.00000000000E+00  0.17763568394E-14  0.00000000000E+00  0.91188000000E+02  0.91188000000E+02 0.  0.
    9900012    2    3    3    0    0  0.18901708463E+02 -0.10110238008E+02 -0.37737671769E+02  0.47787269984E+02  0.19999995164E+02 0.  0.
         12    1    3    3    0    0 -0.18901708463E+02  0.10110238008E+02  0.37737671769E+02  0.43400730016E+02  0.00000000000E+00 0. -1.
         11    1    4    4    0    0  0.82450012817E+01  0.50143660485E+01 -0.13737486805E+02  0.16788164193E+02  0.51100000000E-03 0. -1.
        -11    1    4    4    0    0  0.11251296657E+02 -0.13893296576E+02 -0.23534069922E+02  0.29554488890E+02  0.51100000000E-03 0.  1.
         12    1    4    4    0    0 -0.59458947535E+00 -0.12313074811E+01 -0.46611504227E+00  0.14446169007E+01  0.00000000000E+00 0. -1.
</event>
<event>
 8    1  0.4798632E-010  0.9118800E+02  0.7816164E-02  0.1184000E+00
        -11   -1    0    0    0    0  0.00000000000E+00  0.00000000000E+00  0.45593999997E+02  0.45594000000E+02  0.51100000000E-03 0. -1.
         11   -1    0    0    0    0 -0.00000000000E+00 -0.00000000000E+00 -0.45593999997E+02  0.45594000000E+02  0.51100000000E-03 0.  1.
         23    2    1    2    0    0  0.00000000000E+00 -0.35527136788E-14  0.71054273576E-14  0.91188000000E+02  0.91188000000E+02 0.  0.
    9900012    2    3    3    0    0 -0.13604356516E+02 -0.10342259933E+02  0.39894635186E+02  0.47787276810E+02  0.20000026288E+02 0.  0.
        -12    1    3    3    0    0  0.13604356516E+02  0.10342259933E+02 -0.39894635186E+02  0.43400723190E+02  0.00000000000E+00 0.  1.
         11    1    4    4    0    0  0.23594978213E+01  0.21522222032E+01  0.97405085798E+01  0.10250697441E+02  0.51100000000E-03 0.  1.
        -11    1    4    4    0    0 -0.73145018536E+01 -0.12159883538E+01  0.61201485785E+01  0.96144050220E+01  0.51100000000E-03 0. -1.
         12    1    4    4    0    0 -0.86493524842E+01 -0.11278493782E+02  0.24033978028E+02  0.27922174347E+02  0.00000000000E+00 0. -1.
</event>
<event>
 8    1  0.4798632E-010  0.9118800E+02  0.7816164E-02  0.1184000E+00
        -11   -1    0    0    0    0  0.00000000000E+00  0.00000000000E+00  0.45593999997E+02  0.45594000000E+02  0.51100000000E-03 0. -1.
         11   -1    0    0    0    0 -0.00000000000E+00 -0.00000000000E+00 -0.45593999997E+02  0.45594000000E+02  0.51100000000E-03 0.  1.
         23    2    1    2    0    0  0.00000000000E+00  0.88817841970E-15  0.14210854715E-13  0.91188000000E+02  0.91188000000E+02 0.  0.
    9900012    2    3    3    0    0 -0.12216256861E+02  0.62613126624E+01 -0.41172593645E+02  0.47787269184E+02  0.19999991517E+02 0.  0.
         12    1    3    3    0    0  0.12216256861E+02 -0.62613126624E+01  0.41172593645E+02  0.43400730816E+02  0.00000000000E+00 0. -1.
         11    1    4    4    0    0 -0.14985016227E+01 -0.48195389728E+01 -0.39522930830E+01  0.64104667458E+01  0.51100000000E-03 0. -1.
        -11    1    4    4    0    0  0.13933961232E+01 -0.29608743081E+00 -0.36769928213E+01  0.39432850508E+01  0.51100000000E-03 0.  1.
         12    1    4    4    0    0 -0.12111151362E+02  0.11376939066E+02 -0.33543307740E+02  0.37433517387E+02  0.00000000000E+00 0. -1.
</event>
<event>
 8    1  0.4798632E-010  0.9118800E+02  0.7816164E-02  0.1184000E+00
        -11   -1    0    0    0    0  0.00000000000E+00  0.00000000000E+00  0.45593999997E+02  0.45594000000E+02  0.51100000000E-03 0. -1.
         11   -1    0    0    0    0 -0.00000000000E+00 -0.00000000000E+00 -0.45593999997E+02  0.45594000000E+02  0.51100000000E-03 0.  1.
         23    2    1    2    0    0  0.00000000000E+00 -0.44408920985E-15  0.00000000000E+00  0.91188000000E+02  0.91188000000E+02 0.  0.
    9900012    2    3    3    0    0 -0.55343232822E+01  0.38101316428E+01  0.42877469859E+02  0.47787271217E+02  0.20000000788E+02 0.  0.
        -12    1    3    3    0    0  0.55343232822E+01 -0.38101316428E+01 -0.42877469859E+02  0.43400728783E+02  0.00000000000E+00 0.  1.
         11    1    4    4    0    0 -0.34620241107E+01  0.10056349412E+02  0.17076713320E+02  0.20117900301E+02  0.51100000000E-03 0. -1.
        -11    1    4    4    0    0  0.25371138890E+01 -0.37872840291E+01  0.92255708903E+01  0.10290365675E+02  0.51100000000E-03 0.  1.
         12    1    4    4    0    0 -0.46094130606E+01 -0.24589337396E+01  0.16575185649E+02  0.17379005242E+02  0.00000000000E+00 0. -1.
</event>
<event>
 8    1  0.4798632E-010  0.9118800E+02  0.7816164E-02  0.1184000E+00
        -11   -1    0    0    0    0  0.00000000000E+00  0.00000000000E+00  0.45593999997E+02  0.45594000000E+02  0.51100000000E-03 0. -1.
         11   -1    0    0    0    0 -0.00000000000E+00 -0.00000000000E+00 -0.45593999997E+02  0.45594000000E+02  0.51100000000E-03 0.  1.
         23    2    1    2    0    0  0.00000000000E+00  0.00000000000E+00  0.00000000000E+00  0.91188000000E+02  0.91188000000E+02 0.  0.
    9900012    2    3    3    0    0  0.16993074025E+02 -0.69776480753E+01 -0.39321382603E+02  0.47787271120E+02  0.20000000345E+02 0.  0.
         12    1    3    3    0    0 -0.16993074025E+02  0.69776480753E+01  0.39321382603E+02  0.43400728880E+02  0.00000000000E+00 0. -1.
         11    1    4    4    0    0  0.16740319468E+01  0.10329379407E+00 -0.23097916809E+00  0.16930458363E+01  0.51100000000E-03 0. -1.
        -11    1    4    4    0    0  0.18719010228E+02 -0.58780797215E+01 -0.26344526007E+02  0.32847940817E+02  0.51100000000E-03 0.  1.
        -12    1    4    4    0    0 -0.33999681497E+01 -0.12028621479E+01 -0.12745877428E+02  0.13246284467E+02  0.00000000000E+00 0.  1.
</event>
<event>
 8    1  0.4798632E-010  0.9118800E+02  0.7816164E-02  0.1184000E+00
        -11   -1    0    0    0    0  0.00000000000E+00  0.00000000000E+00  0.45593999997E+02  0.45594000000E+02  0.51100000000E-03 0. -1.
         11   -1    0    0    0    0 -0.00000000000E+00 -0.00000000000E+00 -0.45593999997E+02  0.45594000000E+02  0.51100000000E-03 0.  1.
         23    2    1    2    0    0  0.00000000000E+00  0.00000000000E+00  0.00000000000E+00  0.91188000000E+02  0.91188000000E+02 0.  0.
    9900012    2    3    3    0    0  0.34380387467E+02 -0.13729136148E+02 -0.22652206705E+02  0.47787277766E+02  0.20000030648E+02 0.  0.
         12    1    3    3    0    0 -0.34380387467E+02  0.13729136148E+02  0.22652206705E+02  0.43400722234E+02  0.00000000000E+00 0. -1.
         11    1    4    4    0    0  0.13098387437E+01 -0.48003255242E+01 -0.91085459256E+01  0.10379037133E+02  0.51100000000E-03 0. -1.
        -11    1    4    4    0    0  0.17071370673E+02 -0.14040927524E+01 -0.77710197858E+01  0.18809357296E+02  0.51100000000E-03 0.  1.
         12    1    4    4    0    0  0.15999178051E+02 -0.75247178717E+01 -0.57726409941E+01  0.18598883337E+02  0.00000000000E+00 0. -1.
</event>
<event>
 8    1  0.4798632E-010  0.9118800E+02  0.7816164E-02  0.1184000E+00
        -11   -1    0    0    0    0  0.00000000000E+00  0.00000000000E+00  0.45593999997E+02  0.45594000000E+02  0.51100000000E-03 0. -1.
         11   -1    0    0    0    0 -0.00000000000E+00 -0.00000000000E+00 -0.45593999997E+02  0.45594000000E+02  0.51100000000E-03 0.  1.
         23    2    1    2    0    0  0.00000000000E+00  0.00000000000E+00  0.44408920985E-15  0.91188000000E+02  0.91188000000E+02 0.  0.
    9900012    2    3    3    0    0  0.21502945902E+02 -0.37540076146E+02  0.34625974656E+01  0.47787267510E+02  0.19999983884E+02 0.  0.
        -12    1    3    3    0    0 -0.21502945902E+02  0.37540076146E+02 -0.34625974656E+01  0.43400732490E+02  0.00000000000E+00 0.  1.
         11    1    4    4    0    0  0.10503844881E+02 -0.13276654911E+02 -0.98783637101E+00  0.16958070170E+02  0.51100000000E-03 0. -1.
        -11    1    4    4    0    0 -0.32244432788E+01 -0.12790582339E+01  0.28310035781E+00  0.34803980372E+01  0.51100000000E-03 0.  1.
        -12    1    4    4    0    0  0.14223544300E+02 -0.22984363001E+02  0.41673334788E+01  0.27348799303E+02  0.00000000000E+00 0.  1.
</event>
<event>
 8    1  0.4798632E-010  0.9118800E+02  0.7816164E-02  0.1184000E+00
        -11   -1    0    0    0    0  0.00000000000E+00  0.00000000000E+00  0.45593999997E+02  0.45594000000E+02  0.51100000000E-03 0. -1.
         11   -1    0    0    0    0 -0.00000000000E+00 -0.00000000000E+00 -0.45593999997E+02  0.45594000000E+02  0.51100000000E-03 0.  1.
         23    2    1    2    0    0  0.88817841970E-15  0.00000000000E+00  0.35527136788E-14  0.91188000000E+02  0.91188000000E+02 0.  0.
    9900012    2    3    3    0    0 -0.40338058134E+01 -0.33059061122E+02  0.27828944231E+02  0.47787271336E+02  0.20000001328E+02 0.  0.
        -12    1    3    3    0    0  0.40338058134E+01  0.33059061122E+02 -0.27828944231E+02  0.43400728664E+02  0.00000000000E+00 0.  1.
         11    1    4    4    0    0 -0.79792900569E+01 -0.92269540293E+01  0.35431110093E+01  0.12702731453E+02  0.51100000000E-03 0. -1.
        -11    1    4    4    0    0 -0.79065380026E+00  0.20839684829E+00  0.76192159669E+00  0.11176258134E+01  0.51100000000E-03 0.  1.
         12    1    4    4    0    0  0.47361380437E+01 -0.24040503941E+02  0.23523911625E+02  0.33966914070E+02  0.00000000000E+00 0. -1.
</event>
<event>
 8    1  0.4798632E-010  0.9118800E+02  0.7816164E-02  0.1184000E+00
        -11   -1    0    0    0    0  0.00000000000E+00  0.00000000000E+00  0.45593999997E+02  0.45594000000E+02  0.51100000000E-03 0. -1.
         11   -1    0    0    0    0 -0.00000000000E+00 -0.00000000000E+00 -0.45593999997E+02  0.45594000000E+02  0.51100000000E-03 0.  1.
         23    2    1    2    0    0  0.00000000000E+00  0.00000000000E+00  0.00000000000E+00  0.91188000000E+02  0.91188000000E+02 0.  0.
    9900012    2    3    3    0    0  0.23593030170E+02 -0.58371496523E+01  0.35957187891E+02  0.47787277083E+02  0.20000027531E+02 0.  0.
        -12    1    3    3    0    0 -0.23593030170E+02  0.58371496523E+01 -0.35957187891E+02  0.43400722917E+02  0.00000000000E+00 0.  1.
         11    1    4    4    0    0  0.17774143260E+02  0.36384607096E+00  0.31452000369E+02  0.36128671164E+02  0.51100000000E-03 0. -1.
        -11    1    4    4    0    0  0.50057573060E+01 -0.57578662206E+01  0.60897182354E+00  0.76538537068E+01  0.51100000000E-03 0.  1.
        -12    1    4    4    0    0  0.81312960420E+00 -0.44312950257E+00  0.38962156991E+01  0.40047522125E+01  0.00000000000E+00 0.  1.
</event>
<event>
 8    1  0.4798632E-010  0.9118800E+02  0.7816164E-02  0.1184000E+00
        -11   -1    0    0    0    0  0.00000000000E+00  0.00000000000E+00  0.45593999997E+02  0.45594000000E+02  0.51100000000E-03 0. -1.
         11   -1    0    0    0    0 -0.00000000000E+00 -0.00000000000E+00 -0.45593999997E+02  0.45594000000E+02  0.51100000000E-03 0.  1.
         23    2    1    2    0    0  0.00000000000E+00 -0.88817841970E-15  0.00000000000E+00  0.91188000000E+02  0.91188000000E+02 0.  0.
    9900012    2    3    3    0    0 -0.22043659243E+02 -0.63363967536E+01  0.36844951520E+02  0.47787270869E+02  0.19999999199E+02 0.  0.
        -12    1    3    3    0    0  0.22043659243E+02  0.63363967536E+01 -0.36844951520E+02  0.43400729131E+02  0.00000000000E+00 0.  1.
         11    1    4    4    0    0 -0.12289551463E+02 -0.60906922947E+01  0.22468792893E+02  0.26324442295E+02  0.51100000000E-03 0. -1.
        -11    1    4    4    0    0 -0.71336823346E+01  0.36396070055E+01  0.20367245663E+01  0.82634381480E+01  0.51100000000E-03 0.  1.
         12    1    4    4    0    0 -0.26204254453E+01 -0.38853114644E+01  0.12339434060E+02  0.13199390426E+02  0.00000000000E+00 0. -1.
</event>
<event>
 8    1  0.4798632E-010  0.9118800E+02  0.7816164E-02  0.1184000E+00
        -11   -1    0    0    0    0  0.00000000000E+00  0.00000000000E+00  0.45593999997E+02  0.45594000000E+02  0.51100000000E-03 0. -1.
         11   -1    0    0    0    0 -0.00000000000E+00 -0.00000000000E+00 -0.45593999997E+02  0.45594000000E+02  0.51100000000E-03 0.  1.
         23    2    1    2    0    0 -0.35527136788E-14  0.00000000000E+00  0.00000000000E+00  0.91188000000E+02  0.91188000000E+02 0.  0.
    9900012    2    3    3    0    0 -0.21382705534E+02  0.84862452940E+01 -0.36801993565E+02  0.47787272062E+02  0.20000004641E+02 0.  0.
         12    1    3    3    0    0  0.21382705534E+02 -0.84862452940E+01  0.36801993565E+02  0.43400727938E+02  0.00000000000E+00 0. -1.
         11    1    4    4    0    0 -0.12223148236E+02 -0.25114711224E+01 -0.99609820899E+01  0.15966652889E+02  0.51100000000E-03 0. -1.
        -11    1    4    4    0    0 -0.65200253652E+00 -0.10087537706E+01 -0.70878827886E+01  0.71889341465E+01  0.51100000000E-03 0.  1.
         12    1    4    4    0    0 -0.85075547612E+01  0.12006470187E+02 -0.19753128687E+02  0.24631685027E+02  0.00000000000E+00 0. -1.
</event>
<event>
 8    1  0.4798632E-010  0.9118800E+02  0.7816164E-02  0.1184000E+00
        -11   -1    0    0    0    0  0.00000000000E+00  0.00000000000E+00  0.45593999997E+02  0.45594000000E+02  0.51100000000E-03 0. -1.
         11   -1    0    0    0    0 -0.00000000000E+00 -0.00000000000E+00 -0.45593999997E+02  0.45594000000E+02  0.51100000000E-03 0.  1.
         23    2    1    2    0    0  0.00000000000E+00 -0.17763568394E-14  0.00000000000E+00  0.91188000000E+02  0.91188000000E+02 0.  0.
    9900012    2    3    3    0    0  0.13509793046E+02  0.11202824371E+02 -0.39693883388E+02  0.47787283872E+02  0.20000058485E+02 0.  0.
         12    1    3    3    0    0 -0.13509793046E+02 -0.11202824371E+02  0.39693883388E+02  0.43400716128E+02  0.00000000000E+00 0. -1.
         11    1    4    4    0    0  0.12458232558E+01 -0.93692011715E+00 -0.15308686133E+02  0.15387844757E+02  0.51100000000E-03 0. -1.
        -11    1    4    4    0    0  0.53530176353E+01  0.13176570962E+02 -0.14675759307E+02  0.20436602741E+02  0.51100000000E-03 0.  1.
        -12    1    4    4    0    0  0.69109521545E+01 -0.10368264739E+01 -0.97094379480E+01  0.11962836373E+02  0.00000000000E+00 0.  1.
</event>
<event>
 8    1  0.4798632E-010  0.9118800E+02  0.7816164E-02  0.1184000E+00
        -11   -1    0    0    0    0  0.00000000000E+00  0.00000000000E+00  0.45593999997E+02  0.45594000000E+02  0.51100000000E-03 0. -1.
         11   -1    0    0    0    0 -0.00000000000E+00 -0.00000000000E+00 -0.45593999997E+02  0.45594000000E+02  0.51100000000E-03 0.  1.
         23    2    1    2    0    0 -0.35527136788E-14  0.71054273576E-14  0.00000000000E+00  0.91188000000E+02  0.91188000000E+02 0.  0.
    9900012    2    3    3    0    0 -0.26025726354E+02  0.20294776866E+02 -0.28185226328E+02  0.47787269782E+02  0.19999994244E+02 0.  0.
         12    1    3    3    0    0  0.26025726354E+02 -0.20294776866E+02  0.28185226328E+02  0.43400730218E+02  0.00000000000E+00 0. -1.
         11    1    4    4    0    0 -0.60963361446E+01  0.20121352884E+01  0.18257656868E+01  0.66743856205E+01  0.51100000000E-03 0. -1.
        -11    1    4    4    0    0 -0.56957019232E+01  0.10131857800E+02 -0.13936268398E+02  0.18147042183E+02  0.51100000000E-03 0.  1.
         12    1    4    4    0    0 -0.14233688287E+02  0.81507837781E+01 -0.16074723616E+02  0.22965841978E+02  0.00000000000E+00 0. -1.
</event>
<event>
 8    1  0.4798632E-010  0.9118800E+02  0.7816164E-02  0.1184000E+00
        -11   -1    0    0    0    0  0.00000000000E+00  0.00000000000E+00  0.45593999997E+02  0.45594000000E+02  0.51100000000E-03 0. -1.
         11   -1    0    0    0    0 -0.00000000000E+00 -0.00000000000E+00 -0.45593999997E+02  0.45594000000E+02  0.51100000000E-03 0.  1.
         23    2    1    2    0    0  0.17763568394E-14  0.00000000000E+00  0.71054273576E-14  0.91188000000E+02  0.91188000000E+02 0.  0.
    9900012    2    3    3    0    0 -0.14903293711E+02  0.73248008597E+01 -0.40098168643E+02  0.47787262684E+02  0.19999961883E+02 0.  0.
         12    1    3    3    0    0  0.14903293711E+02 -0.73248008597E+01  0.40098168643E+02  0.43400737316E+02  0.00000000000E+00 0. -1.
         11    1    4    4    0    0 -0.10199509064E+02  0.70943274286E+01 -0.22289528651E+02  0.25518278833E+02  0.51100000000E-03 0. -1.
        -11    1    4    4    0    0 -0.10940902070E+01  0.15162024174E+01  0.16152024309E+01  0.24707857668E+01  0.51100000000E-03 0.  1.
        -12    1    4    4    0    0 -0.36096944393E+01 -0.12857289863E+01 -0.19423842422E+02  0.19798198085E+02  0.00000000000E+00 0.  1.
</event>
<event>
 8    1  0.4798632E-010  0.9118800E+02  0.7816164E-02  0.1184000E+00
        -11   -1    0    0    0    0  0.00000000000E+00  0.00000000000E+00  0.45593999997E+02  0.45594000000E+02  0.51100000000E-03 0. -1.
         11   -1    0    0    0    0 -0.00000000000E+00 -0.00000000000E+00 -0.45593999997E+02  0.45594000000E+02  0.51100000000E-03 0.  1.
         23    2    1    2    0    0 -0.44408920985E-15  0.88817841970E-15  0.00000000000E+00  0.91188000000E+02  0.91188000000E+02 0.  0.
    9900012    2    3    3    0    0 -0.21211047732E+01  0.51127030576E+01  0.43046310597E+02  0.47787266434E+02  0.19999978980E+02 0.  0.
        -12    1    3    3    0    0  0.21211047732E+01 -0.51127030576E+01 -0.43046310597E+02  0.43400733566E+02  0.00000000000E+00 0.  1.
         11    1    4    4    0    0  0.94532027840E+00  0.61560879804E+00 -0.15716501936E+01  0.19346031151E+01  0.51100000000E-03 0.  1.
        -11    1    4    4    0    0 -0.31141741295E+01  0.71224085448E+01  0.36575028270E+02  0.37391970759E+02  0.51100000000E-03 0. -1.
        -12    1    4    4    0    0  0.47749077941E-01 -0.26253142852E+01  0.80429325204E+01  0.84606925602E+01  0.00000000000E+00 0.  1.
</event>
<event>
 8    1  0.4798632E-010  0.9118800E+02  0.7816164E-02  0.1184000E+00
        -11   -1    0    0    0    0  0.00000000000E+00  0.00000000000E+00  0.45593999997E+02  0.45594000000E+02  0.51100000000E-03 0. -1.
         11   -1    0    0    0    0 -0.00000000000E+00 -0.00000000000E+00 -0.45593999997E+02  0.45594000000E+02  0.51100000000E-03 0.  1.
         23    2    1    2    0    0  0.15543122345E-14  0.00000000000E+00  0.00000000000E+00  0.91188000000E+02  0.91188000000E+02 0.  0.
    9900012    2    3    3    0    0 -0.82356913471E+00  0.13370511618E+02  0.41281649527E+02  0.47787269192E+02  0.19999991552E+02 0.  0.
        -12    1    3    3    0    0  0.82356913471E+00 -0.13370511618E+02 -0.41281649527E+02  0.43400730808E+02  0.00000000000E+00 0.  1.
         11    1    4    4    0    0 -0.61213187879E+01  0.60727155317E+01  0.98742511555E+01  0.13109128643E+02  0.51100000000E-03 0. -1.
        -11    1    4    4    0    0  0.49100578975E+01  0.10432213527E+02  0.25253584016E+02  0.27761182495E+02  0.51100000000E-03 0.  1.
        -12    1    4    4    0    0  0.38769175567E+00 -0.31344174409E+01  0.61538143554E+01  0.69169580534E+01  0.00000000000E+00 0.  1.
</event>
<event>
 8    1  0.5488294E-010  0.9118800E+02  0.7816164E-02  0.1184000E+00
        -11   -1    0    0    0    0  0.00000000000E+00  0.00000000000E+00  0.45593999997E+02  0.45594000000E+02  0.51100000000E-03 0. -1.
         11   -1    0    0    0    0 -0.00000000000E+00 -0.00000000000E+00 -0.45593999997E+02  0.45594000000E+02  0.51100000000E-03 0.  1.
         23    2    1    2    0    0  0.00000000000E+00  0.00000000000E+00  0.00000000000E+00  0.91188000000E+02  0.91188000000E+02 0.  0.
    9900012    2    3    3    0    0 -0.17704771569E+02  0.53230826966E+01  0.39266131043E+02  0.47787271979E+02  0.20000004261E+02 0.  0.
        -12    1    3    3    0    0  0.17704771569E+02 -0.53230826966E+01 -0.39266131043E+02  0.43400728021E+02  0.00000000000E+00 0.  1.
         11    1    4    4    0    0 -0.36199402942E+01 -0.16552457963E+01  0.15684237786E+02  0.16181443742E+02  0.51100000000E-03 0. -1.
        -11    1    4    4    0    0 -0.31031883164E+01  0.78880159767E+01  0.45662631355E+01  0.96281531489E+01  0.51100000000E-03 0.  1.
        -12    1    4    4    0    0 -0.10981642958E+02 -0.90968748380E+00  0.19015630121E+02  0.21977675088E+02  0.00000000000E+00 0.  1.
</event>
<event>
 8    1  0.4798632E-010  0.9118800E+02  0.7816164E-02  0.1184000E+00
        -11   -1    0    0    0    0  0.00000000000E+00  0.00000000000E+00  0.45593999997E+02  0.45594000000E+02  0.51100000000E-03 0. -1.
         11   -1    0    0    0    0 -0.00000000000E+00 -0.00000000000E+00 -0.45593999997E+02  0.45594000000E+02  0.51100000000E-03 0.  1.
         23    2    1    2    0    0  0.00000000000E+00  0.35527136788E-14  0.00000000000E+00  0.91188000000E+02  0.91188000000E+02 0.  0.
    9900012    2    3    3    0    0  0.23704402063E+02  0.26900015293E+02  0.24456362412E+02  0.47787272329E+02  0.20000005858E+02 0.  0.
        -12    1    3    3    0    0 -0.23704402063E+02 -0.26900015293E+02 -0.24456362412E+02  0.43400727671E+02  0.00000000000E+00 0.  1.
         11    1    4    4    0    0  0.12954981884E+02  0.86948123483E+01  0.29392370057E+01  0.15876726105E+02  0.51100000000E-03 0. -1.
        -11    1    4    4    0    0  0.97081742769E+01  0.18641066582E+02  0.22216342214E+02  0.30582738150E+02  0.51100000000E-03 0.  1.
         12    1    4    4    0    0  0.10412459018E+01 -0.43586363787E+00 -0.69921680706E+00  0.13278080742E+01  0.00000000000E+00 0. -1.
</event>
<event>
 8    1  0.4798632E-010  0.9118800E+02  0.7816164E-02  0.1184000E+00
        -11   -1    0    0    0    0  0.00000000000E+00  0.00000000000E+00  0.45593999997E+02  0.45594000000E+02  0.51100000000E-03 0. -1.
         11   -1    0    0    0    0 -0.00000000000E+00 -0.00000000000E+00 -0.45593999997E+02  0.45594000000E+02  0.51100000000E-03 0.  1.
         23    2    1    2    0    0  0.00000000000E+00  0.00000000000E+00  0.35527136788E-14  0.91188000000E+02  0.91188000000E+02 0.  0.
    9900012    2    3    3    0    0 -0.32415495021E+02  0.19884707924E+02 -0.20915487619E+02  0.47787267874E+02  0.19999985546E+02 0.  0.
         12    1    3    3    0    0  0.32415495021E+02 -0.19884707924E+02  0.20915487619E+02  0.43400732126E+02  0.00000000000E+00 0. -1.
         11    1    4    4    0    0 -0.12677122892E+02  0.42377785340E+01 -0.35995171552E+01  0.13842858654E+02  0.51100000000E-03 0. -1.
        -11    1    4    4    0    0 -0.91736292871E+01  0.72307377996E+01 -0.16756012112E+02  0.20425547375E+02  0.51100000000E-03 0.  1.
        -12    1    4    4    0    0 -0.10564742842E+02  0.84161915909E+01 -0.55995835201E+00  0.13518861845E+02  0.00000000000E+00 0.  1.
</event>
<event>
 8    1  0.4798632E-010  0.9118800E+02  0.7816164E-02  0.1184000E+00
        -11   -1    0    0    0    0  0.00000000000E+00  0.00000000000E+00  0.45593999997E+02  0.45594000000E+02  0.51100000000E-03 0. -1.
         11   -1    0    0    0    0 -0.00000000000E+00 -0.00000000000E+00 -0.45593999997E+02  0.45594000000E+02  0.51100000000E-03 0.  1.
         23    2    1    2    0    0  0.00000000000E+00  0.35527136788E-14  0.35527136788E-14  0.91188000000E+02  0.91188000000E+02 0.  0.
    9900012    2    3    3    0    0 -0.17454856481E+02 -0.28009551931E+02  0.28185394471E+02  0.47787268720E+02  0.19999989401E+02 0.  0.
        -12    1    3    3    0    0  0.17454856481E+02  0.28009551931E+02 -0.28185394471E+02  0.43400731280E+02  0.00000000000E+00 0.  1.
         11    1    4    4    0    0 -0.15712842942E+02 -0.22527171709E+02  0.22431731259E+02  0.35461943913E+02  0.51100000000E-03 0. -1.
        -11    1    4    4    0    0  0.38305223307E+01 -0.22134462422E+01  0.26609711027E+01  0.51626556213E+01  0.51100000000E-03 0.  1.
        -12    1    4    4    0    0 -0.55725358695E+01 -0.32689339801E+01  0.30926921092E+01  0.71626691858E+01  0.00000000000E+00 0.  1.
</event>
<event>
 8    1  0.4798632E-010  0.9118800E+02  0.7816164E-02  0.1184000E+00
        -11   -1    0    0    0    0  0.00000000000E+00  0.00000000000E+00  0.45593999997E+02  0.45594000000E+02  0.51100000000E-03 0. -1.
         11   -1    0    0    0    0 -0.00000000000E+00 -0.00000000000E+00 -0.45593999997E+02  0.45594000000E+02  0.51100000000E-03 0.  1.
         23    2    1    2    0    0  0.71054273576E-14  0.00000000000E+00 -0.22204460493E-15  0.91188000000E+02  0.91188000000E+02 0.  0.
    9900012    2    3    3    0    0 -0.41409036196E+02 -0.12881020455E+02 -0.17304390993E+01  0.47787269751E+02  0.19999994103E+02 0.  0.
        -12    1    3    3    0    0  0.41409036196E+02  0.12881020455E+02  0.17304390993E+01  0.43400730249E+02  0.00000000000E+00 0.  1.
         11    1    4    4    0    0 -0.13580478685E+02 -0.12040683493E+02 -0.31296270645E+01  0.18417438098E+02  0.51100000000E-03 0. -1.
        -11    1    4    4    0    0 -0.53231426250E+01  0.35423691655E+01  0.68311349728E+00  0.64304642929E+01  0.51100000000E-03 0.  1.
         12    1    4    4    0    0 -0.22505414887E+02 -0.43827061277E+01  0.71607446791E+00  0.22939367360E+02  0.00000000000E+00 0. -1.
</event>
<event>
 8    1  0.4798632E-010  0.9118800E+02  0.7816164E-02  0.1184000E+00
        -11   -1    0    0    0    0  0.00000000000E+00  0.00000000000E+00  0.45593999997E+02  0.45594000000E+02  0.51100000000E-03 0. -1.
         11   -1    0    0    0    0 -0.00000000000E+00 -0.00000000000E+00 -0.45593999997E+02  0.45594000000E+02  0.51100000000E-03 0.  1.
         23    2    1    2    0    0  0.00000000000E+00  0.00000000000E+00  0.00000000000E+00  0.91188000000E+02  0.91188000000E+02 0.  0.
    9900012    2    3    3    0    0  0.28114446305E+02  0.21291589994E+02 -0.25295658302E+02  0.47787260093E+02  0.19999950068E+02 0.  0.
         12    1    3    3    0    0 -0.28114446305E+02 -0.21291589994E+02  0.25295658302E+02  0.43400739907E+02  0.00000000000E+00 0. -1.
         11    1    4    4    0    0  0.48525653761E+01  0.71939204052E+01 -0.39935222193E+01  0.95523872148E+01  0.51100000000E-03 0. -1.
        -11    1    4    4    0    0  0.35950514413E+01  0.19355805086E+01  0.27087829378E+01  0.48998338784E+01  0.51100000000E-03 0.  1.
        -12    1    4    4    0    0  0.19666829488E+02  0.12162089080E+02 -0.24010919021E+02  0.33335039000E+02  0.00000000000E+00 0.  1.
</event>
<event>
 8    1  0.4798632E-010  0.9118800E+02  0.7816164E-02  0.1184000E+00
        -11   -1    0    0    0    0  0.00000000000E+00  0.00000000000E+00  0.45593999997E+02  0.45594000000E+02  0.51100000000E-03 0. -1.
         11   -1    0    0    0    0 -0.00000000000E+00 -0.00000000000E+00 -0.45593999997E+02  0.45594000000E+02  0.51100000000E-03 0.  1.
         23    2    1    2    0    0 -0.17763568394E-14  0.35527136788E-14  0.71054273576E-14  0.91188000000E+02  0.91188000000E+02 0.  0.
    9900012    2    3    3    0    0 -0.11160739224E+02  0.20381187782E+02  0.36656086219E+02  0.47787267606E+02  0.19999984322E+02 0.  0.
        -12    1    3    3    0    0  0.11160739224E+02 -0.20381187782E+02 -0.36656086219E+02  0.43400732394E+02  0.00000000000E+00 0.  1.
         11    1    4    4    0    0 -0.60340305517E+01  0.16512577484E+02  0.13233111035E+02  0.22004317027E+02  0.51100000000E-03 0. -1.
        -11    1    4    4    0    0 -0.29866237841E+01 -0.19088365796E+01  0.37162084512E+01  0.51355412791E+01  0.51100000000E-03 0.  1.
         12    1    4    4    0    0 -0.21400848879E+01  0.57774468774E+01  0.19706766733E+02  0.20647409300E+02  0.00000000000E+00 0. -1.
</event>
<event>
 8    1  0.4798632E-010  0.9118800E+02  0.7816164E-02  0.1184000E+00
        -11   -1    0    0    0    0  0.00000000000E+00  0.00000000000E+00  0.45593999997E+02  0.45594000000E+02  0.51100000000E-03 0. -1.
         11   -1    0    0    0    0 -0.00000000000E+00 -0.00000000000E+00 -0.45593999997E+02  0.45594000000E+02  0.51100000000E-03 0.  1.
         23    2    1    2    0    0  0.00000000000E+00  0.00000000000E+00  0.00000000000E+00  0.91188000000E+02  0.91188000000E+02 0.  0.
    9900012    2    3    3    0    0 -0.29705002439E+02  0.26960967331E+02 -0.16563280012E+02  0.47787272194E+02  0.20000005241E+02 0.  0.
         12    1    3    3    0    0  0.29705002439E+02 -0.26960967331E+02  0.16563280012E+02  0.43400727806E+02  0.00000000000E+00 0. -1.
         11    1    4    4    0    0 -0.19943779301E+02  0.15365130930E+02 -0.19409525949E+01  0.25250918370E+02  0.51100000000E-03 0. -1.
        -11    1    4    4    0    0 -0.94920558519E+01  0.79370801050E+01 -0.14214081324E+02  0.18845064951E+02  0.51100000000E-03 0.  1.
         12    1    4    4    0    0 -0.26916728552E+00  0.36587562966E+01 -0.40824609380E+00  0.36912888723E+01  0.00000000000E+00 0. -1.
</event>
<event>
 8    1  0.4798632E-010  0.9118800E+02  0.7816164E-02  0.1184000E+00
        -11   -1    0    0    0    0  0.00000000000E+00  0.00000000000E+00  0.45593999997E+02  0.45594000000E+02  0.51100000000E-03 0. -1.
         11   -1    0    0    0    0 -0.00000000000E+00 -0.00000000000E+00 -0.45593999997E+02  0.45594000000E+02  0.51100000000E-03 0.  1.
         23    2    1    2    0    0  0.00000000000E+00  0.00000000000E+00  0.00000000000E+00  0.91188000000E+02  0.91188000000E+02 0.  0.
    9900012    2    3    3    0    0  0.18102805653E+02  0.35104164740E+02 -0.17989130045E+02  0.47787277029E+02  0.20000027286E+02 0.  0.
         12    1    3    3    0    0 -0.18102805653E+02 -0.35104164740E+02  0.17989130045E+02  0.43400722971E+02  0.00000000000E+00 0. -1.
         11    1    4    4    0    0  0.32370551817E+01  0.64653598608E+00 -0.57490309584E+00  0.33506788657E+01  0.51100000000E-03 0. -1.
        -11    1    4    4    0    0  0.13788697645E+02  0.15732114095E+02 -0.14503963532E+02  0.25455697889E+02  0.51100000000E-03 0.  1.
        -12    1    4    4    0    0  0.10770528266E+01  0.18725514659E+02 -0.29102634173E+01  0.18980900274E+02  0.00000000000E+00 0.  1.
</event>
<event>
 8    1  0.4798632E-010  0.9118800E+02  0.7816164E-02  0.1184000E+00
        -11   -1    0    0    0    0  0.00000000000E+00  0.00000000000E+00  0.45593999997E+02  0.45594000000E+02  0.51100000000E-03 0. -1.
         11   -1    0    0    0    0 -0.00000000000E+00 -0.00000000000E+00 -0.45593999997E+02  0.45594000000E+02  0.51100000000E-03 0.  1.
         23    2    1    2    0    0  0.00000000000E+00  0.88817841970E-15 -0.71054273576E-14  0.91188000000E+02  0.91188000000E+02 0.  0.
    9900012    2    3    3    0    0 -0.49614855839E+01  0.51756303767E+01 -0.42804432088E+02  0.47787275405E+02  0.20000019881E+02 0.  0.
         12    1    3    3    0    0  0.49614855839E+01 -0.51756303767E+01  0.42804432088E+02  0.43400724595E+02  0.00000000000E+00 0. -1.
         11    1    4    4    0    0 -0.85179916752E+01 -0.77025480524E+00 -0.15648480482E+02  0.17833239086E+02  0.51100000000E-03 0. -1.
        -11    1    4    4    0    0  0.59080476259E+01  0.69628444504E+01 -0.15244997761E+02  0.17770655210E+02  0.51100000000E-03 0.  1.
        -12    1    4    4    0    0 -0.23515415345E+01 -0.10169592685E+01 -0.11910953846E+02  0.12183381109E+02  0.00000000000E+00 0.  1.
</event>
<event>
 8    1  0.4798632E-010  0.9118800E+02  0.7816164E-02  0.1184000E+00
        -11   -1    0    0    0    0  0.00000000000E+00  0.00000000000E+00  0.45593999997E+02  0.45594000000E+02  0.51100000000E-03 0. -1.
         11   -1    0    0    0    0 -0.00000000000E+00 -0.00000000000E+00 -0.45593999997E+02  0.45594000000E+02  0.51100000000E-03 0.  1.
         23    2    1    2    0    0  0.00000000000E+00  0.66613381478E-15  0.00000000000E+00  0.91188000000E+02  0.91188000000E+02 0.  0.
    9900012    2    3    3    0    0  0.40398722058E+02 -0.15678181952E+01  0.15783169887E+02  0.47787271326E+02  0.20000001282E+02 0.  0.
        -12    1    3    3    0    0 -0.40398722058E+02  0.15678181952E+01 -0.15783169887E+02  0.43400728674E+02  0.00000000000E+00 0.  1.
         11    1    4    4    0    0  0.20530163761E+02 -0.20539836224E+01  0.31472391763E+01  0.20871310152E+02  0.51100000000E-03 0. -1.
        -11    1    4    4    0    0  0.84863179244E+01  0.30373501069E+01  0.12296713735E+02  0.15246385032E+02  0.51100000000E-03 0.  1.
        -12    1    4    4    0    0  0.11382240373E+02 -0.25511846797E+01  0.33921697492E+00  0.11669576142E+02  0.00000000000E+00 0.  1.
</event>
<event>
 8    1  0.4798632E-010  0.9118800E+02  0.7816164E-02  0.1184000E+00
        -11   -1    0    0    0    0  0.00000000000E+00  0.00000000000E+00  0.45593999997E+02  0.45594000000E+02  0.51100000000E-03 0. -1.
         11   -1    0    0    0    0 -0.00000000000E+00 -0.00000000000E+00 -0.45593999997E+02  0.45594000000E+02  0.51100000000E-03 0.  1.
         23    2    1    2    0    0 -0.35527136788E-14  0.00000000000E+00  0.00000000000E+00  0.91188000000E+02  0.91188000000E+02 0.  0.
    9900012    2    3    3    0    0 -0.31154219852E+02  0.11409002614E+02 -0.27979858354E+02  0.47787271564E+02  0.20000002370E+02 0.  0.
         12    1    3    3    0    0  0.31154219852E+02 -0.11409002614E+02  0.27979858354E+02  0.43400728436E+02  0.00000000000E+00 0. -1.
         11    1    4    4    0    0 -0.86795575509E+01  0.61215194608E+00  0.82033685103E+00  0.87397026319E+01  0.51100000000E-03 0. -1.
        -11    1    4    4    0    0 -0.49065663605E+01  0.35947207041E+01 -0.12976216929E+02  0.14331036824E+02  0.51100000000E-03 0.  1.
         12    1    4    4    0    0 -0.17568095941E+02  0.72021299635E+01 -0.15823978276E+02  0.24716532109E+02  0.00000000000E+00 0. -1.
</event>
<event>
 8    1  0.4798632E-010  0.9118800E+02  0.7816164E-02  0.1184000E+00
        -11   -1    0    0    0    0  0.00000000000E+00  0.00000000000E+00  0.45593999997E+02  0.45594000000E+02  0.51100000000E-03 0. -1.
         11   -1    0    0    0    0 -0.00000000000E+00 -0.00000000000E+00 -0.45593999997E+02  0.45594000000E+02  0.51100000000E-03 0.  1.
         23    2    1    2    0    0  0.00000000000E+00  0.17763568394E-14  0.00000000000E+00  0.91188000000E+02  0.91188000000E+02 0.  0.
    9900012    2    3    3    0    0 -0.23070280068E+02 -0.47381835447E+01 -0.36454559647E+02  0.47787272762E+02  0.20000007833E+02 0.  0.
         12    1    3    3    0    0  0.23070280068E+02  0.47381835447E+01  0.36454559647E+02  0.43400727238E+02  0.00000000000E+00 0. -1.
         11    1    4    4    0    0 -0.18432075458E+02  0.24019009369E+01 -0.24482011833E+02  0.30738891286E+02  0.51100000000E-03 0. -1.
        -11    1    4    4    0    0 -0.63726148565E+01 -0.28655349368E+01 -0.95638826428E+01  0.11844381033E+02  0.51100000000E-03 0.  1.
         12    1    4    4    0    0  0.17344102469E+01 -0.42745495447E+01 -0.24086651707E+01  0.52040004439E+01  0.00000000000E+00 0. -1.
</event>
<event>
 8    1  0.4798632E-010  0.9118800E+02  0.7816164E-02  0.1184000E+00
        -11   -1    0    0    0    0  0.00000000000E+00  0.00000000000E+00  0.45593999997E+02  0.45594000000E+02  0.51100000000E-03 0. -1.
         11   -1    0    0    0    0 -0.00000000000E+00 -0.00000000000E+00 -0.45593999997E+02  0.45594000000E+02  0.51100000000E-03 0.  1.
         23    2    1    2    0    0  0.00000000000E+00  0.17763568394E-14  0.00000000000E+00  0.91188000000E+02  0.91188000000E+02 0.  0.
    9900012    2    3    3    0    0 -0.19164201309E+02  0.14898198987E+02  0.35977773477E+02  0.47787272711E+02  0.20000007597E+02 0.  0.
        -12    1    3    3    0    0  0.19164201309E+02 -0.14898198987E+02 -0.35977773477E+02  0.43400727289E+02  0.00000000000E+00 0.  1.
         11    1    4    4    0    0 -0.18006463930E+02  0.14948121511E+02  0.33558373043E+02  0.40912632298E+02  0.51100000000E-03 0. -1.
        -11    1    4    4    0    0 -0.20551512666E+01 -0.12055450218E+01  0.40406193078E+01  0.46907984587E+01  0.51100000000E-03 0.  1.
         12    1    4    4    0    0  0.89741388755E+00  0.11556224986E+01 -0.16212188738E+01  0.21838419544E+01  0.00000000000E+00 0. -1.
</event>
<event>
 8    1  0.4798632E-010  0.9118800E+02  0.7816164E-02  0.1184000E+00
        -11   -1    0    0    0    0  0.00000000000E+00  0.00000000000E+00  0.45593999997E+02  0.45594000000E+02  0.51100000000E-03 0. -1.
         11   -1    0    0    0    0 -0.00000000000E+00 -0.00000000000E+00 -0.45593999997E+02  0.45594000000E+02  0.51100000000E-03 0.  1.
         23    2    1    2    0    0  0.00000000000E+00  0.44408920985E-15  0.00000000000E+00  0.91188000000E+02  0.91188000000E+02 0.  0.
    9900012    2    3    3    0    0 -0.41760298152E+02 -0.25849094795E+01  0.11533368629E+02  0.47787275920E+02  0.20000022229E+02 0.  0.
        -12    1    3    3    0    0  0.41760298152E+02  0.25849094795E+01 -0.11533368629E+02  0.43400724080E+02  0.00000000000E+00 0.  1.
         11    1    4    4    0    0 -0.15598848783E+02  0.48624762612E+01 -0.33354806823E+00  0.16342552228E+02  0.51100000000E-03 0.  1.
        -11    1    4    4    0    0 -0.19502886091E+02 -0.86825201834E+01  0.12336349609E+02  0.24656322608E+02  0.51100000000E-03 0. -1.
        -12    1    4    4    0    0 -0.66585632775E+01  0.12351344427E+01 -0.46943291213E+00  0.67884010836E+01  0.00000000000E+00 0.  1.
</event>
<event>
 8    1  0.4798632E-010  0.9118800E+02  0.7816164E-02  0.1184000E+00
        -11   -1    0    0    0    0  0.00000000000E+00  0.00000000000E+00  0.45593999997E+02  0.45594000000E+02  0.51100000000E-03 0. -1.
         11   -1    0    0    0    0 -0.00000000000E+00 -0.00000000000E+00 -0.45593999997E+02  0.45594000000E+02  0.51100000000E-03 0.  1.
         23    2    1    2    0    0  0.00000000000E+00  0.48572257327E-15  0.00000000000E+00  0.91188000000E+02  0.91188000000E+02 0.  0.
    9900012    2    3    3    0    0 -0.27886431822E+02  0.65422228904E-01  0.33256074959E+02  0.47787264044E+02  0.19999968083E+02 0.  0.
        -12    1    3    3    0    0  0.27886431822E+02 -0.65422228904E-01 -0.33256074959E+02  0.43400735956E+02  0.00000000000E+00 0.  1.
         11    1    4    4    0    0 -0.69077409140E+01 -0.15485026640E+01  0.43183292777E+01  0.82923285660E+01  0.51100000000E-03 0. -1.
        -11    1    4    4    0    0 -0.21134654808E+02  0.32163304170E+01  0.16635986544E+02  0.27088271702E+02  0.51100000000E-03 0.  1.
        -12    1    4    4    0    0  0.15596390016E+00 -0.16024055241E+01  0.12301759137E+02  0.12406663776E+02  0.00000000000E+00 0.  1.
</event>
<event>
 8    1  0.4798632E-010  0.9118800E+02  0.7816164E-02  0.1184000E+00
        -11   -1    0    0    0    0  0.00000000000E+00  0.00000000000E+00  0.45593999997E+02  0.45594000000E+02  0.51100000000E-03 0. -1.
         11   -1    0    0    0    0 -0.00000000000E+00 -0.00000000000E+00 -0.45593999997E+02  0.45594000000E+02  0.51100000000E-03 0.  1.
         23    2    1    2    0    0  0.00000000000E+00  0.71054273576E-14  0.00000000000E+00  0.91188000000E+02  0.91188000000E+02 0.  0.
    9900012    2    3    3    0    0 -0.26715379406E+02 -0.33098424256E+02 -0.86259141187E+01  0.47787267525E+02  0.19999983953E+02 0.  0.
         12    1    3    3    0    0  0.26715379406E+02  0.33098424256E+02  0.86259141187E+01  0.43400732475E+02  0.00000000000E+00 0. -1.
         11    1    4    4    0    0 -0.88553565066E+01 -0.45930101061E+01  0.39791639846E+01  0.10739964012E+02  0.51100000000E-03 0. -1.
        -11    1    4    4    0    0 -0.11186388339E+02 -0.18734080879E+02 -0.12635883247E+02  0.25214412865E+02  0.51100000000E-03 0.  1.
         12    1    4    4    0    0 -0.66736345604E+01 -0.97713332706E+01  0.30805143547E-01  0.11832890648E+02  0.00000000000E+00 0. -1.
</event>
<event>
 8    1  0.4798632E-010  0.9118800E+02  0.7816164E-02  0.1184000E+00
        -11   -1    0    0    0    0  0.00000000000E+00  0.00000000000E+00  0.45593999997E+02  0.45594000000E+02  0.51100000000E-03 0. -1.
         11   -1    0    0    0    0 -0.00000000000E+00 -0.00000000000E+00 -0.45593999997E+02  0.45594000000E+02  0.51100000000E-03 0.  1.
         23    2    1    2    0    0 -0.17763568394E-14  0.00000000000E+00  0.00000000000E+00  0.91188000000E+02  0.91188000000E+02 0.  0.
    9900012    2    3    3    0    0 -0.10945438302E+02 -0.37834821953E+02 -0.18230379693E+02  0.47787272868E+02  0.20000008314E+02 0.  0.
         12    1    3    3    0    0  0.10945438302E+02  0.37834821953E+02  0.18230379693E+02  0.43400727132E+02  0.00000000000E+00 0. -1.
         11    1    4    4    0    0  0.10489753744E+00 -0.63376149406E+01 -0.10531014198E+02  0.12291404596E+02  0.51100000000E-03 0. -1.
        -11    1    4    4    0    0 -0.20635316603E+01 -0.47171449106E+01 -0.49034691930E+01  0.71101075525E+01  0.51100000000E-03 0.  1.
         12    1    4    4    0    0 -0.89868041793E+01 -0.26780062101E+02 -0.27958963024E+01  0.28385760720E+02  0.00000000000E+00 0. -1.
</event>
<event>
 8    1  0.6637186E-010  0.9118800E+02  0.7816164E-02  0.1184000E+00
        -11   -1    0    0    0    0  0.00000000000E+00  0.00000000000E+00  0.45593999997E+02  0.45594000000E+02  0.51100000000E-03 0. -1.
         11   -1    0    0    0    0 -0.00000000000E+00 -0.00000000000E+00 -0.45593999997E+02  0.45594000000E+02  0.51100000000E-03 0.  1.
         23    2    1    2    0    0  0.44408920985E-15  0.00000000000E+00  0.00000000000E+00  0.91188000000E+02  0.91188000000E+02 0.  0.
    9900012    2    3    3    0    0  0.28154943811E+01 -0.72782010459E+01 -0.42693375315E+02  0.47787268268E+02  0.19999987343E+02 0.  0.
         12    1    3    3    0    0 -0.28154943811E+01  0.72782010459E+01  0.42693375315E+02  0.43400731732E+02  0.00000000000E+00 0. -1.
         11    1    4    4    0    0 -0.46019715094E+00 -0.12962106017E+01  0.10273886838E+01  0.17168200577E+01  0.51100000000E-03 0. -1.
        -11    1    4    4    0    0  0.65058363808E+00 -0.62550460293E+01 -0.42823535958E+02  0.43282838309E+02  0.51100000000E-03 0.  1.
        -12    1    4    4    0    0  0.26251078940E+01  0.27305558515E+00 -0.89722804078E+00  0.27876099018E+01  0.00000000000E+00 0.  1.
</event>
<event>
 8    1  0.4798632E-010  0.9118800E+02  0.7816164E-02  0.1184000E+00
        -11   -1    0    0    0    0  0.00000000000E+00  0.00000000000E+00  0.45593999997E+02  0.45594000000E+02  0.51100000000E-03 0.  1.
         11   -1    0    0    0    0 -0.00000000000E+00 -0.00000000000E+00 -0.45593999997E+02  0.45594000000E+02  0.51100000000E-03 0. -1.
         23    2    1    2    0    0  0.17763568394E-14  0.71054273576E-14 -0.88817841970E-15  0.91188000000E+02  0.91188000000E+02 0.  0.
    9900012    2    3    3    0    0  0.10905570075E+02  0.41308862532E+02 -0.76336646816E+01  0.47787234813E+02  0.19999834806E+02 0.  0.
         12    1    3    3    0    0 -0.10905570075E+02 -0.41308862532E+02  0.76336646816E+01  0.43400765187E+02  0.00000000000E+00 0. -1.
         11    1    4    4    0    0 -0.86740701025E+00  0.10075768479E+02 -0.53151205070E+01  0.11424710571E+02  0.51100000000E-03 0. -1.
        -11    1    4    4    0    0  0.13320171002E+02  0.15473000716E+02 -0.21086162163E+01  0.20525276352E+02  0.51100000000E-03 0.  1.
        -12    1    4    4    0    0 -0.15471939172E+01  0.15760093337E+02 -0.20992795837E+00  0.15837247891E+02  0.00000000000E+00 0.  1.
</event>
<event>
 8    1  0.4798632E-010  0.9118800E+02  0.7816164E-02  0.1184000E+00
        -11   -1    0    0    0    0  0.00000000000E+00  0.00000000000E+00  0.45593999997E+02  0.45594000000E+02  0.51100000000E-03 0. -1.
         11   -1    0    0    0    0 -0.00000000000E+00 -0.00000000000E+00 -0.45593999997E+02  0.45594000000E+02  0.51100000000E-03 0.  1.
         23    2    1    2    0    0  0.00000000000E+00 -0.11102230246E-14  0.00000000000E+00  0.91188000000E+02  0.91188000000E+02 0.  0.
    9900012    2    3    3    0    0 -0.40042756431E+02  0.12521146400E+01  0.16692317223E+02  0.47787267427E+02  0.19999983506E+02 0.  0.
        -12    1    3    3    0    0  0.40042756431E+02 -0.12521146400E+01 -0.16692317223E+02  0.43400732573E+02  0.00000000000E+00 0.  1.
         11    1    4    4    0    0 -0.29669723062E+01  0.58029223315E+01 -0.49189251008E+00  0.65359613489E+01  0.51100000000E-03 0. -1.
        -11    1    4    4    0    0 -0.17721786611E+02 -0.17727611312E+01  0.64218412072E+01  0.18932629174E+02  0.51100000000E-03 0.  1.
         12    1    4    4    0    0 -0.19353997514E+02 -0.27780465603E+01  0.10762368526E+02  0.22318676904E+02  0.00000000000E+00 0. -1.
</event>
<event>
 8    1  0.4798632E-010  0.9118800E+02  0.7816164E-02  0.1184000E+00
        -11   -1    0    0    0    0  0.00000000000E+00  0.00000000000E+00  0.45593999997E+02  0.45594000000E+02  0.51100000000E-03 0. -1.
         11   -1    0    0    0    0 -0.00000000000E+00 -0.00000000000E+00 -0.45593999997E+02  0.45594000000E+02  0.51100000000E-03 0.  1.
         23    2    1    2    0    0  0.00000000000E+00  0.88817841970E-15  0.00000000000E+00  0.91188000000E+02  0.91188000000E+02 0.  0.
    9900012    2    3    3    0    0  0.30049648452E+02  0.76341360799E+01  0.30370410657E+02  0.47787271328E+02  0.20000001292E+02 0.  0.
        -12    1    3    3    0    0 -0.30049648452E+02 -0.76341360799E+01 -0.30370410657E+02  0.43400728672E+02  0.00000000000E+00 0.  1.
         11    1    4    4    0    0  0.39443829585E+01  0.72133243655E+01  0.11744840868E+02  0.14336369575E+02  0.51100000000E-03 0. -1.
        -11    1    4    4    0    0  0.25389181094E+02  0.10018493399E+01  0.14566029274E+02  0.29287939972E+02  0.51100000000E-03 0.  1.
        -12    1    4    4    0    0  0.71608439954E+00 -0.58103762552E+00  0.40595405156E+01  0.41629617807E+01  0.00000000000E+00 0.  1.
</event>
<event>
 8    1  0.4798632E-010  0.9118800E+02  0.7816164E-02  0.1184000E+00
        -11   -1    0    0    0    0  0.00000000000E+00  0.00000000000E+00  0.45593999997E+02  0.45594000000E+02  0.51100000000E-03 0. -1.
         11   -1    0    0    0    0 -0.00000000000E+00 -0.00000000000E+00 -0.45593999997E+02  0.45594000000E+02  0.51100000000E-03 0.  1.
         23    2    1    2    0    0 -0.71054273576E-14  0.35527136788E-14  0.00000000000E+00  0.91188000000E+02  0.91188000000E+02 0.  0.
    9900012    2    3    3    0    0 -0.34086062203E+02  0.20600904392E+02  0.17244305415E+02  0.47787274574E+02  0.20000016094E+02 0.  0.
        -12    1    3    3    0    0  0.34086062203E+02 -0.20600904392E+02 -0.17244305415E+02  0.43400725426E+02  0.00000000000E+00 0.  1.
         11    1    4    4    0    0 -0.34301806093E+02  0.20046323361E+02  0.16332880474E+02  0.42956163310E+02  0.51100000000E-03 0. -1.
        -11    1    4    4    0    0 -0.38085464250E-01  0.16116292008E+01 -0.14899296734E+01  0.21951514472E+01  0.51100000000E-03 0.  1.
        -12    1    4    4    0    0  0.25382935435E+00 -0.10570481696E+01  0.24013546140E+01  0.26359598169E+01  0.00000000000E+00 0.  1.
</event>
<event>
 8    1  0.4798632E-010  0.9118800E+02  0.7816164E-02  0.1184000E+00
        -11   -1    0    0    0    0  0.00000000000E+00  0.00000000000E+00  0.45593999997E+02  0.45594000000E+02  0.51100000000E-03 0. -1.
         11   -1    0    0    0    0 -0.00000000000E+00 -0.00000000000E+00 -0.45593999997E+02  0.45594000000E+02  0.51100000000E-03 0.  1.
         23    2    1    2    0    0 -0.88817841970E-15  0.00000000000E+00  0.00000000000E+00  0.91188000000E+02  0.91188000000E+02 0.  0.
    9900012    2    3    3    0    0 -0.57733512367E+01  0.24738288412E+02  0.35189608675E+02  0.47787273546E+02  0.20000011404E+02 0.  0.
        -12    1    3    3    0    0  0.57733512367E+01 -0.24738288412E+02 -0.35189608675E+02  0.43400726454E+02  0.00000000000E+00 0.  1.
         11    1    4    4    0    0  0.30155755524E+01  0.15469077659E+02  0.10624072375E+02  0.19006761260E+02  0.51100000000E-03 0. -1.
        -11    1    4    4    0    0 -0.80085927389E+01  0.10000404021E+02  0.24571538566E+02  0.27711119537E+02  0.51100000000E-03 0.  1.
        -12    1    4    4    0    0 -0.78033405013E+00 -0.73119326758E+00 -0.60022648842E-02  0.10693927490E+01  0.00000000000E+00 0.  1.
</event>
<event>
 8    1  0.4798632E-010  0.9118800E+02  0.7816164E-02  0.1184000E+00
        -11   -1    0    0    0    0  0.00000000000E+00  0.00000000000E+00  0.45593999997E+02  0.45594000000E+02  0.51100000000E-03 0. -1.
         11   -1    0    0    0    0 -0.00000000000E+00 -0.00000000000E+00 -0.45593999997E+02  0.45594000000E+02  0.51100000000E-03 0.  1.
         23    2    1    2    0    0  0.00000000000E+00  0.00000000000E+00 -0.88817841970E-15  0.91188000000E+02  0.91188000000E+02 0.  0.
    9900012    2    3    3    0    0 -0.42361505796E+02 -0.82004715794E+01  0.46776461196E+01  0.47787247926E+02  0.19999894591E+02 0.  0.
        -12    1    3    3    0    0  0.42361505796E+02  0.82004715794E+01 -0.46776461196E+01  0.43400752074E+02  0.00000000000E+00 0.  1.
         11    1    4    4    0    0 -0.19190458504E+02 -0.74353663956E+01 -0.22071808446E+01  0.20698551122E+02  0.51100000000E-03 0. -1.
        -11    1    4    4    0    0 -0.19240135333E+02 -0.38161767984E+01  0.91226711039E+01  0.21632594420E+02  0.51100000000E-03 0.  1.
        -12    1    4    4    0    0 -0.39309119591E+01  0.30510716147E+01 -0.22378441397E+01  0.54561023837E+01  0.00000000000E+00 0.  1.
</event>
<event>
 8    1  0.4798632E-010  0.9118800E+02  0.7816164E-02  0.1184000E+00
        -11   -1    0    0    0    0  0.00000000000E+00  0.00000000000E+00  0.45593999997E+02  0.45594000000E+02  0.51100000000E-03 0. -1.
         11   -1    0    0    0    0 -0.00000000000E+00 -0.00000000000E+00 -0.45593999997E+02  0.45594000000E+02  0.51100000000E-03 0.  1.
         23    2    1    2    0    0  0.17763568394E-14  0.00000000000E+00  0.00000000000E+00  0.91188000000E+02  0.91188000000E+02 0.  0.
    9900012    2    3    3    0    0 -0.11943295169E+02  0.16215508409E+02  0.38445264236E+02  0.47787270115E+02  0.19999995761E+02 0.  0.
        -12    1    3    3    0    0  0.11943295169E+02 -0.16215508409E+02 -0.38445264236E+02  0.43400729885E+02  0.00000000000E+00 0.  1.
         11    1    4    4    0    0 -0.13540253158E+02  0.90733268789E+01  0.31907721701E+02  0.35829686304E+02  0.51100000000E-03 0. -1.
        -11    1    4    4    0    0  0.37473981814E+01  0.27642901663E+01  0.50250097256E+01  0.68509135344E+01  0.51100000000E-03 0.  1.
         12    1    4    4    0    0 -0.21504401925E+01  0.43778913635E+01  0.15125328088E+01  0.51066702762E+01  0.00000000000E+00 0. -1.
</event>
<event>
 8    1  0.4798632E-010  0.9118800E+02  0.7816164E-02  0.1184000E+00
        -11   -1    0    0    0    0  0.00000000000E+00  0.00000000000E+00  0.45593999997E+02  0.45594000000E+02  0.51100000000E-03 0.  1.
         11   -1    0    0    0    0 -0.00000000000E+00 -0.00000000000E+00 -0.45593999997E+02  0.45594000000E+02  0.51100000000E-03 0. -1.
         23    2    1    2    0    0  0.35527136788E-14 -0.35527136788E-14  0.35527136788E-14  0.91188000000E+02  0.91188000000E+02 0.  0.
    9900012    2    3    3    0    0 -0.30998109990E+02  0.19824171438E+02 -0.23016140043E+02  0.47787270760E+02  0.19999998701E+02 0.  0.
         12    1    3    3    0    0  0.30998109990E+02 -0.19824171438E+02  0.23016140043E+02  0.43400729240E+02  0.00000000000E+00 0. -1.
         11    1    4    4    0    0 -0.29934159023E+01 -0.14061328898E+01 -0.47123797202E+01  0.57571061616E+01  0.51100000000E-03 0. -1.
        -11    1    4    4    0    0 -0.14341643303E+02  0.72417896833E+01 -0.13029312899E+01  0.16119053343E+02  0.51100000000E-03 0.  1.
        -12    1    4    4    0    0 -0.13663050784E+02  0.13988514644E+02 -0.17000829033E+02  0.25911111255E+02  0.00000000000E+00 0.  1.
</event>
<event>
 8    1  0.4798632E-010  0.9118800E+02  0.7816164E-02  0.1184000E+00
        -11   -1    0    0    0    0  0.00000000000E+00  0.00000000000E+00  0.45593999997E+02  0.45594000000E+02  0.51100000000E-03 0.  1.
         11   -1    0    0    0    0 -0.00000000000E+00 -0.00000000000E+00 -0.45593999997E+02  0.45594000000E+02  0.51100000000E-03 0. -1.
         23    2    1    2    0    0  0.35527136788E-14  0.00000000000E+00  0.00000000000E+00  0.91188000000E+02  0.91188000000E+02 0.  0.
    9900012    2    3    3    0    0 -0.28926141939E+02 -0.18747428074E+02  0.26371103723E+02  0.47787275831E+02  0.20000021823E+02 0.  0.
        -12    1    3    3    0    0  0.28926141939E+02  0.18747428074E+02 -0.26371103723E+02  0.43400724169E+02  0.00000000000E+00 0.  1.
         11    1    4    4    0    0 -0.11636431081E+02  0.65607093560E+00  0.14932135710E+02  0.18942165517E+02  0.51100000000E-03 0. -1.
        -11    1    4    4    0    0 -0.89367994507E+01 -0.13273515777E+02  0.56065516113E+01  0.16955412903E+02  0.51100000000E-03 0.  1.
         12    1    4    4    0    0 -0.83529114076E+01 -0.61299832325E+01  0.58324164018E+01  0.11889697410E+02  0.00000000000E+00 0. -1.
</event>
<event>
 8    1  0.4798632E-010  0.9118800E+02  0.7816164E-02  0.1184000E+00
        -11   -1    0    0    0    0  0.00000000000E+00  0.00000000000E+00  0.45593999997E+02  0.45594000000E+02  0.51100000000E-03 0. -1.
         11   -1    0    0    0    0 -0.00000000000E+00 -0.00000000000E+00 -0.45593999997E+02  0.45594000000E+02  0.51100000000E-03 0.  1.
         23    2    1    2    0    0  0.00000000000E+00  0.00000000000E+00  0.00000000000E+00  0.91188000000E+02  0.91188000000E+02 0.  0.
    9900012    2    3    3    0    0 -0.13850452563E+02 -0.16885845502E+02  0.37505487397E+02  0.47787211996E+02  0.19999730772E+02 0.  0.
        -12    1    3    3    0    0  0.13850452563E+02  0.16885845502E+02 -0.37505487397E+02  0.43400788004E+02  0.00000000000E+00 0.  1.
         11    1    4    4    0    0 -0.20072964972E+01 -0.10273840283E+02  0.24810364409E+02  0.26928334813E+02  0.51100000000E-03 0. -1.
        -11    1    4    4    0    0  0.24549291814E+00  0.15132845985E+01  0.29781683531E+01  0.33495946097E+01  0.51100000000E-03 0.  1.
         12    1    4    4    0    0 -0.12088648984E+02 -0.81252898179E+01  0.97169546342E+01  0.17509282574E+02  0.00000000000E+00 0. -1.
</event>
<event>
 8    1  0.4798632E-010  0.9118800E+02  0.7816164E-02  0.1184000E+00
        -11   -1    0    0    0    0  0.00000000000E+00  0.00000000000E+00  0.45593999997E+02  0.45594000000E+02  0.51100000000E-03 0. -1.
         11   -1    0    0    0    0 -0.00000000000E+00 -0.00000000000E+00 -0.45593999997E+02  0.45594000000E+02  0.51100000000E-03 0.  1.
         23    2    1    2    0    0  0.00000000000E+00  0.00000000000E+00  0.00000000000E+00  0.91188000000E+02  0.91188000000E+02 0.  0.
    9900012    2    3    3    0    0 -0.18421463720E+02  0.18470641768E+02  0.34685863454E+02  0.47787262029E+02  0.19999958894E+02 0.  0.
        -12    1    3    3    0    0  0.18421463720E+02 -0.18470641768E+02 -0.34685863454E+02  0.43400737971E+02  0.00000000000E+00 0.  1.
         11    1    4    4    0    0 -0.13028691773E+02  0.15944654042E+02  0.27782533627E+02  0.34581034930E+02  0.51100000000E-03 0. -1.
        -11    1    4    4    0    0 -0.62657754913E+00 -0.98080105160E+00 -0.21184080321E+01  0.24170690887E+01  0.51100000000E-03 0.  1.
        -12    1    4    4    0    0 -0.47661943970E+01  0.35067887769E+01  0.90217378595E+01  0.10789158010E+02  0.00000000000E+00 0.  1.
</event>
<event>
 8    1  0.5472750E-010  0.9118800E+02  0.7816164E-02  0.1184000E+00
        -11   -1    0    0    0    0  0.00000000000E+00  0.00000000000E+00  0.45593999997E+02  0.45594000000E+02  0.51100000000E-03 0. -1.
         11   -1    0    0    0    0 -0.00000000000E+00 -0.00000000000E+00 -0.45593999997E+02  0.45594000000E+02  0.51100000000E-03 0.  1.
         23    2    1    2    0    0  0.00000000000E+00 -0.11102230246E-15  0.00000000000E+00  0.91188000000E+02  0.91188000000E+02 0.  0.
    9900012    2    3    3    0    0 -0.33335908712E+02  0.84965917415E+00 -0.27778024269E+02  0.47787270022E+02  0.19999995339E+02 0.  0.
         12    1    3    3    0    0  0.33335908712E+02 -0.84965917415E+00  0.27778024269E+02  0.43400729978E+02  0.00000000000E+00 0. -1.
         11    1    4    4    0    0 -0.63739046145E+01  0.10574904994E+00  0.95112170501E+00  0.64453452704E+01  0.51100000000E-03 0. -1.
        -11    1    4    4    0    0 -0.11808351244E+02  0.26350630708E+01 -0.20976397149E+02  0.24215489962E+02  0.51100000000E-03 0.  1.
        -12    1    4    4    0    0 -0.15153652853E+02 -0.18911529466E+01 -0.77527488241E+01  0.17126434789E+02  0.00000000000E+00 0.  1.
</event>
<event>
 8    1  0.4798632E-010  0.9118800E+02  0.7816164E-02  0.1184000E+00
        -11   -1    0    0    0    0  0.00000000000E+00  0.00000000000E+00  0.45593999997E+02  0.45594000000E+02  0.51100000000E-03 0. -1.
         11   -1    0    0    0    0 -0.00000000000E+00 -0.00000000000E+00 -0.45593999997E+02  0.45594000000E+02  0.51100000000E-03 0.  1.
         23    2    1    2    0    0  0.00000000000E+00  0.35527136788E-14  0.35527136788E-14  0.91188000000E+02  0.91188000000E+02 0.  0.
    9900012    2    3    3    0    0 -0.18183058216E+02  0.29268138120E+02  0.26388960860E+02  0.47787253804E+02  0.19999921394E+02 0.  0.
        -12    1    3    3    0    0  0.18183058216E+02 -0.29268138120E+02 -0.26388960860E+02  0.43400746196E+02  0.00000000000E+00 0.  1.
         11    1    4    4    0    0  0.22365123214E+01  0.54914662690E+01  0.62102818994E+01  0.85863723818E+01  0.51100000000E-03 0. -1.
        -11    1    4    4    0    0 -0.29153311663E+01  0.10018554309E+02  0.23929711060E+01  0.10704994032E+02  0.51100000000E-03 0.  1.
         12    1    4    4    0    0 -0.17504239371E+02  0.13758117542E+02  0.17785707855E+02  0.28495887390E+02  0.00000000000E+00 0. -1.
</event>
<event>
 8    1  0.4798632E-010  0.9118800E+02  0.7816164E-02  0.1184000E+00
        -11   -1    0    0    0    0  0.00000000000E+00  0.00000000000E+00  0.45593999997E+02  0.45594000000E+02  0.51100000000E-03 0. -1.
         11   -1    0    0    0    0 -0.00000000000E+00 -0.00000000000E+00 -0.45593999997E+02  0.45594000000E+02  0.51100000000E-03 0.  1.
         23    2    1    2    0    0  0.88817841970E-15  0.00000000000E+00  0.71054273576E-14  0.91188000000E+02  0.91188000000E+02 0.  0.
    9900012    2    3    3    0    0 -0.35614475437E+01  0.10783822475E+02 -0.41888527274E+02  0.47787268982E+02  0.19999990595E+02 0.  0.
         12    1    3    3    0    0  0.35614475437E+01 -0.10783822475E+02  0.41888527274E+02  0.43400731018E+02  0.00000000000E+00 0. -1.
         11    1    4    4    0    0 -0.26398507989E+01 -0.27599977622E+01 -0.10867820680E+01  0.39708305696E+01  0.51100000000E-03 0. -1.
        -11    1    4    4    0    0 -0.13496687498E+01  0.11923174101E+02 -0.40326900593E+02  0.42074251010E+02  0.51100000000E-03 0.  1.
         12    1    4    4    0    0  0.42807200501E+00  0.16206461354E+01 -0.47484461281E+00  0.17421874020E+01  0.00000000000E+00 0. -1.
</event>
<event>
 8    1  0.4798632E-010  0.9118800E+02  0.7816164E-02  0.1184000E+00
        -11   -1    0    0    0    0  0.00000000000E+00  0.00000000000E+00  0.45593999997E+02  0.45594000000E+02  0.51100000000E-03 0.  1.
         11   -1    0    0    0    0 -0.00000000000E+00 -0.00000000000E+00 -0.45593999997E+02  0.45594000000E+02  0.51100000000E-03 0. -1.
         23    2    1    2    0    0  0.00000000000E+00  0.00000000000E+00  0.17763568394E-14  0.91188000000E+02  0.91188000000E+02 0.  0.
    9900012    2    3    3    0    0  0.35813220635E+02 -0.23018917988E+02  0.84359862626E+01  0.47787271645E+02  0.20000002736E+02 0.  0.
         12    1    3    3    0    0 -0.35813220635E+02  0.23018917988E+02 -0.84359862626E+01  0.43400728355E+02  0.00000000000E+00 0. -1.
         11    1    4    4    0    0  0.81696032409E+01 -0.79049271077E+01  0.39988179463E+01  0.12050760761E+02  0.51100000000E-03 0. -1.
        -11    1    4    4    0    0  0.66162242158E+01 -0.11344982146E+02 -0.23077362675E+01  0.13334492480E+02  0.51100000000E-03 0.  1.
        -12    1    4    4    0    0  0.21027393178E+02 -0.37690087345E+01  0.67449045838E+01  0.22402018404E+02  0.00000000000E+00 0.  1.
</event>
<event>
 8    1  0.4798632E-010  0.9118800E+02  0.7816164E-02  0.1184000E+00
        -11   -1    0    0    0    0  0.00000000000E+00  0.00000000000E+00  0.45593999997E+02  0.45594000000E+02  0.51100000000E-03 0. -1.
         11   -1    0    0    0    0 -0.00000000000E+00 -0.00000000000E+00 -0.45593999997E+02  0.45594000000E+02  0.51100000000E-03 0.  1.
         23    2    1    2    0    0  0.00000000000E+00  0.17763568394E-14  0.00000000000E+00  0.91188000000E+02  0.91188000000E+02 0.  0.
    9900012    2    3    3    0    0  0.16041327163E+02  0.14268508460E+02 -0.37718813709E+02  0.47787269378E+02  0.19999992404E+02 0.  0.
         12    1    3    3    0    0 -0.16041327163E+02 -0.14268508460E+02  0.37718813709E+02  0.43400730622E+02  0.00000000000E+00 0. -1.
         11    1    4    4    0    0 -0.23339003944E+01 -0.49847481576E+00 -0.33822229817E-01  0.23867786653E+01  0.51100000000E-03 0. -1.
        -11    1    4    4    0    0  0.19332193496E+02  0.13462519236E+02 -0.36281257022E+02  0.43258556852E+02  0.51100000000E-03 0.  1.
        -12    1    4    4    0    0 -0.95696593839E+00  0.13044640401E+01 -0.14037344579E+01  0.21419338616E+01  0.00000000000E+00 0.  1.
</event>
<event>
 8    1  0.4798632E-010  0.9118800E+02  0.7816164E-02  0.1184000E+00
        -11   -1    0    0    0    0  0.00000000000E+00  0.00000000000E+00  0.45593999997E+02  0.45594000000E+02  0.51100000000E-03 0. -1.
         11   -1    0    0    0    0 -0.00000000000E+00 -0.00000000000E+00 -0.45593999997E+02  0.45594000000E+02  0.51100000000E-03 0.  1.
         23    2    1    2    0    0  0.35527136788E-14  0.00000000000E+00 -0.35527136788E-14  0.91188000000E+02  0.91188000000E+02 0.  0.
    9900012    2    3    3    0    0 -0.29862781605E+02 -0.43409757021E+01 -0.31192844389E+02  0.47787270326E+02  0.19999996723E+02 0.  0.
         12    1    3    3    0    0  0.29862781605E+02  0.43409757021E+01  0.31192844389E+02  0.43400729674E+02  0.00000000000E+00 0. -1.
         11    1    4    4    0    0 -0.43180060212E+00 -0.60400099175E+00 -0.11378909129E+02  0.11403106690E+02  0.51100000000E-03 0. -1.
        -11    1    4    4    0    0 -0.11066293992E+02  0.16856513851E+01 -0.92085108865E+01  0.14494859652E+02  0.51100000000E-03 0.  1.
         12    1    4    4    0    0 -0.18364687010E+02 -0.54226260955E+01 -0.10605424373E+02  0.21889303984E+02  0.00000000000E+00 0. -1.
</event>
<event>
 8    1  0.4798632E-010  0.9118800E+02  0.7816164E-02  0.1184000E+00
        -11   -1    0    0    0    0  0.00000000000E+00  0.00000000000E+00  0.45593999997E+02  0.45594000000E+02  0.51100000000E-03 0. -1.
         11   -1    0    0    0    0 -0.00000000000E+00 -0.00000000000E+00 -0.45593999997E+02  0.45594000000E+02  0.51100000000E-03 0.  1.
         23    2    1    2    0    0  0.00000000000E+00  0.00000000000E+00  0.00000000000E+00  0.91188000000E+02  0.91188000000E+02 0.  0.
    9900012    2    3    3    0    0  0.49640486687E+01  0.18938589341E+02  0.38733853021E+02  0.47787270568E+02  0.19999997827E+02 0.  0.
        -12    1    3    3    0    0 -0.49640486687E+01 -0.18938589341E+02 -0.38733853021E+02  0.43400729432E+02  0.00000000000E+00 0.  1.
         11    1    4    4    0    0 -0.32279617817E+01  0.57159552870E+01  0.61990542582E+01  0.90288513148E+01  0.51100000000E-03 0. -1.
        -11    1    4    4    0    0  0.16649002396E+01 -0.24728193091E+01  0.10581340212E+02  0.10993247431E+02  0.51100000000E-03 0.  1.
        -12    1    4    4    0    0  0.65271102108E+01  0.15695453363E+02  0.21953458551E+02  0.27765171822E+02  0.00000000000E+00 0.  1.
</event>
<event>
 8    1  0.4798632E-010  0.9118800E+02  0.7816164E-02  0.1184000E+00
        -11   -1    0    0    0    0  0.00000000000E+00  0.00000000000E+00  0.45593999997E+02  0.45594000000E+02  0.51100000000E-03 0. -1.
         11   -1    0    0    0    0 -0.00000000000E+00 -0.00000000000E+00 -0.45593999997E+02  0.45594000000E+02  0.51100000000E-03 0.  1.
         23    2    1    2    0    0  0.35527136788E-14  0.35527136788E-14 -0.35527136788E-14  0.91188000000E+02  0.91188000000E+02 0.  0.
    9900012    2    3    3    0    0  0.18849440244E+02  0.29865399914E+02 -0.25226548243E+02  0.47787282888E+02  0.20000054000E+02 0.  0.
         12    1    3    3    0    0 -0.18849440244E+02 -0.29865399914E+02  0.25226548243E+02  0.43400717112E+02  0.00000000000E+00 0. -1.
         11    1    4    4    0    0 -0.21328441553E-01 -0.10484849616E+01 -0.14402465907E+01  0.17815965089E+01  0.51100000000E-03 0. -1.
        -11    1    4    4    0    0  0.10808642490E+02  0.10283949868E+02 -0.22059594090E+01  0.15081532898E+02  0.51100000000E-03 0.  1.
        -12    1    4    4    0    0  0.80621261958E+01  0.20629935008E+02 -0.21580342243E+02  0.30924153482E+02  0.00000000000E+00 0.  1.
</event>
<event>
 8    1  0.4798632E-010  0.9118800E+02  0.7816164E-02  0.1184000E+00
        -11   -1    0    0    0    0  0.00000000000E+00  0.00000000000E+00  0.45593999997E+02  0.45594000000E+02  0.51100000000E-03 0.  1.
         11   -1    0    0    0    0 -0.00000000000E+00 -0.00000000000E+00 -0.45593999997E+02  0.45594000000E+02  0.51100000000E-03 0. -1.
         23    2    1    2    0    0  0.00000000000E+00  0.00000000000E+00  0.00000000000E+00  0.91188000000E+02  0.91188000000E+02 0.  0.
    9900012    2    3    3    0    0 -0.36740103243E+02  0.76473005272E+01  0.21801536861E+02  0.47787269578E+02  0.19999993315E+02 0.  0.
        -12    1    3    3    0    0  0.36740103243E+02 -0.76473005272E+01 -0.21801536861E+02  0.43400730422E+02  0.00000000000E+00 0.  1.
         11    1    4    4    0    0 -0.34012593228E+02  0.63564333131E+01  0.18343840398E+02  0.39163212629E+02  0.51100000000E-03 0. -1.
        -11    1    4    4    0    0  0.10301208801E+01  0.31238866682E+01  0.29391011809E+01  0.44111373767E+01  0.51100000000E-03 0.  1.
         12    1    4    4    0    0 -0.37576308948E+01 -0.18330194542E+01  0.51859528149E+00  0.42129195728E+01  0.00000000000E+00 0. -1.
</event>
<event>
 8    1  0.4798632E-010  0.9118800E+02  0.7816164E-02  0.1184000E+00
        -11   -1    0    0    0    0  0.00000000000E+00  0.00000000000E+00  0.45593999997E+02  0.45594000000E+02  0.51100000000E-03 0.  1.
         11   -1    0    0    0    0 -0.00000000000E+00 -0.00000000000E+00 -0.45593999997E+02  0.45594000000E+02  0.51100000000E-03 0. -1.
         23    2    1    2    0    0  0.35527136788E-14 -0.71054273576E-14 -0.17763568394E-14  0.91188000000E+02  0.91188000000E+02 0.  0.
    9900012    2    3    3    0    0  0.26243804094E+02 -0.33639919974E+02  0.79524564016E+01  0.47787273831E+02  0.20000012704E+02 0.  0.
        -12    1    3    3    0    0 -0.26243804094E+02  0.33639919974E+02 -0.79524564016E+01  0.43400726169E+02  0.00000000000E+00 0.  1.
         11    1    4    4    0    0  0.23971898902E+01  0.24963359626E+01 -0.23097685148E+00  0.34686543753E+01  0.51100000000E-03 0.  1.
        -11    1    4    4    0    0  0.91436288742E+01 -0.14841149837E+02  0.99091791020E+00  0.17459885339E+02  0.51100000000E-03 0. -1.
         12    1    4    4    0    0  0.14702985330E+02 -0.21295106100E+02  0.71925153428E+01  0.26858734117E+02  0.00000000000E+00 0. -1.
</event>
<event>
 8    1  0.4798632E-010  0.9118800E+02  0.7816164E-02  0.1184000E+00
        -11   -1    0    0    0    0  0.00000000000E+00  0.00000000000E+00  0.45593999997E+02  0.45594000000E+02  0.51100000000E-03 0. -1.
         11   -1    0    0    0    0 -0.00000000000E+00 -0.00000000000E+00 -0.45593999997E+02  0.45594000000E+02  0.51100000000E-03 0.  1.
         23    2    1    2    0    0 -0.17763568394E-14  0.35527136788E-14  0.00000000000E+00  0.91188000000E+02  0.91188000000E+02 0.  0.
    9900012    2    3    3    0    0  0.12845457313E+02 -0.22289850885E+02  0.34953963290E+02  0.47787276783E+02  0.20000026166E+02 0.  0.
        -12    1    3    3    0    0 -0.12845457313E+02  0.22289850885E+02 -0.34953963290E+02  0.43400723217E+02  0.00000000000E+00 0.  1.
         11    1    4    4    0    0  0.12103687450E+01 -0.11278561110E+02  0.10815455522E+02  0.15673066440E+02  0.51100000000E-03 0. -1.
        -11    1    4    4    0    0  0.32252653730E+01 -0.58005545886E+01  0.70055055631E+00  0.66737951425E+01  0.51100000000E-03 0.  1.
        -12    1    4    4    0    0  0.84098231948E+01 -0.52107351859E+01  0.23437957211E+02  0.25440415201E+02  0.00000000000E+00 0.  1.
</event>
<event>
 8    1  0.4798632E-010  0.9118800E+02  0.7816164E-02  0.1184000E+00
        -11   -1    0    0    0    0  0.00000000000E+00  0.00000000000E+00  0.45593999997E+02  0.45594000000E+02  0.51100000000E-03 0.  1.
         11   -1    0    0    0    0 -0.00000000000E+00 -0.00000000000E+00 -0.45593999997E+02  0.45594000000E+02  0.51100000000E-03 0. -1.
         23    2    1    2    0    0  0.35527136788E-14  0.00000000000E+00 -0.66613381478E-15  0.91188000000E+02  0.91188000000E+02 0.  0.
    9900012    2    3    3    0    0 -0.19038545626E+02  0.38975385927E+02  0.14410123249E+01  0.47787269082E+02  0.19999991052E+02 0.  0.
        -12    1    3    3    0    0  0.19038545626E+02 -0.38975385927E+02 -0.14410123249E+01  0.43400730918E+02  0.00000000000E+00 0.  1.
         11    1    4    4    0    0  0.18025355112E+01  0.11046625423E+02 -0.23107763829E+01  0.11428768755E+02  0.51100000000E-03 0. -1.
        -11    1    4    4    0    0 -0.83584266256E+01  0.58177084960E+01  0.40656052801E+01  0.10965316883E+02  0.51100000000E-03 0.  1.
         12    1    4    4    0    0 -0.12482654511E+02  0.22111052008E+02 -0.31381657227E+00  0.25393183443E+02  0.00000000000E+00 0. -1.
</event>
<event>
 8    1  0.4798632E-010  0.9118800E+02  0.7816164E-02  0.1184000E+00
        -11   -1    0    0    0    0  0.00000000000E+00  0.00000000000E+00  0.45593999997E+02  0.45594000000E+02  0.51100000000E-03 0. -1.
         11   -1    0    0    0    0 -0.00000000000E+00 -0.00000000000E+00 -0.45593999997E+02  0.45594000000E+02  0.51100000000E-03 0.  1.
         23    2    1    2    0    0  0.00000000000E+00 -0.44408920985E-15  0.00000000000E+00  0.91188000000E+02  0.91188000000E+02 0.  0.
    9900012    2    3    3    0    0  0.18281438085E+02 -0.32997272248E+01 -0.39224031465E+02  0.47787264724E+02  0.19999971181E+02 0.  0.
         12    1    3    3    0    0 -0.18281438085E+02  0.32997272248E+01  0.39224031465E+02  0.43400735276E+02  0.00000000000E+00 0. -1.
         11    1    4    4    0    0  0.58519619006E+01  0.52454828019E+01 -0.83568459516E+01  0.11471591975E+02  0.51100000000E-03 0. -1.
        -11    1    4    4    0    0  0.13212409000E+02 -0.78534540395E+01 -0.31531083352E+02  0.35077823614E+02  0.51100000000E-03 0.  1.
         12    1    4    4    0    0 -0.78293281553E+00 -0.69175598714E+00  0.66389783891E+00  0.12378491345E+01  0.00000000000E+00 0. -1.
</event>
<event>
 8    1  0.4798632E-010  0.9118800E+02  0.7816164E-02  0.1184000E+00
        -11   -1    0    0    0    0  0.00000000000E+00  0.00000000000E+00  0.45593999997E+02  0.45594000000E+02  0.51100000000E-03 0. -1.
         11   -1    0    0    0    0 -0.00000000000E+00 -0.00000000000E+00 -0.45593999997E+02  0.45594000000E+02  0.51100000000E-03 0.  1.
         23    2    1    2    0    0  0.00000000000E+00 -0.35527136788E-14  0.71054273576E-14  0.91188000000E+02  0.91188000000E+02 0.  0.
    9900012    2    3    3    0    0 -0.15061514899E+02  0.20093942118E+02 -0.35397846073E+02  0.47787271348E+02  0.20000001386E+02 0.  0.
         12    1    3    3    0    0  0.15061514899E+02 -0.20093942118E+02  0.35397846073E+02  0.43400728652E+02  0.00000000000E+00 0. -1.
         11    1    4    4    0    0 -0.12358664833E+02  0.13089658275E+02 -0.16719721279E+02  0.24568777547E+02  0.51100000000E-03 0. -1.
        -11    1    4    4    0    0  0.35747886263E+01 -0.64549267137E+00 -0.31659085739E+01  0.48185840110E+01  0.51100000000E-03 0.  1.
        -12    1    4    4    0    0 -0.62776386921E+01  0.76497765140E+01 -0.15512216220E+02  0.18399909791E+02  0.00000000000E+00 0.  1.
</event>
<event>
 8    1  0.4798632E-010  0.9118800E+02  0.7816164E-02  0.1184000E+00
        -11   -1    0    0    0    0  0.00000000000E+00  0.00000000000E+00  0.45593999997E+02  0.45594000000E+02  0.51100000000E-03 0. -1.
         11   -1    0    0    0    0 -0.00000000000E+00 -0.00000000000E+00 -0.45593999997E+02  0.45594000000E+02  0.51100000000E-03 0.  1.
         23    2    1    2    0    0  0.88817841970E-15 -0.35527136788E-14 -0.71054273576E-14  0.91188000000E+02  0.91188000000E+02 0.  0.
    9900012    2    3    3    0    0  0.46714883291E+01 -0.27627027716E+02 -0.33144353817E+02  0.47787266670E+02  0.19999980055E+02 0.  0.
         12    1    3    3    0    0 -0.46714883291E+01  0.27627027716E+02  0.33144353817E+02  0.43400733330E+02  0.00000000000E+00 0. -1.
         11    1    4    4    0    0 -0.57628660656E+01 -0.33924497468E+01 -0.42459050717E+01  0.79213035994E+01  0.51100000000E-03 0. -1.
        -11    1    4    4    0    0  0.76121915914E+01 -0.11801163338E+02 -0.19482297796E+02  0.24016095532E+02  0.51100000000E-03 0.  1.
         12    1    4    4    0    0  0.28221628033E+01 -0.12433414631E+02 -0.94161509499E+01  0.15849867538E+02  0.00000000000E+00 0. -1.
</event>
<event>
 8    1  0.4798632E-010  0.9118800E+02  0.7816164E-02  0.1184000E+00
        -11   -1    0    0    0    0  0.00000000000E+00  0.00000000000E+00  0.45593999997E+02  0.45594000000E+02  0.51100000000E-03 0.  1.
         11   -1    0    0    0    0 -0.00000000000E+00 -0.00000000000E+00 -0.45593999997E+02  0.45594000000E+02  0.51100000000E-03 0. -1.
         23    2    1    2    0    0  0.00000000000E+00  0.16653345369E-15  0.00000000000E+00  0.91188000000E+02  0.91188000000E+02 0.  0.
    9900012    2    3    3    0    0  0.42599508465E+02 -0.25727126359E+00 -0.82969068646E+01  0.47787274505E+02  0.20000015777E+02 0.  0.
         12    1    3    3    0    0 -0.42599508465E+02  0.25727126359E+00  0.82969068646E+01  0.43400725495E+02  0.00000000000E+00 0. -1.
         11    1    4    4    0    0  0.10993629436E+02  0.39675444136E+01  0.48929808884E+01  0.12670539021E+02  0.51100000000E-03 0. -1.
        -11    1    4    4    0    0  0.24251926366E+02 -0.56962111538E+01 -0.87644108595E+01  0.26408666228E+02  0.51100000000E-03 0.  1.
        -12    1    4    4    0    0  0.73539526631E+01  0.14713954767E+01 -0.44254768935E+01  0.87080692553E+01  0.00000000000E+00 0.  1.
</event>
<event>
 8    1  0.6342654E-010  0.9118800E+02  0.7816164E-02  0.1184000E+00
        -11   -1    0    0    0    0  0.00000000000E+00  0.00000000000E+00  0.45593999997E+02  0.45594000000E+02  0.51100000000E-03 0. -1.
         11   -1    0    0    0    0 -0.00000000000E+00 -0.00000000000E+00 -0.45593999997E+02  0.45594000000E+02  0.51100000000E-03 0.  1.
         23    2    1    2    0    0 -0.88817841970E-15  0.00000000000E+00  0.00000000000E+00  0.91188000000E+02  0.91188000000E+02 0.  0.
    9900012    2    3    3    0    0 -0.48809230680E+01 -0.18703138439E+02 -0.38858624946E+02  0.47787268091E+02  0.19999986536E+02 0.  0.
         12    1    3    3    0    0  0.48809230680E+01  0.18703138439E+02  0.38858624946E+02  0.43400731909E+02  0.00000000000E+00 0. -1.
         11    1    4    4    0    0 -0.70748560637E-01  0.11580764239E+01  0.80963075166E+00  0.14147963025E+01  0.51100000000E-03 0. -1.
        -11    1    4    4    0    0 -0.66948411846E+01 -0.16374837686E+02 -0.38285387724E+02  0.42174958461E+02  0.51100000000E-03 0.  1.
        -12    1    4    4    0    0  0.18846666773E+01 -0.34863771772E+01 -0.13828679740E+01  0.41975133281E+01  0.00000000000E+00 0.  1.
</event>
<event>
 8    1  0.4798632E-010  0.9118800E+02  0.7816164E-02  0.1184000E+00
        -11   -1    0    0    0    0  0.00000000000E+00  0.00000000000E+00  0.45593999997E+02  0.45594000000E+02  0.51100000000E-03 0. -1.
         11   -1    0    0    0    0 -0.00000000000E+00 -0.00000000000E+00 -0.45593999997E+02  0.45594000000E+02  0.51100000000E-03 0.  1.
         23    2    1    2    0    0  0.35527136788E-14  0.35527136788E-14  0.71054273576E-14  0.91188000000E+02  0.91188000000E+02 0.  0.
    9900012    2    3    3    0    0 -0.15835414367E+02 -0.12540075746E+02 -0.38413655672E+02  0.47787276619E+02  0.20000025416E+02 0.  0.
         12    1    3    3    0    0  0.15835414367E+02  0.12540075746E+02  0.38413655672E+02  0.43400723381E+02  0.00000000000E+00 0. -1.
         11    1    4    4    0    0  0.37997883112E+01  0.42027164669E+00 -0.75380197244E+01  0.84520270405E+01  0.51100000000E-03 0. -1.
        -11    1    4    4    0    0 -0.15480896072E+02 -0.82041550118E+01 -0.18737821764E+02  0.25652919275E+02  0.51100000000E-03 0.  1.
         12    1    4    4    0    0 -0.41543066062E+01 -0.47561923813E+01 -0.12137814184E+02  0.13682330303E+02  0.00000000000E+00 0. -1.
</event>
<event>
 8    1  0.4798632E-010  0.9118800E+02  0.7816164E-02  0.1184000E+00
        -11   -1    0    0    0    0  0.00000000000E+00  0.00000000000E+00  0.45593999997E+02  0.45594000000E+02  0.51100000000E-03 0. -1.
         11   -1    0    0    0    0 -0.00000000000E+00 -0.00000000000E+00 -0.45593999997E+02  0.45594000000E+02  0.51100000000E-03 0.  1.
         23    2    1    2    0    0  0.00000000000E+00  0.00000000000E+00 -0.35527136788E-14  0.91188000000E+02  0.91188000000E+02 0.  0.
    9900012    2    3    3    0    0 -0.10149525042E+02  0.28060481279E+02 -0.31515390997E+02  0.47787270307E+02  0.19999996639E+02 0.  0.
         12    1    3    3    0    0  0.10149525042E+02 -0.28060481279E+02  0.31515390997E+02  0.43400729693E+02  0.00000000000E+00 0. -1.
         11    1    4    4    0    0 -0.94948897911E+01  0.11636858524E+02 -0.21224163992E+02  0.26000664335E+02  0.51100000000E-03 0. -1.
        -11    1    4    4    0    0  0.32243180904E+01  0.26476670737E+01 -0.22553746477E-01  0.41721549604E+01  0.51100000000E-03 0.  1.
         12    1    4    4    0    0 -0.38789533411E+01  0.13775955681E+02 -0.10268673259E+02  0.17614451012E+02  0.00000000000E+00 0. -1.
</event>
<event>
 8    1  0.4845274E-010  0.9118800E+02  0.7816164E-02  0.1184000E+00
        -11   -1    0    0    0    0  0.00000000000E+00  0.00000000000E+00  0.45593999997E+02  0.45594000000E+02  0.51100000000E-03 0. -1.
         11   -1    0    0    0    0 -0.00000000000E+00 -0.00000000000E+00 -0.45593999997E+02  0.45594000000E+02  0.51100000000E-03 0.  1.
         23    2    1    2    0    0  0.00000000000E+00  0.00000000000E+00 -0.35527136788E-14  0.91188000000E+02  0.91188000000E+02 0.  0.
    9900012    2    3    3    0    0 -0.27377242535E+02 -0.17182579212E+02  0.28963229315E+02  0.47787273168E+02  0.20000009683E+02 0.  0.
        -12    1    3    3    0    0  0.27377242535E+02  0.17182579212E+02 -0.28963229315E+02  0.43400726832E+02  0.00000000000E+00 0.  1.
         11    1    4    4    0    0 -0.20185042064E+02 -0.54074720904E+01  0.19884911404E+02  0.28845907497E+02  0.51100000000E-03 0.  1.
        -11    1    4    4    0    0  0.12770357623E+01 -0.36848025967E+01  0.54077198395E+01  0.66672351570E+01  0.51100000000E-03 0. -1.
        -12    1    4    4    0    0 -0.84692362333E+01 -0.80903045245E+01  0.36705980718E+01  0.12274130514E+02  0.00000000000E+00 0.  1.
</event>
<event>
 8    1  0.4798632E-010  0.9118800E+02  0.7816164E-02  0.1184000E+00
        -11   -1    0    0    0    0  0.00000000000E+00  0.00000000000E+00  0.45593999997E+02  0.45594000000E+02  0.51100000000E-03 0.  1.
         11   -1    0    0    0    0 -0.00000000000E+00 -0.00000000000E+00 -0.45593999997E+02  0.45594000000E+02  0.51100000000E-03 0. -1.
         23    2    1    2    0    0 -0.71054273576E-14  0.35527136788E-14  0.00000000000E+00  0.91188000000E+02  0.91188000000E+02 0.  0.
    9900012    2    3    3    0    0 -0.33482872525E+02  0.27067623644E+02 -0.54648111867E+01  0.47787272315E+02  0.20000005794E+02 0.  0.
        -12    1    3    3    0    0  0.33482872525E+02 -0.27067623644E+02  0.54648111867E+01  0.43400727685E+02  0.00000000000E+00 0.  1.
         11    1    4    4    0    0 -0.27704901127E+02  0.23052949609E+02 -0.39929431179E+01  0.36262151441E+02  0.51100000000E-03 0. -1.
        -11    1    4    4    0    0 -0.33220656777E+01 -0.26412795652E+01 -0.12606732407E+01  0.44273892295E+01  0.51100000000E-03 0.  1.
        -12    1    4    4    0    0 -0.24559057199E+01  0.66559536011E+01 -0.21119482812E+00  0.70977316447E+01  0.00000000000E+00 0.  1.
</event>
<event>
 8    1  0.4798632E-010  0.9118800E+02  0.7816164E-02  0.1184000E+00
        -11   -1    0    0    0    0  0.00000000000E+00  0.00000000000E+00  0.45593999997E+02  0.45594000000E+02  0.51100000000E-03 0. -1.
         11   -1    0    0    0    0 -0.00000000000E+00 -0.00000000000E+00 -0.45593999997E+02  0.45594000000E+02  0.51100000000E-03 0.  1.
         23    2    1    2    0    0  0.44408920985E-15  0.00000000000E+00  0.00000000000E+00  0.91188000000E+02  0.91188000000E+02 0.  0.
    9900012    2    3    3    0    0 -0.28359197360E+01  0.29603710569E+02 -0.31610147311E+02  0.47787268056E+02  0.19999986376E+02 0.  0.
         12    1    3    3    0    0  0.28359197360E+01 -0.29603710569E+02  0.31610147311E+02  0.43400731944E+02  0.00000000000E+00 0. -1.
         11    1    4    4    0    0 -0.14368914191E+01 -0.12979622982E+01 -0.88716508740E+00  0.21298885491E+01  0.51100000000E-03 0. -1.
        -11    1    4    4    0    0  0.15683314331E+01  0.25632625146E+02 -0.30117890627E+02  0.39580026168E+02  0.51100000000E-03 0.  1.
        -12    1    4    4    0    0 -0.29673597500E+01  0.52690477210E+01 -0.60509159708E+00  0.60773533395E+01  0.00000000000E+00 0.  1.
</event>
<event>
 8    1  0.4798632E-010  0.9118800E+02  0.7816164E-02  0.1184000E+00
        -11   -1    0    0    0    0  0.00000000000E+00  0.00000000000E+00  0.45593999997E+02  0.45594000000E+02  0.51100000000E-03 0.  1.
         11   -1    0    0    0    0 -0.00000000000E+00 -0.00000000000E+00 -0.45593999997E+02  0.45594000000E+02  0.51100000000E-03 0. -1.
         23    2    1    2    0    0  0.00000000000E+00 -0.35527136788E-14  0.35527136788E-14  0.91188000000E+02  0.91188000000E+02 0.  0.
    9900012    2    3    3    0    0 -0.49446647383E+01 -0.29050661748E+02  0.31862715440E+02  0.47787270829E+02  0.19999999017E+02 0.  0.
        -12    1    3    3    0    0  0.49446647383E+01  0.29050661748E+02 -0.31862715440E+02  0.43400729171E+02  0.00000000000E+00 0.  1.
         11    1    4    4    0    0  0.39418134472E+01 -0.63331555250E+00  0.24036235500E+01  0.46600845779E+01  0.51100000000E-03 0.  1.
        -11    1    4    4    0    0 -0.70590579433E+01 -0.27406966723E+02  0.23412972112E+02  0.36730632820E+02  0.51100000000E-03 0. -1.
         12    1    4    4    0    0 -0.18274202422E+01 -0.10103794727E+01  0.60461197782E+01  0.63965534307E+01  0.00000000000E+00 0. -1.
</event>
<event>
 8    1  0.4798632E-010  0.9118800E+02  0.7816164E-02  0.1184000E+00
        -11   -1    0    0    0    0  0.00000000000E+00  0.00000000000E+00  0.45593999997E+02  0.45594000000E+02  0.51100000000E-03 0.  1.
         11   -1    0    0    0    0 -0.00000000000E+00 -0.00000000000E+00 -0.45593999997E+02  0.45594000000E+02  0.51100000000E-03 0. -1.
         23    2    1    2    0    0  0.71054273576E-14  0.17763568394E-14  0.00000000000E+00  0.91188000000E+02  0.91188000000E+02 0.  0.
    9900012    2    3    3    0    0  0.39273264087E+02 -0.13364617159E+02 -0.12752300068E+02  0.47787269351E+02  0.19999992278E+02 0.  0.
         12    1    3    3    0    0 -0.39273264087E+02  0.13364617159E+02  0.12752300068E+02  0.43400730649E+02  0.00000000000E+00 0. -1.
         11    1    4    4    0    0 -0.14037279795E+01 -0.21084364820E+01  0.80596676967E-01  0.25342558522E+01  0.51100000000E-03 0. -1.
        -11    1    4    4    0    0  0.26393965941E+01  0.14319370498E+01  0.39687624390E+00  0.30289221036E+01  0.51100000000E-03 0.  1.
         12    1    4    4    0    0  0.38037595472E+02 -0.12688117727E+02 -0.13229772989E+02  0.42224091395E+02  0.00000000000E+00 0. -1.
</event>
<event>
 8    1  0.4798632E-010  0.9118800E+02  0.7816164E-02  0.1184000E+00
        -11   -1    0    0    0    0  0.00000000000E+00  0.00000000000E+00  0.45593999997E+02  0.45594000000E+02  0.51100000000E-03 0. -1.
         11   -1    0    0    0    0 -0.00000000000E+00 -0.00000000000E+00 -0.45593999997E+02  0.45594000000E+02  0.51100000000E-03 0.  1.
         23    2    1    2    0    0  0.44408920985E-15  0.00000000000E+00  0.00000000000E+00  0.91188000000E+02  0.91188000000E+02 0.  0.
    9900012    2    3    3    0    0 -0.28325468162E+01 -0.21451385325E+02  0.37622307767E+02  0.47787270795E+02  0.19999998862E+02 0.  0.
        -12    1    3    3    0    0  0.28325468162E+01  0.21451385325E+02 -0.37622307767E+02  0.43400729205E+02  0.00000000000E+00 0.  1.
         11    1    4    4    0    0  0.67958501839E+01 -0.80791124227E+01  0.21645500406E+02  0.24082842966E+02  0.51100000000E-03 0. -1.
        -11    1    4    4    0    0 -0.67017830964E+01 -0.12334883269E+02  0.10982317891E+02  0.17823426956E+02  0.51100000000E-03 0.  1.
         12    1    4    4    0    0 -0.29266139037E+01 -0.10373896328E+01  0.49944894705E+01  0.58810008725E+01  0.00000000000E+00 0. -1.
</event>
<event>
 8    1  0.4798632E-010  0.9118800E+02  0.7816164E-02  0.1184000E+00
        -11   -1    0    0    0    0  0.00000000000E+00  0.00000000000E+00  0.45593999997E+02  0.45594000000E+02  0.51100000000E-03 0. -1.
         11   -1    0    0    0    0 -0.00000000000E+00 -0.00000000000E+00 -0.45593999997E+02  0.45594000000E+02  0.51100000000E-03 0.  1.
         23    2    1    2    0    0  0.00000000000E+00  0.11102230246E-15  0.00000000000E+00  0.91188000000E+02  0.91188000000E+02 0.  0.
    9900012    2    3    3    0    0  0.39585123422E+01 -0.96659077346E+00  0.43209014623E+02  0.47787273481E+02  0.20000011109E+02 0.  0.
        -12    1    3    3    0    0 -0.39585123422E+01  0.96659077346E+00 -0.43209014623E+02  0.43400726519E+02  0.00000000000E+00 0.  1.
         11    1    4    4    0    0  0.10467673795E+02 -0.30657171154E+01  0.32362476629E+02  0.34151145075E+02  0.51100000000E-03 0. -1.
        -11    1    4    4    0    0 -0.38020874292E+01  0.14462128489E+01  0.98863711989E+01  0.10690544241E+02  0.51100000000E-03 0.  1.
         12    1    4    4    0    0 -0.27070740237E+01  0.65291349298E+00  0.96016679552E+00  0.29455841652E+01  0.00000000000E+00 0. -1.
</event>
<event>
 8    1  0.4798632E-010  0.9118800E+02  0.7816164E-02  0.1184000E+00
        -11   -1    0    0    0    0  0.00000000000E+00  0.00000000000E+00  0.45593999997E+02  0.45594000000E+02  0.51100000000E-03 0. -1.
         11   -1    0    0    0    0 -0.00000000000E+00 -0.00000000000E+00 -0.45593999997E+02  0.45594000000E+02  0.51100000000E-03 0.  1.
         23    2    1    2    0    0  0.88817841970E-15  0.44408920985E-15 -0.71054273576E-14  0.91188000000E+02  0.91188000000E+02 0.  0.
    9900012    2    3    3    0    0  0.26627519594E+01  0.29439958963E+01  0.43218811443E+02  0.47787273942E+02  0.20000013212E+02 0.  0.
        -12    1    3    3    0    0 -0.26627519594E+01 -0.29439958963E+01 -0.43218811443E+02  0.43400726058E+02  0.00000000000E+00 0.  1.
         11    1    4    4    0    0 -0.49854359466E+01  0.26858028051E+01  0.32353784911E+02  0.32845631469E+02  0.51100000000E-03 0. -1.
        -11    1    4    4    0    0  0.23815865305E+01  0.21857294880E+01  0.66314260846E+00  0.32998676000E+01  0.51100000000E-03 0.  1.
         12    1    4    4    0    0  0.52666013755E+01 -0.19275363968E+01  0.10201883924E+02  0.11641774873E+02  0.00000000000E+00 0. -1.
</event>
<event>
 8    1  0.4798632E-010  0.9118800E+02  0.7816164E-02  0.1184000E+00
        -11   -1    0    0    0    0  0.00000000000E+00  0.00000000000E+00  0.45593999997E+02  0.45594000000E+02  0.51100000000E-03 0.  1.
         11   -1    0    0    0    0 -0.00000000000E+00 -0.00000000000E+00 -0.45593999997E+02  0.45594000000E+02  0.51100000000E-03 0. -1.
         23    2    1    2    0    0  0.00000000000E+00  0.00000000000E+00  0.22204460493E-15  0.91188000000E+02  0.91188000000E+02 0.  0.
    9900012    2    3    3    0    0 -0.33382577936E+02 -0.27675920253E+02 -0.18083878891E+01  0.47787270303E+02  0.19999996620E+02 0.  0.
         12    1    3    3    0    0  0.33382577936E+02  0.27675920253E+02  0.18083878891E+01  0.43400729697E+02  0.00000000000E+00 0. -1.
         11    1    4    4    0    0 -0.11959462011E+02 -0.50472219549E+00 -0.17192156053E+01  0.12092939206E+02  0.51100000000E-03 0. -1.
        -11    1    4    4    0    0 -0.16466470236E+02 -0.23017510361E+02  0.31242718131E+01  0.28472995977E+02  0.51100000000E-03 0.  1.
         12    1    4    4    0    0 -0.49566456887E+01 -0.41536876962E+01 -0.32134440969E+01  0.72213351207E+01  0.00000000000E+00 0. -1.
</event>
<event>
 8    1  0.4798632E-010  0.9118800E+02  0.7816164E-02  0.1184000E+00
        -11   -1    0    0    0    0  0.00000000000E+00  0.00000000000E+00  0.45593999997E+02  0.45594000000E+02  0.51100000000E-03 0. -1.
         11   -1    0    0    0    0 -0.00000000000E+00 -0.00000000000E+00 -0.45593999997E+02  0.45594000000E+02  0.51100000000E-03 0.  1.
         23    2    1    2    0    0  0.00000000000E+00 -0.35527136788E-14 -0.71054273576E-14  0.91188000000E+02  0.91188000000E+02 0.  0.
    9900012    2    3    3    0    0 -0.63295144094E+01 -0.30165652823E+02 -0.30554770257E+02  0.47787270187E+02  0.19999996090E+02 0.  0.
         12    1    3    3    0    0  0.63295144094E+01  0.30165652823E+02  0.30554770257E+02  0.43400729813E+02  0.00000000000E+00 0. -1.
         11    1    4    4    0    0 -0.65566088951E+01 -0.21017809379E+02 -0.12299143036E+02  0.25219166342E+02  0.51100000000E-03 0. -1.
        -11    1    4    4    0    0 -0.27981111063E+01 -0.18982847079E+01 -0.87186238117E+00  0.34918555051E+01  0.51100000000E-03 0.  1.
         12    1    4    4    0    0  0.30252055919E+01 -0.72495587360E+01 -0.17383764839E+02  0.19076248340E+02  0.00000000000E+00 0. -1.
</event>
<event>
 8    1  0.4798632E-010  0.9118800E+02  0.7816164E-02  0.1184000E+00
        -11   -1    0    0    0    0  0.00000000000E+00  0.00000000000E+00  0.45593999997E+02  0.45594000000E+02  0.51100000000E-03 0. -1.
         11   -1    0    0    0    0 -0.00000000000E+00 -0.00000000000E+00 -0.45593999997E+02  0.45594000000E+02  0.51100000000E-03 0.  1.
         23    2    1    2    0    0  0.00000000000E+00 -0.11102230246E-15 -0.17763568394E-14  0.91188000000E+02  0.91188000000E+02 0.  0.
    9900012    2    3    3    0    0  0.41475470292E+02 -0.95530363096E+00  0.12747402557E+02  0.47787268291E+02  0.19999987446E+02 0.  0.
        -12    1    3    3    0    0 -0.41475470292E+02  0.95530363096E+00 -0.12747402557E+02  0.43400731709E+02  0.00000000000E+00 0.  1.
         11    1    4    4    0    0  0.18961381043E+02 -0.66492445913E+01 -0.14469592191E+01  0.20145473833E+02  0.51100000000E-03 0. -1.
        -11    1    4    4    0    0  0.21739491203E+02  0.43552628713E+01  0.13326571146E+02  0.25868345351E+02  0.51100000000E-03 0.  1.
         12    1    4    4    0    0  0.77459804570E+00  0.13386780890E+01  0.86779063047E+00  0.17734491075E+01  0.00000000000E+00 0. -1.
</event>
<event>
 8    1  0.4798632E-010  0.9118800E+02  0.7816164E-02  0.1184000E+00
        -11   -1    0    0    0    0  0.00000000000E+00  0.00000000000E+00  0.45593999997E+02  0.45594000000E+02  0.51100000000E-03 0. -1.
         11   -1    0    0    0    0 -0.00000000000E+00 -0.00000000000E+00 -0.45593999997E+02  0.45594000000E+02  0.51100000000E-03 0.  1.
         23    2    1    2    0    0  0.35527136788E-14  0.17763568394E-14  0.00000000000E+00  0.91188000000E+02  0.91188000000E+02 0.  0.
    9900012    2    3    3    0    0  0.22863585777E+02  0.12112606058E+02 -0.34844865943E+02  0.47787268869E+02  0.19999990082E+02 0.  0.
         12    1    3    3    0    0 -0.22863585777E+02 -0.12112606058E+02  0.34844865943E+02  0.43400731131E+02  0.00000000000E+00 0. -1.
         11    1    4    4    0    0  0.32388690995E+01  0.88318032552E+01 -0.12044938853E+02  0.15283048584E+02  0.51100000000E-03 0. -1.
        -11    1    4    4    0    0  0.14761587295E+02 -0.31460231798E+01 -0.14320808846E+02  0.20805948370E+02  0.51100000000E-03 0.  1.
        -12    1    4    4    0    0  0.48631293826E+01  0.64268259827E+01 -0.84791182443E+01  0.11698271915E+02  0.00000000000E+00 0.  1.
</event>
<event>
 8    1  0.4798632E-010  0.9118800E+02  0.7816164E-02  0.1184000E+00
        -11   -1    0    0    0    0  0.00000000000E+00  0.00000000000E+00  0.45593999997E+02  0.45594000000E+02  0.51100000000E-03 0.  1.
         11   -1    0    0    0    0 -0.00000000000E+00 -0.00000000000E+00 -0.45593999997E+02  0.45594000000E+02  0.51100000000E-03 0. -1.
         23    2    1    2    0    0  0.71054273576E-14  0.00000000000E+00  0.00000000000E+00  0.91188000000E+02  0.91188000000E+02 0.  0.
    9900012    2    3    3    0    0  0.38627441374E+02  0.16325294250E+02  0.11181616615E+02  0.47787274090E+02  0.20000013884E+02 0.  0.
        -12    1    3    3    0    0 -0.38627441374E+02 -0.16325294250E+02 -0.11181616615E+02  0.43400725910E+02  0.00000000000E+00 0.  1.
         11    1    4    4    0    0  0.55862046354E+01  0.19232182181E+01  0.30601762643E+00  0.59159189981E+01  0.51100000000E-03 0. -1.
        -11    1    4    4    0    0  0.34044999142E+02  0.94834138270E+01  0.86757086146E+01  0.36390452383E+02  0.51100000000E-03 0.  1.
        -12    1    4    4    0    0 -0.10037624036E+01  0.49186622048E+01  0.21998903735E+01  0.54809027088E+01  0.00000000000E+00 0.  1.
</event>
<event>
 8    1  0.4798632E-010  0.9118800E+02  0.7816164E-02  0.1184000E+00
        -11   -1    0    0    0    0  0.00000000000E+00  0.00000000000E+00  0.45593999997E+02  0.45594000000E+02  0.51100000000E-03 0. -1.
         11   -1    0    0    0    0 -0.00000000000E+00 -0.00000000000E+00 -0.45593999997E+02  0.45594000000E+02  0.51100000000E-03 0.  1.
         23    2    1    2    0    0  0.00000000000E+00  0.00000000000E+00  0.00000000000E+00  0.91188000000E+02  0.91188000000E+02 0.  0.
    9900012    2    3    3    0    0 -0.20351917618E+02 -0.12868927584E+02 -0.36108361642E+02  0.47787266960E+02  0.19999981379E+02 0.  0.
         12    1    3    3    0    0  0.20351917618E+02  0.12868927584E+02  0.36108361642E+02  0.43400733040E+02  0.00000000000E+00 0. -1.
         11    1    4    4    0    0 -0.15705034567E+02 -0.16860411604E+01 -0.21780886089E+02  0.26905349740E+02  0.51100000000E-03 0.  1.
        -11    1    4    4    0    0 -0.67963905658E+01 -0.10943256493E+02 -0.13194981650E+02  0.18440534927E+02  0.51100000000E-03 0. -1.
         12    1    4    4    0    0  0.21495075150E+01 -0.23962993104E+00 -0.11324939033E+01  0.24413822932E+01  0.00000000000E+00 0. -1.
</event>
<event>
 8    1  0.4798632E-010  0.9118800E+02  0.7816164E-02  0.1184000E+00
        -11   -1    0    0    0    0  0.00000000000E+00  0.00000000000E+00  0.45593999997E+02  0.45594000000E+02  0.51100000000E-03 0. -1.
         11   -1    0    0    0    0 -0.00000000000E+00 -0.00000000000E+00 -0.45593999997E+02  0.45594000000E+02  0.51100000000E-03 0.  1.
         23    2    1    2    0    0 -0.71054273576E-14  0.13322676296E-14  0.35527136788E-14  0.91188000000E+02  0.91188000000E+02 0.  0.
    9900012    2    3    3    0    0  0.34065572084E+02  0.21699689025E+01 -0.26803941543E+02  0.47787271334E+02  0.20000001321E+02 0.  0.
         12    1    3    3    0    0 -0.34065572084E+02 -0.21699689025E+01  0.26803941543E+02  0.43400728666E+02  0.00000000000E+00 0. -1.
         11    1    4    4    0    0 -0.11459834547E+00 -0.80842128355E+00 -0.56942648261E+00  0.99545192385E+00  0.51100000000E-03 0. -1.
        -11    1    4    4    0    0  0.27954477654E+02  0.70916188264E+01 -0.13078118073E+02  0.31666718350E+02  0.51100000000E-03 0.  1.
        -12    1    4    4    0    0  0.62256927762E+01 -0.41132286403E+01 -0.13156396988E+02  0.15125101060E+02  0.00000000000E+00 0.  1.
</event>
<event>
 8    1  0.6100792E-010  0.9118800E+02  0.7816164E-02  0.1184000E+00
        -11   -1    0    0    0    0  0.00000000000E+00  0.00000000000E+00  0.45593999997E+02  0.45594000000E+02  0.51100000000E-03 0. -1.
         11   -1    0    0    0    0 -0.00000000000E+00 -0.00000000000E+00 -0.45593999997E+02  0.45594000000E+02  0.51100000000E-03 0.  1.
         23    2    1    2    0    0  0.17763568394E-14 -0.35527136788E-14  0.00000000000E+00  0.91188000000E+02  0.91188000000E+02 0.  0.
    9900012    2    3    3    0    0  0.11358784212E+02 -0.23453150926E+02  0.34706642175E+02  0.47787270994E+02  0.19999999771E+02 0.  0.
        -12    1    3    3    0    0 -0.11358784212E+02  0.23453150926E+02 -0.34706642175E+02  0.43400729006E+02  0.00000000000E+00 0.  1.
         11    1    4    4    0    0  0.58163093146E+01 -0.17782746616E+02  0.26323180565E+02  0.32294974323E+02  0.51100000000E-03 0. -1.
        -11    1    4    4    0    0  0.30648698119E+01  0.22037464602E+01  0.56533189812E+01  0.67977894340E+01  0.51100000000E-03 0.  1.
        -12    1    4    4    0    0  0.24776050858E+01 -0.78741507705E+01  0.27301426298E+01  0.86945072371E+01  0.00000000000E+00 0.  1.
</event>
<event>
 8    1  0.4798632E-010  0.9118800E+02  0.7816164E-02  0.1184000E+00
        -11   -1    0    0    0    0  0.00000000000E+00  0.00000000000E+00  0.45593999997E+02  0.45594000000E+02  0.51100000000E-03 0.  1.
         11   -1    0    0    0    0 -0.00000000000E+00 -0.00000000000E+00 -0.45593999997E+02  0.45594000000E+02  0.51100000000E-03 0. -1.
         23    2    1    2    0    0 -0.35527136788E-14  0.00000000000E+00  0.35527136788E-14  0.91188000000E+02  0.91188000000E+02 0.  0.
    9900012    2    3    3    0    0  0.16620172706E+02 -0.37111915320E+02 -0.15168984276E+02  0.47787280151E+02  0.20000041518E+02 0.  0.
         12    1    3    3    0    0 -0.16620172706E+02  0.37111915320E+02  0.15168984276E+02  0.43400719849E+02  0.00000000000E+00 0. -1.
         11    1    4    4    0    0 -0.59629216807E+00 -0.15301727448E+02  0.11703946354E+01  0.15358002836E+02  0.51100000000E-03 0. -1.
        -11    1    4    4    0    0  0.67338400700E+01 -0.68311620510E+01 -0.71721381446E+01  0.11977017278E+02  0.51100000000E-03 0.  1.
         12    1    4    4    0    0  0.10482624804E+02 -0.14979025821E+02 -0.91672407672E+01  0.20452260037E+02  0.00000000000E+00 0. -1.
</event>
<event>
 8    1  0.4798632E-010  0.9118800E+02  0.7816164E-02  0.1184000E+00
        -11   -1    0    0    0    0  0.00000000000E+00  0.00000000000E+00  0.45593999997E+02  0.45594000000E+02  0.51100000000E-03 0. -1.
         11   -1    0    0    0    0 -0.00000000000E+00 -0.00000000000E+00 -0.45593999997E+02  0.45594000000E+02  0.51100000000E-03 0.  1.
         23    2    1    2    0    0  0.44408920985E-15  0.00000000000E+00  0.00000000000E+00  0.91188000000E+02  0.91188000000E+02 0.  0.
    9900012    2    3    3    0    0  0.16331208039E+01  0.26661654623E+02  0.34206907197E+02  0.47787269467E+02  0.19999992810E+02 0.  0.
        -12    1    3    3    0    0 -0.16331208039E+01 -0.26661654623E+02 -0.34206907197E+02  0.43400730533E+02  0.00000000000E+00 0.  1.
         11    1    4    4    0    0  0.39112474264E+01  0.15143222369E+02  0.24900348826E+02  0.29404802534E+02  0.51100000000E-03 0. -1.
        -11    1    4    4    0    0  0.60472005421E+00 -0.19386466896E+01  0.68805988450E+00  0.21441697687E+01  0.51100000000E-03 0.  1.
         12    1    4    4    0    0 -0.28828466768E+01  0.13457078943E+02  0.86184984860E+01  0.16238297164E+02  0.00000000000E+00 0. -1.
</event>
<event>
 8    1  0.4798632E-010  0.9118800E+02  0.7816164E-02  0.1184000E+00
        -11   -1    0    0    0    0  0.00000000000E+00  0.00000000000E+00  0.45593999997E+02  0.45594000000E+02  0.51100000000E-03 0. -1.
         11   -1    0    0    0    0 -0.00000000000E+00 -0.00000000000E+00 -0.45593999997E+02  0.45594000000E+02  0.51100000000E-03 0.  1.
         23    2    1    2    0    0 -0.17763568394E-14  0.00000000000E+00  0.00000000000E+00  0.91188000000E+02  0.91188000000E+02 0.  0.
    9900012    2    3    3    0    0  0.12696190181E+02 -0.22623488142E+02 -0.34793792171E+02  0.47787269194E+02  0.19999991563E+02 0.  0.
         12    1    3    3    0    0 -0.12696190181E+02  0.22623488142E+02  0.34793792171E+02  0.43400730806E+02  0.00000000000E+00 0. -1.
         11    1    4    4    0    0  0.11423874234E+02 -0.86521785284E+01 -0.10827960319E+02  0.17961342398E+02  0.51100000000E-03 0. -1.
        -11    1    4    4    0    0  0.21045348222E+01 -0.12517174087E+01 -0.12317381919E+02  0.12558413948E+02  0.51100000000E-03 0.  1.
         12    1    4    4    0    0 -0.83221887507E+00 -0.12719592205E+02 -0.11648449933E+02  0.17267512848E+02  0.00000000000E+00 0. -1.
</event>
<event>
 8    1  0.4798632E-010  0.9118800E+02  0.7816164E-02  0.1184000E+00
        -11   -1    0    0    0    0  0.00000000000E+00  0.00000000000E+00  0.45593999997E+02  0.45594000000E+02  0.51100000000E-03 0. -1.
         11   -1    0    0    0    0 -0.00000000000E+00 -0.00000000000E+00 -0.45593999997E+02  0.45594000000E+02  0.51100000000E-03 0.  1.
         23    2    1    2    0    0  0.88817841970E-15  0.00000000000E+00 -0.71054273576E-14  0.91188000000E+02  0.91188000000E+02 0.  0.
    9900012    2    3    3    0    0 -0.22619535451E+01  0.29397670362E+02  0.31847822882E+02  0.47787270987E+02  0.19999999737E+02 0.  0.
        -12    1    3    3    0    0  0.22619535451E+01 -0.29397670362E+02 -0.31847822882E+02  0.43400729013E+02  0.00000000000E+00 0.  1.
         11    1    4    4    0    0  0.22926093370E+01  0.50416494539E+01 -0.10466588761E+01  0.56364689170E+01  0.51100000000E-03 0.  1.
        -11    1    4    4    0    0 -0.27044068952E+01  0.34066687930E+01  0.20244691786E+01  0.47976749198E+01  0.51100000000E-03 0. -1.
         12    1    4    4    0    0 -0.18501559868E+01  0.20949352116E+02  0.30870012579E+02  0.37353127150E+02  0.00000000000E+00 0. -1.
</event>
<event>
 8    1  0.4798632E-010  0.9118800E+02  0.7816164E-02  0.1184000E+00
        -11   -1    0    0    0    0  0.00000000000E+00  0.00000000000E+00  0.45593999997E+02  0.45594000000E+02  0.51100000000E-03 0. -1.
         11   -1    0    0    0    0 -0.00000000000E+00 -0.00000000000E+00 -0.45593999997E+02  0.45594000000E+02  0.51100000000E-03 0.  1.
         23    2    1    2    0    0  0.00000000000E+00  0.00000000000E+00  0.00000000000E+00  0.91188000000E+02  0.91188000000E+02 0.  0.
    9900012    2    3    3    0    0  0.81105576260E+01 -0.36643668470E+02 -0.21796413638E+02  0.47787271533E+02  0.20000002227E+02 0.  0.
         12    1    3    3    0    0 -0.81105576260E+01  0.36643668470E+02  0.21796413638E+02  0.43400728467E+02  0.00000000000E+00 0. -1.
         11    1    4    4    0    0 -0.22978189806E+01 -0.18441479443E+02 -0.84983692397E+01  0.20435029144E+02  0.51100000000E-03 0. -1.
        -11    1    4    4    0    0  0.93696447188E+00 -0.10295376590E+02 -0.10430066241E+02  0.14685331579E+02  0.51100000000E-03 0.  1.
         12    1    4    4    0    0  0.94714121347E+01 -0.79068124378E+01 -0.28679781579E+01  0.12666910810E+02  0.00000000000E+00 0. -1.
</event>
<event>
 8    1  0.4798632E-010  0.9118800E+02  0.7816164E-02  0.1184000E+00
        -11   -1    0    0    0    0  0.00000000000E+00  0.00000000000E+00  0.45593999997E+02  0.45594000000E+02  0.51100000000E-03 0.  1.
         11   -1    0    0    0    0 -0.00000000000E+00 -0.00000000000E+00 -0.45593999997E+02  0.45594000000E+02  0.51100000000E-03 0. -1.
         23    2    1    2    0    0 -0.35527136788E-14  0.00000000000E+00  0.00000000000E+00  0.91188000000E+02  0.91188000000E+02 0.  0.
    9900012    2    3    3    0    0  0.16364761162E+02 -0.38596209931E+02 -0.11231659443E+02  0.47787274168E+02  0.20000014241E+02 0.  0.
         12    1    3    3    0    0 -0.16364761162E+02  0.38596209931E+02  0.11231659443E+02  0.43400725832E+02  0.00000000000E+00 0. -1.
         11    1    4    4    0    0 -0.17555726222E+01 -0.64752905930E+01 -0.27560276374E+01  0.72530760436E+01  0.51100000000E-03 0. -1.
        -11    1    4    4    0    0  0.13766616540E+02 -0.11277828901E+02 -0.52108305372E+00  0.17803951345E+02  0.51100000000E-03 0.  1.
        -12    1    4    4    0    0  0.43537172433E+01 -0.20843090437E+02 -0.79545487516E+01  0.22730246779E+02  0.00000000000E+00 0.  1.
</event>
<event>
 8    1  0.4798632E-010  0.9118800E+02  0.7816164E-02  0.1184000E+00
        -11   -1    0    0    0    0  0.00000000000E+00  0.00000000000E+00  0.45593999997E+02  0.45594000000E+02  0.51100000000E-03 0. -1.
         11   -1    0    0    0    0 -0.00000000000E+00 -0.00000000000E+00 -0.45593999997E+02  0.45594000000E+02  0.51100000000E-03 0.  1.
         23    2    1    2    0    0  0.00000000000E+00  0.00000000000E+00  0.00000000000E+00  0.91188000000E+02  0.91188000000E+02 0.  0.
    9900012    2    3    3    0    0  0.27097757126E+02 -0.14465825086E+02 -0.30660636249E+02  0.47787272451E+02  0.20000006411E+02 0.  0.
         12    1    3    3    0    0 -0.27097757126E+02  0.14465825086E+02  0.30660636249E+02  0.43400727549E+02  0.00000000000E+00 0. -1.
         11    1    4    4    0    0  0.67849020367E+01 -0.49235560129E+01 -0.19067455292E+02  0.20828925825E+02  0.51100000000E-03 0. -1.
        -11    1    4    4    0    0  0.11804876133E+02 -0.10380100681E+02 -0.65256094890E+01  0.17020140133E+02  0.51100000000E-03 0.  1.
         12    1    4    4    0    0  0.85079789557E+01  0.83783160795E+00 -0.50675714678E+01  0.99382064929E+01  0.00000000000E+00 0. -1.
</event>
<event>
 8    1  0.6159273E-010  0.9118800E+02  0.7816164E-02  0.1184000E+00
        -11   -1    0    0    0    0  0.00000000000E+00  0.00000000000E+00  0.45593999997E+02  0.45594000000E+02  0.51100000000E-03 0. -1.
         11   -1    0    0    0    0 -0.00000000000E+00 -0.00000000000E+00 -0.45593999997E+02  0.45594000000E+02  0.51100000000E-03 0.  1.
         23    2    1    2    0    0  0.00000000000E+00  0.00000000000E+00  0.00000000000E+00  0.91188000000E+02  0.91188000000E+02 0.  0.
    9900012    2    3    3    0    0  0.12171261825E+02  0.20194695711E+02 -0.36437036142E+02  0.47787274752E+02  0.20000016904E+02 0.  0.
         12    1    3    3    0    0 -0.12171261825E+02 -0.20194695711E+02  0.36437036142E+02  0.43400725248E+02  0.00000000000E+00 0. -1.
         11    1    4    4    0    0  0.79031571596E+01  0.33029423937E+01 -0.32903965856E+01  0.91758395527E+01  0.51100000000E-03 0. -1.
        -11    1    4    4    0    0  0.60219473773E+01  0.16145770876E+02 -0.25829597632E+02  0.31050247688E+02  0.51100000000E-03 0.  1.
        -12    1    4    4    0    0 -0.17538427119E+01  0.74598244130E+00 -0.73170419245E+01  0.75611875116E+01  0.00000000000E+00 0.  1.
</event>
<event>
 8    1  0.4798632E-010  0.9118800E+02  0.7816164E-02  0.1184000E+00
        -11   -1    0    0    0    0  0.00000000000E+00  0.00000000000E+00  0.45593999997E+02  0.45594000000E+02  0.51100000000E-03 0. -1.
         11   -1    0    0    0    0 -0.00000000000E+00 -0.00000000000E+00 -0.45593999997E+02  0.45594000000E+02  0.51100000000E-03 0.  1.
         23    2    1    2    0    0 -0.35527136788E-14  0.00000000000E+00  0.00000000000E+00  0.91188000000E+02  0.91188000000E+02 0.  0.
    9900012    2    3    3    0    0 -0.25349408634E+02 -0.18508486794E+02 -0.29974434094E+02  0.47787270735E+02  0.19999998587E+02 0.  0.
         12    1    3    3    0    0  0.25349408634E+02  0.18508486794E+02  0.29974434094E+02  0.43400729265E+02  0.00000000000E+00 0. -1.
         11    1    4    4    0    0 -0.41261598894E+01 -0.81149013962E+00 -0.69557618756E+00  0.42623395188E+01  0.51100000000E-03 0. -1.
        -11    1    4    4    0    0 -0.23607542061E+01 -0.11333951093E+02 -0.65143115364E+01  0.13284120703E+02  0.51100000000E-03 0.  1.
        -12    1    4    4    0    0 -0.18862494539E+02 -0.63630455617E+01 -0.22764546370E+02  0.30240810513E+02  0.00000000000E+00 0.  1.
</event>
<event>
 8    1  0.4798632E-010  0.9118800E+02  0.7816164E-02  0.1184000E+00
        -11   -1    0    0    0    0  0.00000000000E+00  0.00000000000E+00  0.45593999997E+02  0.45594000000E+02  0.51100000000E-03 0. -1.
         11   -1    0    0    0    0 -0.00000000000E+00 -0.00000000000E+00 -0.45593999997E+02  0.45594000000E+02  0.51100000000E-03 0.  1.
         23    2    1    2    0    0  0.35527136788E-14 -0.35527136788E-14  0.35527136788E-14  0.91188000000E+02  0.91188000000E+02 0.  0.
    9900012    2    3    3    0    0  0.28772357772E+02 -0.16674779815E+02  0.27887746302E+02  0.47787271349E+02  0.20000001387E+02 0.  0.
        -12    1    3    3    0    0 -0.28772357772E+02  0.16674779815E+02 -0.27887746302E+02  0.43400728651E+02  0.00000000000E+00 0.  1.
         11    1    4    4    0    0  0.14566831826E+02 -0.37926687963E+01  0.57164603894E+01  0.16101392663E+02  0.51100000000E-03 0. -1.
        -11    1    4    4    0    0  0.30038992565E+01 -0.28349431474E+01  0.13930114476E+02  0.14529569951E+02  0.51100000000E-03 0.  1.
        -12    1    4    4    0    0  0.11201626689E+02 -0.10047167872E+02  0.82411714367E+01  0.17156308734E+02  0.00000000000E+00 0.  1.
</event>
<event>
 8    1  0.4798632E-010  0.9118800E+02  0.7816164E-02  0.1184000E+00
        -11   -1    0    0    0    0  0.00000000000E+00  0.00000000000E+00  0.45593999997E+02  0.45594000000E+02  0.51100000000E-03 0. -1.
         11   -1    0    0    0    0 -0.00000000000E+00 -0.00000000000E+00 -0.45593999997E+02  0.45594000000E+02  0.51100000000E-03 0.  1.
         23    2    1    2    0    0  0.00000000000E+00 -0.44408920985E-15  0.00000000000E+00  0.91188000000E+02  0.91188000000E+02 0.  0.
    9900012    2    3    3    0    0  0.39125427293E+02  0.23879312425E+01 -0.18631082584E+02  0.47787325872E+02  0.20000249980E+02 0.  0.
         12    1    3    3    0    0 -0.39125427293E+02 -0.23879312425E+01  0.18631082584E+02  0.43400674128E+02  0.00000000000E+00 0. -1.
         11    1    4    4    0    0  0.56417439777E+01 -0.52217469838E+01 -0.83421796402E+01  0.11344067969E+02  0.51100000000E-03 0. -1.
        -11    1    4    4    0    0  0.30051146824E+02  0.47253820661E+01 -0.96511653693E+01  0.31914662059E+02  0.51100000000E-03 0.  1.
        -12    1    4    4    0    0  0.34325364915E+01  0.28842961601E+01 -0.63773757493E+00  0.45285958441E+01  0.00000000000E+00 0.  1.
</event>
<event>
 8    1  0.4798632E-010  0.9118800E+02  0.7816164E-02  0.1184000E+00
        -11   -1    0    0    0    0  0.00000000000E+00  0.00000000000E+00  0.45593999997E+02  0.45594000000E+02  0.51100000000E-03 0.  1.
         11   -1    0    0    0    0 -0.00000000000E+00 -0.00000000000E+00 -0.45593999997E+02  0.45594000000E+02  0.51100000000E-03 0. -1.
         23    2    1    2    0    0  0.00000000000E+00 -0.26645352591E-14 -0.88817841970E-15  0.91188000000E+02  0.91188000000E+02 0.  0.
    9900012    2    3    3    0    0 -0.42742370865E+02  0.50666364948E+01  0.55715090095E+01  0.47787276675E+02  0.20000025670E+02 0.  0.
         12    1    3    3    0    0  0.42742370865E+02 -0.50666364948E+01 -0.55715090095E+01  0.43400723325E+02  0.00000000000E+00 0. -1.
         11    1    4    4    0    0 -0.24726430855E+02 -0.52266783371E+01 -0.60298064104E+00  0.25279994762E+02  0.51100000000E-03 0. -1.
        -11    1    4    4    0    0 -0.16416716924E+02  0.68105506855E+01  0.55824547057E+01  0.18629438961E+02  0.51100000000E-03 0.  1.
         12    1    4    4    0    0 -0.15992230859E+01  0.34827641465E+01  0.59203494481E+00  0.38778429512E+01  0.00000000000E+00 0. -1.
</event>
<event>
 8    1  0.4987063E-010  0.9118800E+02  0.7816164E-02  0.1184000E+00
        -11   -1    0    0    0    0  0.00000000000E+00  0.00000000000E+00  0.45593999997E+02  0.45594000000E+02  0.51100000000E-03 0. -1.
         11   -1    0    0    0    0 -0.00000000000E+00 -0.00000000000E+00 -0.45593999997E+02  0.45594000000E+02  0.51100000000E-03 0.  1.
         23    2    1    2    0    0  0.00000000000E+00  0.00000000000E+00  0.35527136788E-14  0.91188000000E+02  0.91188000000E+02 0.  0.
    9900012    2    3    3    0    0  0.23799718994E+02 -0.18042361981E+02 -0.31490788670E+02  0.47787271652E+02  0.20000002772E+02 0.  0.
         12    1    3    3    0    0 -0.23799718994E+02  0.18042361981E+02  0.31490788670E+02  0.43400728348E+02  0.00000000000E+00 0. -1.
         11    1    4    4    0    0  0.12432868324E+02 -0.11315093920E+02 -0.66770820029E+01  0.18088421421E+02  0.51100000000E-03 0. -1.
        -11    1    4    4    0    0  0.10648067551E+02 -0.12005772165E+01 -0.15455420082E+02  0.18806720564E+02  0.51100000000E-03 0.  1.
        -12    1    4    4    0    0  0.71878311898E+00 -0.55266908441E+01 -0.93582865854E+01  0.10892129667E+02  0.00000000000E+00 0.  1.
</event>
<event>
 8    1  0.4798632E-010  0.9118800E+02  0.7816164E-02  0.1184000E+00
        -11   -1    0    0    0    0  0.00000000000E+00  0.00000000000E+00  0.45593999997E+02  0.45594000000E+02  0.51100000000E-03 0. -1.
         11   -1    0    0    0    0 -0.00000000000E+00 -0.00000000000E+00 -0.45593999997E+02  0.45594000000E+02  0.51100000000E-03 0.  1.
         23    2    1    2    0    0 -0.35527136788E-14  0.00000000000E+00  0.00000000000E+00  0.91188000000E+02  0.91188000000E+02 0.  0.
    9900012    2    3    3    0    0  0.16324435736E+02  0.24020792336E+02  0.32251162457E+02  0.47787272513E+02  0.20000006698E+02 0.  0.
        -12    1    3    3    0    0 -0.16324435736E+02 -0.24020792336E+02 -0.32251162457E+02  0.43400727487E+02  0.00000000000E+00 0.  1.
         11    1    4    4    0    0  0.45767945595E+01  0.19160035023E+02  0.12618219026E+02  0.23393876168E+02  0.51100000000E-03 0. -1.
        -11    1    4    4    0    0 -0.35170367140E-01  0.21032250782E+01  0.48679234689E+01  0.53029682107E+01  0.51100000000E-03 0.  1.
         12    1    4    4    0    0  0.11782811544E+02  0.27575322353E+01  0.14765019961E+02  0.19090428135E+02  0.00000000000E+00 0. -1.
</event>
<event>
 8    1  0.4798632E-010  0.9118800E+02  0.7816164E-02  0.1184000E+00
        -11   -1    0    0    0    0  0.00000000000E+00  0.00000000000E+00  0.45593999997E+02  0.45594000000E+02  0.51100000000E-03 0. -1.
         11   -1    0    0    0    0 -0.00000000000E+00 -0.00000000000E+00 -0.45593999997E+02  0.45594000000E+02  0.51100000000E-03 0.  1.
         23    2    1    2    0    0  0.00000000000E+00  0.00000000000E+00  0.00000000000E+00  0.91188000000E+02  0.91188000000E+02 0.  0.
    9900012    2    3    3    0    0  0.48424411142E+01 -0.87443235248E+01  0.42233977032E+02  0.47787294409E+02  0.20000106528E+02 0.  0.
        -12    1    3    3    0    0 -0.48424411142E+01  0.87443235248E+01 -0.42233977032E+02  0.43400705591E+02  0.00000000000E+00 0.  1.
         11    1    4    4    0    0  0.72315858882E+01 -0.75562900704E+01  0.38273620274E+02  0.39676987829E+02  0.51100000000E-03 0. -1.
        -11    1    4    4    0    0 -0.27193981072E+01 -0.17433937525E+01 -0.78246621449E+00  0.33236728900E+01  0.51100000000E-03 0.  1.
        -12    1    4    4    0    0  0.33025333326E+00  0.55536029816E+00  0.47428229731E+01  0.47866336897E+01  0.00000000000E+00 0.  1.
</event>
<event>
 8    1  0.4798632E-010  0.9118800E+02  0.7816164E-02  0.1184000E+00
        -11   -1    0    0    0    0  0.00000000000E+00  0.00000000000E+00  0.45593999997E+02  0.45594000000E+02  0.51100000000E-03 0. -1.
         11   -1    0    0    0    0 -0.00000000000E+00 -0.00000000000E+00 -0.45593999997E+02  0.45594000000E+02  0.51100000000E-03 0.  1.
         23    2    1    2    0    0  0.71054273576E-14 -0.35527136788E-14  0.00000000000E+00  0.91188000000E+02  0.91188000000E+02 0.  0.
    9900012    2    3    3    0    0  0.38435462909E+02 -0.15943501108E+02  0.12334642894E+02  0.47787268993E+02  0.19999990648E+02 0.  0.
        -12    1    3    3    0    0 -0.38435462909E+02  0.15943501108E+02 -0.12334642894E+02  0.43400731007E+02  0.00000000000E+00 0.  1.
         11    1    4    4    0    0  0.97689360789E+01 -0.37951401123E+01  0.14501763892E+01  0.10580085652E+02  0.51100000000E-03 0. -1.
        -11    1    4    4    0    0  0.21717436619E+02 -0.12891703548E+02  0.12258331414E+01  0.25285287043E+02  0.51100000000E-03 0.  1.
        -12    1    4    4    0    0  0.69490902104E+01  0.74334255153E+00  0.96586333636E+01  0.11921896299E+02  0.00000000000E+00 0.  1.
</event>
<event>
 8    1  0.4798632E-010  0.9118800E+02  0.7816164E-02  0.1184000E+00
        -11   -1    0    0    0    0  0.00000000000E+00  0.00000000000E+00  0.45593999997E+02  0.45594000000E+02  0.51100000000E-03 0. -1.
         11   -1    0    0    0    0 -0.00000000000E+00 -0.00000000000E+00 -0.45593999997E+02  0.45594000000E+02  0.51100000000E-03 0.  1.
         23    2    1    2    0    0 -0.35527136788E-14 -0.17763568394E-14  0.71054273576E-14  0.91188000000E+02  0.91188000000E+02 0.  0.
    9900012    2    3    3    0    0 -0.17936468123E+02 -0.11789814680E+02  0.37721436201E+02  0.47787269960E+02  0.19999995055E+02 0.  0.
        -12    1    3    3    0    0  0.17936468123E+02  0.11789814680E+02 -0.37721436201E+02  0.43400730040E+02  0.00000000000E+00 0.  1.
         11    1    4    4    0    0 -0.93317062548E+01 -0.96653251146E+00  0.14172452354E+02  0.16996274083E+02  0.51100000000E-03 0. -1.
        -11    1    4    4    0    0 -0.30725870506E+01 -0.12724891431E+02  0.11616138983E+02  0.17501381038E+02  0.51100000000E-03 0.  1.
        -12    1    4    4    0    0 -0.55321748174E+01  0.19016092623E+01  0.11932844864E+02  0.13289614838E+02  0.00000000000E+00 0.  1.
</event>
<event>
 8    1  0.4798632E-010  0.9118800E+02  0.7816164E-02  0.1184000E+00
        -11   -1    0    0    0    0  0.00000000000E+00  0.00000000000E+00  0.45593999997E+02  0.45594000000E+02  0.51100000000E-03 0. -1.
         11   -1    0    0    0    0 -0.00000000000E+00 -0.00000000000E+00 -0.45593999997E+02  0.45594000000E+02  0.51100000000E-03 0.  1.
         23    2    1    2    0    0 -0.35527136788E-14  0.00000000000E+00  0.00000000000E+00  0.91188000000E+02  0.91188000000E+02 0.  0.
    9900012    2    3    3    0    0  0.20190644973E+02 -0.69787849346E+01  0.37779064141E+02  0.47787271078E+02  0.20000000151E+02 0.  0.
        -12    1    3    3    0    0 -0.20190644973E+02  0.69787849346E+01 -0.37779064141E+02  0.43400728922E+02  0.00000000000E+00 0.  1.
         11    1    4    4    0    0  0.10438689579E+02 -0.10449258586E+02  0.29997918183E+02  0.33436930791E+02  0.51100000000E-03 0. -1.
        -11    1    4    4    0    0  0.67313832940E+01  0.52357288474E+01  0.50404378305E+01  0.99060785076E+01  0.51100000000E-03 0.  1.
         12    1    4    4    0    0  0.30205721004E+01 -0.17652551955E+01  0.27407081274E+01  0.44442617789E+01  0.00000000000E+00 0. -1.
</event>
<event>
 8    1  0.4798632E-010  0.9118800E+02  0.7816164E-02  0.1184000E+00
        -11   -1    0    0    0    0  0.00000000000E+00  0.00000000000E+00  0.45593999997E+02  0.45594000000E+02  0.51100000000E-03 0.  1.
         11   -1    0    0    0    0 -0.00000000000E+00 -0.00000000000E+00 -0.45593999997E+02  0.45594000000E+02  0.51100000000E-03 0. -1.
         23    2    1    2    0    0  0.00000000000E+00  0.00000000000E+00  0.88817841970E-15  0.91188000000E+02  0.91188000000E+02 0.  0.
    9900012    2    3    3    0    0 -0.22326275695E+02 -0.36883274047E+02 -0.49782740195E+01  0.47787289141E+02  0.20000082508E+02 0.  0.
         12    1    3    3    0    0  0.22326275695E+02  0.36883274047E+02  0.49782740195E+01  0.43400710859E+02  0.00000000000E+00 0. -1.
         11    1    4    4    0    0 -0.11611775166E+02 -0.16203124181E+02  0.32805563910E+01  0.20202391102E+02  0.51100000000E-03 0. -1.
        -11    1    4    4    0    0 -0.11992103302E+02 -0.13294878151E+02 -0.90260204093E+01  0.20050769844E+02  0.51100000000E-03 0.  1.
        -12    1    4    4    0    0  0.12776027733E+01 -0.73852717158E+01  0.76718999879E+00  0.75341281949E+01  0.00000000000E+00 0.  1.
</event>
<event>
 8    1  0.4798632E-010  0.9118800E+02  0.7816164E-02  0.1184000E+00
        -11   -1    0    0    0    0  0.00000000000E+00  0.00000000000E+00  0.45593999997E+02  0.45594000000E+02  0.51100000000E-03 0. -1.
         11   -1    0    0    0    0 -0.00000000000E+00 -0.00000000000E+00 -0.45593999997E+02  0.45594000000E+02  0.51100000000E-03 0.  1.
         23    2    1    2    0    0  0.00000000000E+00 -0.88817841970E-15  0.00000000000E+00  0.91188000000E+02  0.91188000000E+02 0.  0.
    9900012    2    3    3    0    0  0.10731821387E+02 -0.51917103077E+01  0.41731259782E+02  0.47787263956E+02  0.19999967681E+02 0.  0.
        -12    1    3    3    0    0 -0.10731821387E+02  0.51917103077E+01 -0.41731259782E+02  0.43400736044E+02  0.00000000000E+00 0.  1.
         11    1    4    4    0    0  0.46127643870E+01  0.17959619861E+01  0.18470978265E+02  0.19122764264E+02  0.51100000000E-03 0. -1.
        -11    1    4    4    0    0 -0.12934256803E+01 -0.89745305527E+01  0.12100848701E+02  0.15121034627E+02  0.51100000000E-03 0.  1.
        -12    1    4    4    0    0  0.74124826803E+01  0.19868582588E+01  0.11159432815E+02  0.13543465066E+02  0.00000000000E+00 0.  1.
</event>
<event>
 8    1  0.4798632E-010  0.9118800E+02  0.7816164E-02  0.1184000E+00
        -11   -1    0    0    0    0  0.00000000000E+00  0.00000000000E+00  0.45593999997E+02  0.45594000000E+02  0.51100000000E-03 0.  1.
         11   -1    0    0    0    0 -0.00000000000E+00 -0.00000000000E+00 -0.45593999997E+02  0.45594000000E+02  0.51100000000E-03 0. -1.
         23    2    1    2    0    0  0.00000000000E+00  0.35527136788E-14  0.00000000000E+00  0.91188000000E+02  0.91188000000E+02 0.  0.
    9900012    2    3    3    0    0  0.36362276238E+02 -0.17440670988E+02  0.16038441046E+02  0.47787265802E+02  0.19999976097E+02 0.  0.
         12    1    3    3    0    0 -0.36362276238E+02  0.17440670988E+02 -0.16038441046E+02  0.43400734198E+02  0.00000000000E+00 0. -1.
         11    1    4    4    0    0  0.21371376554E+01 -0.31720932754E+00  0.56444027084E+01  0.60437787279E+01  0.51100000000E-03 0. -1.
        -11    1    4    4    0    0  0.50817168498E+01  0.16609227211E+01  0.35058831562E+01  0.63932563998E+01  0.51100000000E-03 0.  1.
         12    1    4    4    0    0  0.29143421733E+02 -0.18784384382E+02  0.68881551816E+01  0.35350230674E+02  0.00000000000E+00 0. -1.
</event>
<event>
 8    1  0.4798632E-010  0.9118800E+02  0.7816164E-02  0.1184000E+00
        -11   -1    0    0    0    0  0.00000000000E+00  0.00000000000E+00  0.45593999997E+02  0.45594000000E+02  0.51100000000E-03 0. -1.
         11   -1    0    0    0    0 -0.00000000000E+00 -0.00000000000E+00 -0.45593999997E+02  0.45594000000E+02  0.51100000000E-03 0.  1.
         23    2    1    2    0    0  0.00000000000E+00  0.17763568394E-14 -0.17763568394E-14  0.91188000000E+02  0.91188000000E+02 0.  0.
    9900012    2    3    3    0    0  0.38347237889E+02 -0.12601861757E+02  0.15946961932E+02  0.47787272260E+02  0.20000005544E+02 0.  0.
        -12    1    3    3    0    0 -0.38347237889E+02  0.12601861757E+02 -0.15946961932E+02  0.43400727740E+02  0.00000000000E+00 0.  1.
         11    1    4    4    0    0  0.35047874525E+02 -0.75342523390E+01  0.10343705759E+02  0.37310999935E+02  0.51100000000E-03 0. -1.
        -11    1    4    4    0    0  0.64710788189E-01  0.33260877861E+00  0.39546017966E+01  0.39690920519E+01  0.51100000000E-03 0.  1.
         12    1    4    4    0    0  0.32346525753E+01 -0.54002181970E+01  0.16486543769E+01  0.65071802736E+01  0.00000000000E+00 0. -1.
</event>
<event>
 8    1  0.4798632E-010  0.9118800E+02  0.7816164E-02  0.1184000E+00
        -11   -1    0    0    0    0  0.00000000000E+00  0.00000000000E+00  0.45593999997E+02  0.45594000000E+02  0.51100000000E-03 0. -1.
         11   -1    0    0    0    0 -0.00000000000E+00 -0.00000000000E+00 -0.45593999997E+02  0.45594000000E+02  0.51100000000E-03 0.  1.
         23    2    1    2    0    0 -0.17763568394E-14  0.17763568394E-14  0.00000000000E+00  0.91188000000E+02  0.91188000000E+02 0.  0.
    9900012    2    3    3    0    0 -0.15596280235E+02  0.13299201138E+02 -0.38255853181E+02  0.47787274076E+02  0.20000013824E+02 0.  0.
         12    1    3    3    0    0  0.15596280235E+02 -0.13299201138E+02  0.38255853181E+02  0.43400725924E+02  0.00000000000E+00 0. -1.
         11    1    4    4    0    0 -0.70507270769E+01  0.15389790827E+02 -0.20668848179E+02  0.26716281540E+02  0.51100000000E-03 0. -1.
        -11    1    4    4    0    0 -0.40322458701E+01  0.20192720975E+01 -0.34678089724E+01  0.56887754298E+01  0.51100000000E-03 0.  1.
         12    1    4    4    0    0 -0.45133072881E+01 -0.41098617871E+01 -0.14119196029E+02  0.15382217106E+02  0.00000000000E+00 0. -1.
</event>
<event>
 8    1  0.4798632E-010  0.9118800E+02  0.7816164E-02  0.1184000E+00
        -11   -1    0    0    0    0  0.00000000000E+00  0.00000000000E+00  0.45593999997E+02  0.45594000000E+02  0.51100000000E-03 0. -1.
         11   -1    0    0    0    0 -0.00000000000E+00 -0.00000000000E+00 -0.45593999997E+02  0.45594000000E+02  0.51100000000E-03 0.  1.
         23    2    1    2    0    0  0.35527136788E-14  0.00000000000E+00  0.00000000000E+00  0.91188000000E+02  0.91188000000E+02 0.  0.
    9900012    2    3    3    0    0  0.28091279535E+02 -0.11084932545E+02  0.31170941884E+02  0.47787270359E+02  0.19999996874E+02 0.  0.
        -12    1    3    3    0    0 -0.28091279535E+02  0.11084932545E+02 -0.31170941884E+02  0.43400729641E+02  0.00000000000E+00 0.  1.
         11    1    4    4    0    0  0.45822615499E+01  0.98044376947E+00  0.16614800107E+02  0.17262965381E+02  0.51100000000E-03 0. -1.
        -11    1    4    4    0    0  0.10093544176E+02 -0.77889340582E+01  0.69526562122E+01  0.14521933634E+02  0.51100000000E-03 0.  1.
         12    1    4    4    0    0  0.13415473809E+02 -0.42764422558E+01  0.76034855654E+01  0.16002371344E+02  0.00000000000E+00 0. -1.
</event>
<event>
 8    1  0.4798632E-010  0.9118800E+02  0.7816164E-02  0.1184000E+00
        -11   -1    0    0    0    0  0.00000000000E+00  0.00000000000E+00  0.45593999997E+02  0.45594000000E+02  0.51100000000E-03 0. -1.
         11   -1    0    0    0    0 -0.00000000000E+00 -0.00000000000E+00 -0.45593999997E+02  0.45594000000E+02  0.51100000000E-03 0.  1.
         23    2    1    2    0    0  0.00000000000E+00  0.00000000000E+00  0.00000000000E+00  0.91188000000E+02  0.91188000000E+02 0.  0.
    9900012    2    3    3    0    0  0.30944541544E+02  0.22119949306E+02  0.20898951466E+02  0.47787274418E+02  0.20000015380E+02 0.  0.
        -12    1    3    3    0    0 -0.30944541544E+02 -0.22119949306E+02 -0.20898951466E+02  0.43400725582E+02  0.00000000000E+00 0.  1.
         11    1    4    4    0    0  0.29913529667E+02  0.13584283126E+02  0.11837807161E+02  0.34921135203E+02  0.51100000000E-03 0. -1.
        -11    1    4    4    0    0  0.17001321948E+01  0.71701346141E+01  0.62177845091E+01  0.96416867989E+01  0.51100000000E-03 0.  1.
         12    1    4    4    0    0 -0.66912031776E+00  0.13655315657E+01  0.28433597956E+01  0.32244524161E+01  0.00000000000E+00 0. -1.
</event>
<event>
 8    1  0.4798632E-010  0.9118800E+02  0.7816164E-02  0.1184000E+00
        -11   -1    0    0    0    0  0.00000000000E+00  0.00000000000E+00  0.45593999997E+02  0.45594000000E+02  0.51100000000E-03 0. -1.
         11   -1    0    0    0    0 -0.00000000000E+00 -0.00000000000E+00 -0.45593999997E+02  0.45594000000E+02  0.51100000000E-03 0.  1.
         23    2    1    2    0    0  0.88817841970E-15  0.00000000000E+00  0.00000000000E+00  0.91188000000E+02  0.91188000000E+02 0.  0.
    9900012    2    3    3    0    0 -0.68473501672E+01 -0.37042698883E+02 -0.21554015931E+02  0.47787270195E+02  0.19999996128E+02 0.  0.
         12    1    3    3    0    0  0.68473501672E+01  0.37042698883E+02  0.21554015931E+02  0.43400729805E+02  0.00000000000E+00 0. -1.
         11    1    4    4    0    0 -0.88279049991E+01 -0.15478809274E+02 -0.18564991018E+02  0.25732942602E+02  0.51100000000E-03 0.  1.
        -11    1    4    4    0    0  0.19017054307E-01 -0.66381793673E+00 -0.65549277337E+00  0.93310607035E+00  0.51100000000E-03 0. -1.
         12    1    4    4    0    0  0.19615377776E+01 -0.20900071672E+02 -0.23335321395E+01  0.21121221523E+02  0.00000000000E+00 0. -1.
</event>
<event>
 8    1  0.4798632E-010  0.9118800E+02  0.7816164E-02  0.1184000E+00
        -11   -1    0    0    0    0  0.00000000000E+00  0.00000000000E+00  0.45593999997E+02  0.45594000000E+02  0.51100000000E-03 0. -1.
         11   -1    0    0    0    0 -0.00000000000E+00 -0.00000000000E+00 -0.45593999997E+02  0.45594000000E+02  0.51100000000E-03 0.  1.
         23    2    1    2    0    0 -0.17763568394E-14 -0.35527136788E-14  0.00000000000E+00  0.91188000000E+02  0.91188000000E+02 0.  0.
    9900012    2    3    3    0    0 -0.15716663305E+02 -0.23163782916E+02  0.33166985574E+02  0.47787271014E+02  0.19999999862E+02 0.  0.
        -12    1    3    3    0    0  0.15716663305E+02  0.23163782916E+02 -0.33166985574E+02  0.43400728986E+02  0.00000000000E+00 0.  1.
         11    1    4    4    0    0 -0.70515519089E+01 -0.16048189892E+02  0.19267869071E+02  0.26048408050E+02  0.51100000000E-03 0. -1.
        -11    1    4    4    0    0 -0.10752243123E+02 -0.39663669067E+01  0.58946504570E+01  0.12887579404E+02  0.51100000000E-03 0.  1.
        -12    1    4    4    0    0  0.20871317270E+01 -0.31492261175E+01  0.80044660457E+01  0.88512835601E+01  0.00000000000E+00 0.  1.
</event>
<event>
 8    1  0.5396852E-010  0.9118800E+02  0.7816164E-02  0.1184000E+00
        -11   -1    0    0    0    0  0.00000000000E+00  0.00000000000E+00  0.45593999997E+02  0.45594000000E+02  0.51100000000E-03 0. -1.
         11   -1    0    0    0    0 -0.00000000000E+00 -0.00000000000E+00 -0.45593999997E+02  0.45594000000E+02  0.51100000000E-03 0.  1.
         23    2    1    2    0    0 -0.88817841970E-15  0.00000000000E+00  0.71054273576E-14  0.91188000000E+02  0.91188000000E+02 0.  0.
    9900012    2    3    3    0    0 -0.36974348688E+01  0.13096560426E+02  0.41212039617E+02  0.47787272714E+02  0.20000007611E+02 0.  0.
        -12    1    3    3    0    0  0.36974348688E+01 -0.13096560426E+02 -0.41212039617E+02  0.43400727286E+02  0.00000000000E+00 0.  1.
         11    1    4    4    0    0 -0.67573695713E-01  0.35019273465E+01  0.12100933058E+02  0.12597644322E+02  0.51100000000E-03 0. -1.
        -11    1    4    4    0    0 -0.93327133653E+01  0.10266119959E+02  0.22491302361E+02  0.26426339889E+02  0.51100000000E-03 0.  1.
        -12    1    4    4    0    0  0.57028521922E+01 -0.67148687937E+00  0.66198041987E+01  0.87632885029E+01  0.00000000000E+00 0.  1.
</event>
<event>
 8    1  0.4798632E-010  0.9118800E+02  0.7816164E-02  0.1184000E+00
        -11   -1    0    0    0    0  0.00000000000E+00  0.00000000000E+00  0.45593999997E+02  0.45594000000E+02  0.51100000000E-03 0. -1.
         11   -1    0    0    0    0 -0.00000000000E+00 -0.00000000000E+00 -0.45593999997E+02  0.45594000000E+02  0.51100000000E-03 0.  1.
         23    2    1    2    0    0 -0.14988010832E-14 -0.71054273576E-14  0.35527136788E-14  0.91188000000E+02  0.91188000000E+02 0.  0.
    9900012    2    3    3    0    0 -0.14944589249E+00  0.38278977819E+02 -0.20452905043E+02  0.47787264964E+02  0.19999972279E+02 0.  0.
         12    1    3    3    0    0  0.14944589249E+00 -0.38278977819E+02  0.20452905043E+02  0.43400735036E+02  0.00000000000E+00 0. -1.
         11    1    4    4    0    0  0.48267905634E+01  0.51712657519E+01 -0.76869177597E+01  0.10446463589E+02  0.51100000000E-03 0. -1.
        -11    1    4    4    0    0 -0.46361350165E+01  0.13484885441E+02 -0.64589415741E+00  0.14274209708E+02  0.51100000000E-03 0.  1.
        -12    1    4    4    0    0 -0.34010143943E+00  0.19622826625E+02 -0.12120093126E+02  0.23066591667E+02  0.00000000000E+00 0.  1.
</event>
<event>
 8    1  0.4798632E-010  0.9118800E+02  0.7816164E-02  0.1184000E+00
        -11   -1    0    0    0    0  0.00000000000E+00  0.00000000000E+00  0.45593999997E+02  0.45594000000E+02  0.51100000000E-03 0. -1.
         11   -1    0    0    0    0 -0.00000000000E+00 -0.00000000000E+00 -0.45593999997E+02  0.45594000000E+02  0.51100000000E-03 0.  1.
         23    2    1    2    0    0 -0.17763568394E-14 -0.88817841970E-15  0.71054273576E-14  0.91188000000E+02  0.91188000000E+02 0.  0.
    9900012    2    3    3    0    0  0.13776242055E+02 -0.56002607088E+01 -0.40773461028E+02  0.47787275475E+02  0.20000020199E+02 0.  0.
         12    1    3    3    0    0 -0.13776242055E+02  0.56002607088E+01  0.40773461028E+02  0.43400724525E+02  0.00000000000E+00 0. -1.
         11    1    4    4    0    0  0.34839171788E+01 -0.82963133961E+01 -0.60685556132E+01  0.10853288090E+02  0.51100000000E-03 0. -1.
        -11    1    4    4    0    0  0.97606198361E+01  0.24535415449E+01 -0.21747112621E+02  0.23963023042E+02  0.51100000000E-03 0.  1.
         12    1    4    4    0    0  0.53170503997E+00  0.24251114233E+00 -0.12957792793E+02  0.12970964342E+02  0.00000000000E+00 0. -1.
</event>
<event>
 8    1  0.5099200E-010  0.9118800E+02  0.7816164E-02  0.1184000E+00
        -11   -1    0    0    0    0  0.00000000000E+00  0.00000000000E+00  0.45593999997E+02  0.45594000000E+02  0.51100000000E-03 0. -1.
         11   -1    0    0    0    0 -0.00000000000E+00 -0.00000000000E+00 -0.45593999997E+02  0.45594000000E+02  0.51100000000E-03 0.  1.
         23    2    1    2    0    0 -0.88817841970E-15 -0.17763568394E-14  0.71054273576E-14  0.91188000000E+02  0.91188000000E+02 0.  0.
    9900012    2    3    3    0    0  0.68009084651E+01  0.13875086413E+02 -0.40556783732E+02  0.47787273213E+02  0.20000009888E+02 0.  0.
         12    1    3    3    0    0 -0.68009084651E+01 -0.13875086413E+02  0.40556783732E+02  0.43400726787E+02  0.00000000000E+00 0. -1.
         11    1    4    4    0    0 -0.59004021120E+00 -0.26830341725E+01 -0.85648647180E+00  0.28775665343E+01  0.51100000000E-03 0. -1.
        -11    1    4    4    0    0  0.96490021690E+01  0.11684838612E+02 -0.33071705118E+02  0.36378240418E+02  0.51100000000E-03 0.  1.
        -12    1    4    4    0    0 -0.22580534927E+01  0.48732819734E+01 -0.66285921424E+01  0.85314662607E+01  0.00000000000E+00 0.  1.
</event>
<event>
 8    1  0.4798632E-010  0.9118800E+02  0.7816164E-02  0.1184000E+00
        -11   -1    0    0    0    0  0.00000000000E+00  0.00000000000E+00  0.45593999997E+02  0.45594000000E+02  0.51100000000E-03 0. -1.
         11   -1    0    0    0    0 -0.00000000000E+00 -0.00000000000E+00 -0.45593999997E+02  0.45594000000E+02  0.51100000000E-03 0.  1.
         23    2    1    2    0    0  0.00000000000E+00  0.00000000000E+00  0.00000000000E+00  0.91188000000E+02  0.91188000000E+02 0.  0.
    9900012    2    3    3    0    0 -0.27677401314E+02 -0.10358267116E+02 -0.31785073989E+02  0.47787272245E+02  0.20000005474E+02 0.  0.
         12    1    3    3    0    0  0.27677401314E+02  0.10358267116E+02  0.31785073989E+02  0.43400727755E+02  0.00000000000E+00 0. -1.
         11    1    4    4    0    0 -0.29698778243E+01 -0.13753044586E+01  0.97178718364E+00  0.34140895179E+01  0.51100000000E-03 0. -1.
        -11    1    4    4    0    0 -0.17605071062E+02  0.10543503428E+01 -0.19255390263E+02  0.26111687731E+02  0.51100000000E-03 0.  1.
        -12    1    4    4    0    0 -0.71024524285E+01 -0.10037313000E+02 -0.13501470910E+02  0.18261494996E+02  0.00000000000E+00 0.  1.
</event>
<event>
 8    1  0.4798632E-010  0.9118800E+02  0.7816164E-02  0.1184000E+00
        -11   -1    0    0    0    0  0.00000000000E+00  0.00000000000E+00  0.45593999997E+02  0.45594000000E+02  0.51100000000E-03 0. -1.
         11   -1    0    0    0    0 -0.00000000000E+00 -0.00000000000E+00 -0.45593999997E+02  0.45594000000E+02  0.51100000000E-03 0.  1.
         23    2    1    2    0    0 -0.88817841970E-15 -0.71054273576E-14  0.00000000000E+00  0.91188000000E+02  0.91188000000E+02 0.  0.
    9900012    2    3    3    0    0 -0.78890673198E+01 -0.38093494644E+02 -0.19242440596E+02  0.47787271464E+02  0.20000001912E+02 0.  0.
         12    1    3    3    0    0  0.78890673198E+01  0.38093494644E+02  0.19242440596E+02  0.43400728536E+02  0.00000000000E+00 0. -1.
         11    1    4    4    0    0 -0.12049979638E+02 -0.16268579579E+02 -0.58082612961E+01  0.21061922760E+02  0.51100000000E-03 0. -1.
        -11    1    4    4    0    0  0.33200775371E+01 -0.16349832513E+02 -0.13034576217E+02  0.21171681923E+02  0.51100000000E-03 0.  1.
         12    1    4    4    0    0  0.84083478150E+00 -0.54750825529E+01 -0.39960308332E+00  0.55536667811E+01  0.00000000000E+00 0. -1.
</event>
<event>
 8    1  0.4798632E-010  0.9118800E+02  0.7816164E-02  0.1184000E+00
        -11   -1    0    0    0    0  0.00000000000E+00  0.00000000000E+00  0.45593999997E+02  0.45594000000E+02  0.51100000000E-03 0. -1.
         11   -1    0    0    0    0 -0.00000000000E+00 -0.00000000000E+00 -0.45593999997E+02  0.45594000000E+02  0.51100000000E-03 0.  1.
         23    2    1    2    0    0  0.00000000000E+00  0.17763568394E-14 -0.71054273576E-14  0.91188000000E+02  0.91188000000E+02 0.  0.
    9900012    2    3    3    0    0  0.30641887475E+01  0.86019682653E+01 -0.42429241736E+02  0.47787266539E+02  0.19999979457E+02 0.  0.
         12    1    3    3    0    0 -0.30641887475E+01 -0.86019682653E+01  0.42429241736E+02  0.43400733461E+02  0.00000000000E+00 0. -1.
         11    1    4    4    0    0  0.71075085337E+01  0.46906816282E+01 -0.32044172992E+02  0.33156420113E+02  0.51100000000E-03 0. -1.
        -11    1    4    4    0    0 -0.26529714949E+00  0.16091981454E+01 -0.10063751488E+02  0.10195047598E+02  0.51100000000E-03 0.  1.
         12    1    4    4    0    0 -0.37780226368E+01  0.23020884918E+01 -0.32131725605E+00  0.44357988285E+01  0.00000000000E+00 0. -1.
</event>
<event>
 8    1  0.4798632E-010  0.9118800E+02  0.7816164E-02  0.1184000E+00
        -11   -1    0    0    0    0  0.00000000000E+00  0.00000000000E+00  0.45593999997E+02  0.45594000000E+02  0.51100000000E-03 0. -1.
         11   -1    0    0    0    0 -0.00000000000E+00 -0.00000000000E+00 -0.45593999997E+02  0.45594000000E+02  0.51100000000E-03 0.  1.
         23    2    1    2    0    0  0.00000000000E+00  0.00000000000E+00 -0.35527136788E-14  0.91188000000E+02  0.91188000000E+02 0.  0.
    9900012    2    3    3    0    0 -0.27695315059E+02  0.24639696474E+02  0.22571623136E+02  0.47787270864E+02  0.19999999178E+02 0.  0.
        -12    1    3    3    0    0  0.27695315059E+02 -0.24639696474E+02 -0.22571623136E+02  0.43400729136E+02  0.00000000000E+00 0.  1.
         11    1    4    4    0    0 -0.26249304635E+02  0.20921849433E+02  0.23385116639E+02  0.40909821046E+02  0.51100000000E-03 0. -1.
        -11    1    4    4    0    0  0.38023788136E+00 -0.13645795846E+01 -0.42079097219E-02  0.14165720090E+01  0.51100000000E-03 0.  1.
         12    1    4    4    0    0 -0.18262483047E+01  0.50824266255E+01 -0.80928559337E+00  0.54608778091E+01  0.00000000000E+00 0. -1.
</event>
<event>
 8    1  0.4798632E-010  0.9118800E+02  0.7816164E-02  0.1184000E+00
        -11   -1    0    0    0    0  0.00000000000E+00  0.00000000000E+00  0.45593999997E+02  0.45594000000E+02  0.51100000000E-03 0. -1.
         11   -1    0    0    0    0 -0.00000000000E+00 -0.00000000000E+00 -0.45593999997E+02  0.45594000000E+02  0.51100000000E-03 0.  1.
         23    2    1    2    0    0  0.88817841970E-15 -0.88817841970E-15  0.00000000000E+00  0.91188000000E+02  0.91188000000E+02 0.  0.
    9900012    2    3    3    0    0  0.68153104725E+01  0.41297324747E+01 -0.42662866202E+02  0.47787270746E+02  0.19999998641E+02 0.  0.
         12    1    3    3    0    0 -0.68153104725E+01 -0.41297324747E+01  0.42662866202E+02  0.43400729254E+02  0.00000000000E+00 0. -1.
         11    1    4    4    0    0 -0.41853580423E+01 -0.47178526919E+01 -0.93876579248E+01  0.11309441964E+02  0.51100000000E-03 0. -1.
        -11    1    4    4    0    0  0.20102815852E+00  0.22870407599E+01 -0.57138476614E+01  0.61578424076E+01  0.51100000000E-03 0.  1.
         12    1    4    4    0    0  0.10799640356E+02  0.65605444067E+01 -0.27561360616E+02  0.30319986375E+02  0.00000000000E+00 0. -1.
</event>
<event>
 8    1  0.4798632E-010  0.9118800E+02  0.7816164E-02  0.1184000E+00
        -11   -1    0    0    0    0  0.00000000000E+00  0.00000000000E+00  0.45593999997E+02  0.45594000000E+02  0.51100000000E-03 0. -1.
         11   -1    0    0    0    0 -0.00000000000E+00 -0.00000000000E+00 -0.45593999997E+02  0.45594000000E+02  0.51100000000E-03 0.  1.
         23    2    1    2    0    0 -0.35527136788E-14  0.71054273576E-14 -0.35527136788E-14  0.91188000000E+02  0.91188000000E+02 0.  0.
    9900012    2    3    3    0    0  0.13252362579E+02 -0.37688266283E+02  0.16958557036E+02  0.47787272055E+02  0.20000004609E+02 0.  0.
        -12    1    3    3    0    0 -0.13252362579E+02  0.37688266283E+02 -0.16958557036E+02  0.43400727945E+02  0.00000000000E+00 0.  1.
         11    1    4    4    0    0  0.69586276414E+01 -0.28541227710E+02  0.10242046015E+02  0.31111471914E+02  0.51100000000E-03 0. -1.
        -11    1    4    4    0    0 -0.19128299619E+01 -0.19507673896E+00 -0.11175014707E+01  0.22239116879E+01  0.51100000000E-03 0.  1.
        -12    1    4    4    0    0  0.82065648998E+01 -0.89519618342E+01  0.78340124920E+01  0.14451888453E+02  0.00000000000E+00 0.  1.
</event>
<event>
 8    1  0.4798632E-010  0.9118800E+02  0.7816164E-02  0.1184000E+00
        -11   -1    0    0    0    0  0.00000000000E+00  0.00000000000E+00  0.45593999997E+02  0.45594000000E+02  0.51100000000E-03 0. -1.
         11   -1    0    0    0    0 -0.00000000000E+00 -0.00000000000E+00 -0.45593999997E+02  0.45594000000E+02  0.51100000000E-03 0.  1.
         23    2    1    2    0    0  0.00000000000E+00 -0.22204460493E-15  0.00000000000E+00  0.91188000000E+02  0.91188000000E+02 0.  0.
    9900012    2    3    3    0    0 -0.34186756056E+02  0.54045303457E+00 -0.26731935021E+02  0.47787277321E+02  0.20000028617E+02 0.  0.
         12    1    3    3    0    0  0.34186756056E+02 -0.54045303457E+00  0.26731935021E+02  0.43400722679E+02  0.00000000000E+00 0. -1.
         11    1    4    4    0    0 -0.25565613576E+02  0.66552763270E+01 -0.20696384610E+02  0.33559404594E+02  0.51100000000E-03 0.  1.
        -11    1    4    4    0    0 -0.47855556578E+01 -0.70949785839E+01 -0.56398564060E+01  0.10249304591E+02  0.51100000000E-03 0. -1.
        -12    1    4    4    0    0 -0.38355868220E+01  0.98015529144E+00 -0.39569400435E+00  0.39785681356E+01  0.00000000000E+00 0.  1.
</event>
<event>
 8    1  0.4798632E-010  0.9118800E+02  0.7816164E-02  0.1184000E+00
        -11   -1    0    0    0    0  0.00000000000E+00  0.00000000000E+00  0.45593999997E+02  0.45594000000E+02  0.51100000000E-03 0. -1.
         11   -1    0    0    0    0 -0.00000000000E+00 -0.00000000000E+00 -0.45593999997E+02  0.45594000000E+02  0.51100000000E-03 0.  1.
         23    2    1    2    0    0 -0.17763568394E-14  0.00000000000E+00  0.71054273576E-14  0.91188000000E+02  0.91188000000E+02 0.  0.
    9900012    2    3    3    0    0 -0.76339192615E+01  0.19211630584E+02  0.38160970319E+02  0.47787272717E+02  0.20000007628E+02 0.  0.
        -12    1    3    3    0    0  0.76339192615E+01 -0.19211630584E+02 -0.38160970319E+02  0.43400727283E+02  0.00000000000E+00 0.  1.
         11    1    4    4    0    0 -0.11211846169E+02  0.11697133799E+02  0.21401789480E+02  0.26843342319E+02  0.51100000000E-03 0. -1.
        -11    1    4    4    0    0 -0.15612575258E+01 -0.40873749379E+00  0.76652623541E+01  0.78333159402E+01  0.51100000000E-03 0.  1.
         12    1    4    4    0    0  0.51391844330E+01  0.79232342794E+01  0.90939184840E+01  0.13110614458E+02  0.00000000000E+00 0. -1.
</event>
<event>
 8    1  0.4798632E-010  0.9118800E+02  0.7816164E-02  0.1184000E+00
        -11   -1    0    0    0    0  0.00000000000E+00  0.00000000000E+00  0.45593999997E+02  0.45594000000E+02  0.51100000000E-03 0. -1.
         11   -1    0    0    0    0 -0.00000000000E+00 -0.00000000000E+00 -0.45593999997E+02  0.45594000000E+02  0.51100000000E-03 0.  1.
         23    2    1    2    0    0  0.17763568394E-14 -0.88817841970E-15 -0.14210854715E-13  0.91188000000E+02  0.91188000000E+02 0.  0.
    9900012    2    3    3    0    0  0.11968644419E+02  0.50616704522E+01 -0.41409589506E+02  0.47787273508E+02  0.20000011231E+02 0.  0.
         12    1    3    3    0    0 -0.11968644419E+02 -0.50616704522E+01  0.41409589506E+02  0.43400726492E+02  0.00000000000E+00 0. -1.
         11    1    4    4    0    0  0.28938827678E+01 -0.44992044898E+01 -0.22054912850E+01  0.57863279016E+01  0.51100000000E-03 0. -1.
        -11    1    4    4    0    0  0.76287388768E+01  0.92583861851E+01 -0.38571268580E+02  0.40393788281E+02  0.51100000000E-03 0.  1.
         12    1    4    4    0    0  0.14460227741E+01  0.30248875684E+00 -0.63282964146E+00  0.16071573247E+01  0.00000000000E+00 0. -1.
</event>
<event>
 8    1  0.4798632E-010  0.9118800E+02  0.7816164E-02  0.1184000E+00
        -11   -1    0    0    0    0  0.00000000000E+00  0.00000000000E+00  0.45593999997E+02  0.45594000000E+02  0.51100000000E-03 0.  1.
         11   -1    0    0    0    0 -0.00000000000E+00 -0.00000000000E+00 -0.45593999997E+02  0.45594000000E+02  0.51100000000E-03 0. -1.
         23    2    1    2    0    0  0.00000000000E+00  0.35527136788E-14  0.44408920985E-15  0.91188000000E+02  0.91188000000E+02 0.  0.
    9900012    2    3    3    0    0 -0.38336509311E+02  0.19985190609E+02 -0.38116010979E+01  0.47787261610E+02  0.19999956985E+02 0.  0.
         12    1    3    3    0    0  0.38336509311E+02 -0.19985190609E+02  0.38116010979E+01  0.43400738390E+02  0.00000000000E+00 0. -1.
         11    1    4    4    0    0 -0.32804958501E+01  0.16524832017E+01 -0.22980876400E+01  0.43328467335E+01  0.51100000000E-03 0. -1.
        -11    1    4    4    0    0 -0.24835672400E+02  0.21042869124E+02  0.10719230267E+01  0.32569341163E+02  0.51100000000E-03 0.  1.
        -12    1    4    4    0    0 -0.10220341061E+02 -0.27101617167E+01 -0.25854364846E+01  0.10885073714E+02  0.00000000000E+00 0.  1.
</event>
<event>
 8    1  0.4798632E-010  0.9118800E+02  0.7816164E-02  0.1184000E+00
        -11   -1    0    0    0    0  0.00000000000E+00  0.00000000000E+00  0.45593999997E+02  0.45594000000E+02  0.51100000000E-03 0. -1.
         11   -1    0    0    0    0 -0.00000000000E+00 -0.00000000000E+00 -0.45593999997E+02  0.45594000000E+02  0.51100000000E-03 0.  1.
         23    2    1    2    0    0  0.00000000000E+00  0.71054273576E-14  0.17763568394E-14  0.91188000000E+02  0.91188000000E+02 0.  0.
    9900012    2    3    3    0    0 -0.63684314988E+01  0.40079371558E+02  0.15385383885E+02  0.47787274413E+02  0.20000015357E+02 0.  0.
         12    1    3    3    0    0  0.63684314988E+01 -0.40079371558E+02 -0.15385383885E+02  0.43400725587E+02  0.00000000000E+00 0. -1.
         11    1    4    4    0    0 -0.90501042150E+01  0.20833618635E+02  0.32474120008E+01  0.22945364166E+02  0.51100000000E-03 0. -1.
        -11    1    4    4    0    0  0.33529854253E+01  0.18391082527E+02  0.13529383425E+02  0.23076365483E+02  0.51100000000E-03 0.  1.
         12    1    4    4    0    0 -0.67131270904E+00  0.85467039527E+00 -0.13914115405E+01  0.17655447638E+01  0.00000000000E+00 0. -1.
</event>
<event>
 8    1  0.4798632E-010  0.9118800E+02  0.7816164E-02  0.1184000E+00
        -11   -1    0    0    0    0  0.00000000000E+00  0.00000000000E+00  0.45593999997E+02  0.45594000000E+02  0.51100000000E-03 0. -1.
         11   -1    0    0    0    0 -0.00000000000E+00 -0.00000000000E+00 -0.45593999997E+02  0.45594000000E+02  0.51100000000E-03 0.  1.
         23    2    1    2    0    0  0.00000000000E+00  0.00000000000E+00  0.00000000000E+00  0.91188000000E+02  0.91188000000E+02 0.  0.
    9900012    2    3    3    0    0  0.29612086912E+02  0.25068633519E+02  0.19450134503E+02  0.47787310950E+02  0.20000181947E+02 0.  0.
        -12    1    3    3    0    0 -0.29612086912E+02 -0.25068633519E+02 -0.19450134503E+02  0.43400689050E+02  0.00000000000E+00 0.  1.
         11    1    4    4    0    0  0.64270218590E+01  0.69813491162E+01  0.90468297558E+01  0.13110719826E+02  0.51100000000E-03 0. -1.
        -11    1    4    4    0    0  0.61703573622E+01  0.14404594019E+02  0.49526428853E+01  0.16434546256E+02  0.51100000000E-03 0.  1.
        -12    1    4    4    0    0  0.17014707691E+02  0.36826903838E+01  0.54506618621E+01  0.18242044869E+02  0.00000000000E+00 0.  1.
</event>
<event>
 8    1  0.4798632E-010  0.9118800E+02  0.7816164E-02  0.1184000E+00
        -11   -1    0    0    0    0  0.00000000000E+00  0.00000000000E+00  0.45593999997E+02  0.45594000000E+02  0.51100000000E-03 0. -1.
         11   -1    0    0    0    0 -0.00000000000E+00 -0.00000000000E+00 -0.45593999997E+02  0.45594000000E+02  0.51100000000E-03 0.  1.
         23    2    1    2    0    0  0.71054273576E-14  0.00000000000E+00  0.00000000000E+00  0.91188000000E+02  0.91188000000E+02 0.  0.
    9900012    2    3    3    0    0  0.36716373115E+02  0.19817914143E+02 -0.11949103902E+02  0.47787275816E+02  0.20000021753E+02 0.  0.
         12    1    3    3    0    0 -0.36716373115E+02 -0.19817914143E+02  0.11949103902E+02  0.43400724184E+02  0.00000000000E+00 0. -1.
         11    1    4    4    0    0  0.11206028504E+02 -0.43627078666E+00 -0.17415431093E+01  0.11348937381E+02  0.51100000000E-03 0. -1.
        -11    1    4    4    0    0  0.53770479836E+01  0.10992855980E+02 -0.50978445142E+00  0.12248077730E+02  0.51100000000E-03 0.  1.
        -12    1    4    4    0    0  0.20133296627E+02  0.92613289496E+01 -0.96977763408E+01  0.24190260705E+02  0.00000000000E+00 0.  1.
</event>
<event>
 8    1  0.4798632E-010  0.9118800E+02  0.7816164E-02  0.1184000E+00
        -11   -1    0    0    0    0  0.00000000000E+00  0.00000000000E+00  0.45593999997E+02  0.45594000000E+02  0.51100000000E-03 0.  1.
         11   -1    0    0    0    0 -0.00000000000E+00 -0.00000000000E+00 -0.45593999997E+02  0.45594000000E+02  0.51100000000E-03 0. -1.
         23    2    1    2    0    0  0.00000000000E+00  0.00000000000E+00 -0.17763568394E-14  0.91188000000E+02  0.91188000000E+02 0.  0.
    9900012    2    3    3    0    0 -0.10553741819E+02 -0.39015154558E+02  0.15813282975E+02  0.47787266481E+02  0.19999979193E+02 0.  0.
        -12    1    3    3    0    0  0.10553741819E+02  0.39015154558E+02 -0.15813282975E+02  0.43400733519E+02  0.00000000000E+00 0.  1.
         11    1    4    4    0    0 -0.13350689636E+02 -0.29053407323E+02  0.13633152959E+02  0.34759232597E+02  0.51100000000E-03 0. -1.
        -11    1    4    4    0    0  0.41683948228E+01 -0.75675008673E+01 -0.11361600395E+01  0.87139798411E+01  0.51100000000E-03 0.  1.
         12    1    4    4    0    0 -0.13714470056E+01 -0.23942463673E+01  0.33162900553E+01  0.43140540432E+01  0.00000000000E+00 0. -1.
</event>
<event>
 8    1  0.4798632E-010  0.9118800E+02  0.7816164E-02  0.1184000E+00
        -11   -1    0    0    0    0  0.00000000000E+00  0.00000000000E+00  0.45593999997E+02  0.45594000000E+02  0.51100000000E-03 0. -1.
         11   -1    0    0    0    0 -0.00000000000E+00 -0.00000000000E+00 -0.45593999997E+02  0.45594000000E+02  0.51100000000E-03 0.  1.
         23    2    1    2    0    0  0.00000000000E+00 -0.44408920985E-15  0.00000000000E+00  0.91188000000E+02  0.91188000000E+02 0.  0.
    9900012    2    3    3    0    0  0.42391710982E+02  0.29198277853E+01  0.88340548650E+01  0.47787273283E+02  0.20000010205E+02 0.  0.
        -12    1    3    3    0    0 -0.42391710982E+02 -0.29198277853E+01 -0.88340548650E+01  0.43400726717E+02  0.00000000000E+00 0.  1.
         11    1    4    4    0    0  0.19175036284E+02  0.97225721277E+01  0.88053385942E+01  0.23232400076E+02  0.51100000000E-03 0. -1.
        -11    1    4    4    0    0  0.58584392631E+01 -0.35377423178E+01 -0.68414049271E+00  0.68778615704E+01  0.51100000000E-03 0.  1.
         12    1    4    4    0    0  0.17358235435E+02 -0.32650020246E+01  0.71285676347E+00  0.17677011636E+02  0.00000000000E+00 0. -1.
</event>
<event>
 8    1  0.4798632E-010  0.9118800E+02  0.7816164E-02  0.1184000E+00
        -11   -1    0    0    0    0  0.00000000000E+00  0.00000000000E+00  0.45593999997E+02  0.45594000000E+02  0.51100000000E-03 0. -1.
         11   -1    0    0    0    0 -0.00000000000E+00 -0.00000000000E+00 -0.45593999997E+02  0.45594000000E+02  0.51100000000E-03 0.  1.
         23    2    1    2    0    0  0.00000000000E+00  0.00000000000E+00  0.00000000000E+00  0.91188000000E+02  0.91188000000E+02 0.  0.
    9900012    2    3    3    0    0 -0.48126710966E+01  0.78498359920E+01 -0.42412750494E+02  0.47787272672E+02  0.20000007420E+02 0.  0.
         12    1    3    3    0    0  0.48126710966E+01 -0.78498359920E+01  0.42412750494E+02  0.43400727328E+02  0.00000000000E+00 0. -1.
         11    1    4    4    0    0 -0.48578106097E+01  0.19505239328E+01 -0.15080862216E+01  0.54476776562E+01  0.51100000000E-03 0. -1.
        -11    1    4    4    0    0  0.29636126603E+01  0.64999837183E+01 -0.20293239566E+02  0.21513910864E+02  0.51100000000E-03 0.  1.
         12    1    4    4    0    0 -0.29184731472E+01 -0.60067165901E+00 -0.20611424706E+02  0.20825684151E+02  0.00000000000E+00 0. -1.
</event>
<event>
 8    1  0.4798632E-010  0.9118800E+02  0.7816164E-02  0.1184000E+00
        -11   -1    0    0    0    0  0.00000000000E+00  0.00000000000E+00  0.45593999997E+02  0.45594000000E+02  0.51100000000E-03 0. -1.
         11   -1    0    0    0    0 -0.00000000000E+00 -0.00000000000E+00 -0.45593999997E+02  0.45594000000E+02  0.51100000000E-03 0.  1.
         23    2    1    2    0    0  0.00000000000E+00 -0.35527136788E-14  0.00000000000E+00  0.91188000000E+02  0.91188000000E+02 0.  0.
    9900012    2    3    3    0    0  0.45797985203E+01  0.16947897693E+02  0.39691521893E+02  0.47787277645E+02  0.20000030095E+02 0.  0.
        -12    1    3    3    0    0 -0.45797985203E+01 -0.16947897693E+02 -0.39691521893E+02  0.43400722355E+02  0.00000000000E+00 0.  1.
         11    1    4    4    0    0  0.38501054011E+01  0.43080615728E+01  0.11902984085E+02  0.13231165350E+02  0.51100000000E-03 0. -1.
        -11    1    4    4    0    0  0.52198973369E+01 -0.27321328532E+00  0.24678720831E+01  0.57803431202E+01  0.51100000000E-03 0.  1.
        -12    1    4    4    0    0 -0.44902042177E+01  0.12913049406E+02  0.25320665725E+02  0.28775769175E+02  0.00000000000E+00 0.  1.
</event>
<event>
 8    1  0.4798632E-010  0.9118800E+02  0.7816164E-02  0.1184000E+00
        -11   -1    0    0    0    0  0.00000000000E+00  0.00000000000E+00  0.45593999997E+02  0.45594000000E+02  0.51100000000E-03 0. -1.
         11   -1    0    0    0    0 -0.00000000000E+00 -0.00000000000E+00 -0.45593999997E+02  0.45594000000E+02  0.51100000000E-03 0.  1.
         23    2    1    2    0    0  0.00000000000E+00  0.00000000000E+00 -0.35527136788E-14  0.91188000000E+02  0.91188000000E+02 0.  0.
    9900012    2    3    3    0    0 -0.54887554776E+01 -0.32581305390E+02  0.28141703903E+02  0.47787269636E+02  0.19999993578E+02 0.  0.
        -12    1    3    3    0    0  0.54887554776E+01  0.32581305390E+02 -0.28141703903E+02  0.43400730364E+02  0.00000000000E+00 0.  1.
         11    1    4    4    0    0 -0.35392888781E+00 -0.24781262503E+02  0.21072744408E+02  0.32531473899E+02  0.51100000000E-03 0. -1.
        -11    1    4    4    0    0  0.18179004564E+01 -0.58237618206E+01  0.19734443854E+01  0.64121327821E+01  0.51100000000E-03 0.  1.
         12    1    4    4    0    0 -0.69527270462E+01 -0.19762810664E+01  0.50955151091E+01  0.88436629549E+01  0.00000000000E+00 0. -1.
</event>
<event>
 8    1  0.4798632E-010  0.9118800E+02  0.7816164E-02  0.1184000E+00
        -11   -1    0    0    0    0  0.00000000000E+00  0.00000000000E+00  0.45593999997E+02  0.45594000000E+02  0.51100000000E-03 0. -1.
         11   -1    0    0    0    0 -0.00000000000E+00 -0.00000000000E+00 -0.45593999997E+02  0.45594000000E+02  0.51100000000E-03 0.  1.
         23    2    1    2    0    0 -0.71054273576E-14 -0.44408920985E-15  0.00000000000E+00  0.91188000000E+02  0.91188000000E+02 0.  0.
    9900012    2    3    3    0    0 -0.29568472281E+02 -0.33813044434E+01  0.31589485435E+02  0.47787270020E+02  0.19999995331E+02 0.  0.
        -12    1    3    3    0    0  0.29568472281E+02  0.33813044434E+01 -0.31589485435E+02  0.43400729980E+02  0.00000000000E+00 0.  1.
         11    1    4    4    0    0 -0.70401073274E+01 -0.22179048958E+01  0.57439271578E+01  0.93528024016E+01  0.51100000000E-03 0. -1.
        -11    1    4    4    0    0  0.13652540143E+01 -0.36162283720E+01  0.12653187196E+01  0.40671928754E+01  0.51100000000E-03 0.  1.
        -12    1    4    4    0    0 -0.23893618967E+02  0.24528288244E+01  0.24580239557E+02  0.34367274743E+02  0.00000000000E+00 0.  1.
</event>
<event>
 8    1  0.4798632E-010  0.9118800E+02  0.7816164E-02  0.1184000E+00
        -11   -1    0    0    0    0  0.00000000000E+00  0.00000000000E+00  0.45593999997E+02  0.45594000000E+02  0.51100000000E-03 0.  1.
         11   -1    0    0    0    0 -0.00000000000E+00 -0.00000000000E+00 -0.45593999997E+02  0.45594000000E+02  0.51100000000E-03 0. -1.
         23    2    1    2    0    0  0.00000000000E+00  0.00000000000E+00  0.88817841970E-15  0.91188000000E+02  0.91188000000E+02 0.  0.
    9900012    2    3    3    0    0 -0.36461645939E+02 -0.22974655837E+02 -0.51319851430E+01  0.47787266056E+02  0.19999977254E+02 0.  0.
         12    1    3    3    0    0  0.36461645939E+02  0.22974655837E+02  0.51319851430E+01  0.43400733944E+02  0.00000000000E+00 0. -1.
         11    1    4    4    0    0 -0.25566551630E+01  0.31462274718E+01 -0.25568647005E+01  0.47929938749E+01  0.51100000000E-03 0. -1.
        -11    1    4    4    0    0 -0.11774002779E+02 -0.78454309888E+01 -0.19830678398E+01  0.14286724157E+02  0.51100000000E-03 0.  1.
         12    1    4    4    0    0 -0.22130987997E+02 -0.18275452320E+02 -0.59205260269E+00  0.28707548023E+02  0.00000000000E+00 0. -1.
</event>
<event>
 8    1  0.4798632E-010  0.9118800E+02  0.7816164E-02  0.1184000E+00
        -11   -1    0    0    0    0  0.00000000000E+00  0.00000000000E+00  0.45593999997E+02  0.45594000000E+02  0.51100000000E-03 0.  1.
         11   -1    0    0    0    0 -0.00000000000E+00 -0.00000000000E+00 -0.45593999997E+02  0.45594000000E+02  0.51100000000E-03 0. -1.
         23    2    1    2    0    0  0.35527136788E-14  0.35527136788E-14  0.00000000000E+00  0.91188000000E+02  0.91188000000E+02 0.  0.
    9900012    2    3    3    0    0 -0.16973115461E+02 -0.20822501524E+02 -0.34087499210E+02  0.47787299308E+02  0.20000128866E+02 0.  0.
         12    1    3    3    0    0  0.16973115461E+02  0.20822501524E+02  0.34087499210E+02  0.43400700692E+02  0.00000000000E+00 0. -1.
         11    1    4    4    0    0 -0.10881807320E+01 -0.17805354033E+01 -0.11395684919E+02  0.11585166320E+02  0.51100000000E-03 0. -1.
        -11    1    4    4    0    0 -0.73606381076E+01 -0.15835220492E+02 -0.87058037358E+01  0.19512155707E+02  0.51100000000E-03 0.  1.
        -12    1    4    4    0    0 -0.85242966210E+01 -0.32067456280E+01 -0.13986010555E+02  0.16689977282E+02  0.00000000000E+00 0.  1.
</event>
<event>
 8    1  0.4798632E-010  0.9118800E+02  0.7816164E-02  0.1184000E+00
        -11   -1    0    0    0    0  0.00000000000E+00  0.00000000000E+00  0.45593999997E+02  0.45594000000E+02  0.51100000000E-03 0.  1.
         11   -1    0    0    0    0 -0.00000000000E+00 -0.00000000000E+00 -0.45593999997E+02  0.45594000000E+02  0.51100000000E-03 0. -1.
         23    2    1    2    0    0  0.00000000000E+00  0.00000000000E+00  0.22204460493E-15  0.91188000000E+02  0.91188000000E+02 0.  0.
    9900012    2    3    3    0    0  0.41138690903E+02  0.13789333505E+02 -0.10420313496E+01  0.47787269165E+02  0.19999991429E+02 0.  0.
        -12    1    3    3    0    0 -0.41138690903E+02 -0.13789333505E+02  0.10420313496E+01  0.43400730835E+02  0.00000000000E+00 0.  1.
         11    1    4    4    0    0  0.36472337804E+02  0.91294524895E+01 -0.65838473834E+00  0.37603348233E+02  0.51100000000E-03 0. -1.
        -11    1    4    4    0    0 -0.29374217652E+00  0.19370460095E+01 -0.32851947689E+01  0.38250407370E+01  0.51100000000E-03 0.  1.
         12    1    4    4    0    0  0.49600952758E+01  0.27228350059E+01  0.29015481577E+01  0.63588801943E+01  0.00000000000E+00 0. -1.
</event>
<event>
 8    1  0.4798632E-010  0.9118800E+02  0.7816164E-02  0.1184000E+00
        -11   -1    0    0    0    0  0.00000000000E+00  0.00000000000E+00  0.45593999997E+02  0.45594000000E+02  0.51100000000E-03 0. -1.
         11   -1    0    0    0    0 -0.00000000000E+00 -0.00000000000E+00 -0.45593999997E+02  0.45594000000E+02  0.51100000000E-03 0.  1.
         23    2    1    2    0    0  0.44408920985E-15 -0.13322676296E-14  0.71054273576E-14  0.91188000000E+02  0.91188000000E+02 0.  0.
    9900012    2    3    3    0    0  0.22471221087E+01 -0.24195708464E+01 -0.43274930415E+02  0.47787268632E+02  0.19999989003E+02 0.  0.
         12    1    3    3    0    0 -0.22471221087E+01  0.24195708464E+01  0.43274930415E+02  0.43400731368E+02  0.00000000000E+00 0. -1.
         11    1    4    4    0    0  0.67932430371E+01  0.49065255310E+01 -0.86881627095E+01  0.12070887096E+02  0.51100000000E-03 0. -1.
        -11    1    4    4    0    0 -0.12024151973E+01 -0.39777822851E+01 -0.14870421158E+02  0.15440141835E+02  0.51100000000E-03 0.  1.
         12    1    4    4    0    0 -0.33437057311E+01 -0.33483140923E+01 -0.19716346547E+02  0.20276239701E+02  0.00000000000E+00 0. -1.
</event>
<event>
 8    1  0.4798632E-010  0.9118800E+02  0.7816164E-02  0.1184000E+00
        -11   -1    0    0    0    0  0.00000000000E+00  0.00000000000E+00  0.45593999997E+02  0.45594000000E+02  0.51100000000E-03 0. -1.
         11   -1    0    0    0    0 -0.00000000000E+00 -0.00000000000E+00 -0.45593999997E+02  0.45594000000E+02  0.51100000000E-03 0.  1.
         23    2    1    2    0    0  0.44408920985E-15 -0.35527136788E-14 -0.71054273576E-14  0.91188000000E+02  0.91188000000E+02 0.  0.
    9900012    2    3    3    0    0 -0.37884230597E+01  0.26866744113E+02  0.33874018233E+02  0.47787271898E+02  0.20000003893E+02 0.  0.
        -12    1    3    3    0    0  0.37884230597E+01 -0.26866744113E+02 -0.33874018233E+02  0.43400728102E+02  0.00000000000E+00 0.  1.
         11    1    4    4    0    0  0.67660517646E+00  0.14851121416E+02  0.10281079024E+02  0.18075236874E+02  0.51100000000E-03 0. -1.
        -11    1    4    4    0    0 -0.73909992289E+00 -0.23743495557E+01  0.70309262125E+01  0.74577294249E+01  0.51100000000E-03 0.  1.
        -12    1    4    4    0    0 -0.37259283132E+01  0.14389972253E+02  0.16562012996E+02  0.22254305599E+02  0.00000000000E+00 0.  1.
</event>
<event>
 8    1  0.4798632E-010  0.9118800E+02  0.7816164E-02  0.1184000E+00
        -11   -1    0    0    0    0  0.00000000000E+00  0.00000000000E+00  0.45593999997E+02  0.45594000000E+02  0.51100000000E-03 0. -1.
         11   -1    0    0    0    0 -0.00000000000E+00 -0.00000000000E+00 -0.45593999997E+02  0.45594000000E+02  0.51100000000E-03 0.  1.
         23    2    1    2    0    0  0.00000000000E+00  0.00000000000E+00  0.00000000000E+00  0.91188000000E+02  0.91188000000E+02 0.  0.
    9900012    2    3    3    0    0 -0.61253057152E+01 -0.37866988334E+02  0.20302597249E+02  0.47787266934E+02  0.19999981258E+02 0.  0.
        -12    1    3    3    0    0  0.61253057152E+01  0.37866988334E+02 -0.20302597249E+02  0.43400733066E+02  0.00000000000E+00 0.  1.
         11    1    4    4    0    0  0.43930991209E+01 -0.88428497168E+01  0.11663823687E+02  0.15282018658E+02  0.51100000000E-03 0. -1.
        -11    1    4    4    0    0 -0.93199907487E+01 -0.19518081192E+02  0.46298721061E+01  0.22119074053E+02  0.51100000000E-03 0.  1.
         12    1    4    4    0    0 -0.11984140874E+01 -0.95060574255E+01  0.40089014559E+01  0.10386174223E+02  0.00000000000E+00 0. -1.
</event>
<event>
 8    1  0.4798632E-010  0.9118800E+02  0.7816164E-02  0.1184000E+00
        -11   -1    0    0    0    0  0.00000000000E+00  0.00000000000E+00  0.45593999997E+02  0.45594000000E+02  0.51100000000E-03 0. -1.
         11   -1    0    0    0    0 -0.00000000000E+00 -0.00000000000E+00 -0.45593999997E+02  0.45594000000E+02  0.51100000000E-03 0.  1.
         23    2    1    2    0    0  0.00000000000E+00  0.00000000000E+00  0.00000000000E+00  0.91188000000E+02  0.91188000000E+02 0.  0.
    9900012    2    3    3    0    0  0.38273421164E+02  0.17798832149E+02 -0.10098023908E+02  0.47787270970E+02  0.19999999662E+02 0.  0.
         12    1    3    3    0    0 -0.38273421164E+02 -0.17798832149E+02  0.10098023908E+02  0.43400729030E+02  0.00000000000E+00 0. -1.
         11    1    4    4    0    0  0.95309356010E+01 -0.32731490685E+01 -0.47967752782E+01  0.11160703006E+02  0.51100000000E-03 0. -1.
        -11    1    4    4    0    0  0.13897789302E+02  0.13863693087E+02 -0.14693518890E+01  0.19685261714E+02  0.51100000000E-03 0.  1.
         12    1    4    4    0    0  0.14844696261E+02  0.72082881303E+01 -0.38318967412E+01  0.16941306251E+02  0.00000000000E+00 0. -1.
</event>
<event>
 8    1  0.4798632E-010  0.9118800E+02  0.7816164E-02  0.1184000E+00
        -11   -1    0    0    0    0  0.00000000000E+00  0.00000000000E+00  0.45593999997E+02  0.45594000000E+02  0.51100000000E-03 0.  1.
         11   -1    0    0    0    0 -0.00000000000E+00 -0.00000000000E+00 -0.45593999997E+02  0.45594000000E+02  0.51100000000E-03 0. -1.
         23    2    1    2    0    0 -0.35527136788E-14  0.00000000000E+00  0.00000000000E+00  0.91188000000E+02  0.91188000000E+02 0.  0.
    9900012    2    3    3    0    0 -0.24121885447E+02 -0.31924712577E+02 -0.16809805476E+02  0.47787283523E+02  0.20000056893E+02 0.  0.
        -12    1    3    3    0    0  0.24121885447E+02  0.31924712577E+02  0.16809805476E+02  0.43400716477E+02  0.00000000000E+00 0.  1.
         11    1    4    4    0    0 -0.17946082864E+02 -0.16469089854E+02 -0.50770476827E+01  0.24881101748E+02  0.51100000000E-03 0. -1.
        -11    1    4    4    0    0 -0.97005673539E+00 -0.92185178492E+01 -0.11510766022E+02  0.14779032989E+02  0.51100000000E-03 0.  1.
        -12    1    4    4    0    0 -0.52057458475E+01 -0.62371048740E+01 -0.22199177068E+00  0.81271487857E+01  0.00000000000E+00 0.  1.
</event>
<event>
 8    1  0.4798632E-010  0.9118800E+02  0.7816164E-02  0.1184000E+00
        -11   -1    0    0    0    0  0.00000000000E+00  0.00000000000E+00  0.45593999997E+02  0.45594000000E+02  0.51100000000E-03 0. -1.
         11   -1    0    0    0    0 -0.00000000000E+00 -0.00000000000E+00 -0.45593999997E+02  0.45594000000E+02  0.51100000000E-03 0.  1.
         23    2    1    2    0    0  0.00000000000E+00  0.00000000000E+00  0.00000000000E+00  0.91188000000E+02  0.91188000000E+02 0.  0.
    9900012    2    3    3    0    0 -0.87490055809E+01 -0.15041012352E+02  0.39759848502E+02  0.47787277608E+02  0.20000029926E+02 0.  0.
        -12    1    3    3    0    0  0.87490055809E+01  0.15041012352E+02 -0.39759848502E+02  0.43400722392E+02  0.00000000000E+00 0.  1.
         11    1    4    4    0    0 -0.83926856437E+00 -0.14037294246E+01  0.13669937508E+02  0.13767426040E+02  0.51100000000E-03 0. -1.
        -11    1    4    4    0    0 -0.75788812361E+01 -0.13962759143E+01  0.38106840984E+01  0.85971123511E+01  0.51100000000E-03 0.  1.
        -12    1    4    4    0    0 -0.33085578051E+00 -0.12241007013E+02  0.22279226895E+02  0.25422739217E+02  0.00000000000E+00 0.  1.
</event>
<event>
 8    1  0.4798632E-010  0.9118800E+02  0.7816164E-02  0.1184000E+00
        -11   -1    0    0    0    0  0.00000000000E+00  0.00000000000E+00  0.45593999997E+02  0.45594000000E+02  0.51100000000E-03 0. -1.
         11   -1    0    0    0    0 -0.00000000000E+00 -0.00000000000E+00 -0.45593999997E+02  0.45594000000E+02  0.51100000000E-03 0.  1.
         23    2    1    2    0    0  0.00000000000E+00 -0.17763568394E-14  0.00000000000E+00  0.91188000000E+02  0.91188000000E+02 0.  0.
    9900012    2    3    3    0    0  0.27705416464E+02 -0.15007730152E+02 -0.29846290987E+02  0.47787272455E+02  0.20000006432E+02 0.  0.
         12    1    3    3    0    0 -0.27705416464E+02  0.15007730152E+02  0.29846290987E+02  0.43400727545E+02  0.00000000000E+00 0. -1.
         11    1    4    4    0    0 -0.87576206972E+00 -0.34534054699E+01  0.10908480120E+01  0.37259788229E+01  0.51100000000E-03 0. -1.
        -11    1    4    4    0    0  0.12747433207E+02 -0.25045817444E+01 -0.14978186080E+02  0.19827154148E+02  0.51100000000E-03 0.  1.
         12    1    4    4    0    0  0.15833745327E+02 -0.90497429376E+01 -0.15958952918E+02  0.24234139485E+02  0.00000000000E+00 0. -1.
</event>
<event>
 8    1  0.4798632E-010  0.9118800E+02  0.7816164E-02  0.1184000E+00
        -11   -1    0    0    0    0  0.00000000000E+00  0.00000000000E+00  0.45593999997E+02  0.45594000000E+02  0.51100000000E-03 0. -1.
         11   -1    0    0    0    0 -0.00000000000E+00 -0.00000000000E+00 -0.45593999997E+02  0.45594000000E+02  0.51100000000E-03 0.  1.
         23    2    1    2    0    0  0.00000000000E+00  0.00000000000E+00 -0.35527136788E-14  0.91188000000E+02  0.91188000000E+02 0.  0.
    9900012    2    3    3    0    0  0.19917238205E+02  0.32848573910E+02 -0.20196491201E+02  0.47787269102E+02  0.19999991143E+02 0.  0.
         12    1    3    3    0    0 -0.19917238205E+02 -0.32848573910E+02  0.20196491201E+02  0.43400730898E+02  0.00000000000E+00 0. -1.
         11    1    4    4    0    0  0.89609005051E+01  0.20627113784E+02 -0.68416237366E+01  0.23507092048E+02  0.51100000000E-03 0. -1.
        -11    1    4    4    0    0  0.99370796656E+01  0.92088450896E+01 -0.15390565242E+02  0.20504094198E+02  0.51100000000E-03 0.  1.
        -12    1    4    4    0    0  0.10192580345E+01  0.30126150365E+01  0.20356977770E+01  0.37760828563E+01  0.00000000000E+00 0.  1.
</event>
<event>
 8    1  0.4798632E-010  0.9118800E+02  0.7816164E-02  0.1184000E+00
        -11   -1    0    0    0    0  0.00000000000E+00  0.00000000000E+00  0.45593999997E+02  0.45594000000E+02  0.51100000000E-03 0. -1.
         11   -1    0    0    0    0 -0.00000000000E+00 -0.00000000000E+00 -0.45593999997E+02  0.45594000000E+02  0.51100000000E-03 0.  1.
         23    2    1    2    0    0  0.00000000000E+00  0.00000000000E+00  0.00000000000E+00  0.91188000000E+02  0.91188000000E+02 0.  0.
    9900012    2    3    3    0    0 -0.56767860247E+01  0.29742956723E+02 -0.31092668122E+02  0.47787269762E+02  0.19999994154E+02 0.  0.
         12    1    3    3    0    0  0.56767860247E+01 -0.29742956723E+02  0.31092668122E+02  0.43400730238E+02  0.00000000000E+00 0. -1.
         11    1    4    4    0    0  0.22758542932E+01  0.77362029788E+01 -0.19777603072E+01  0.83030045999E+01  0.51100000000E-03 0. -1.
        -11    1    4    4    0    0 -0.49666464827E+01  0.88361926868E+01 -0.21993284683E+02  0.24216739044E+02  0.51100000000E-03 0.  1.
         12    1    4    4    0    0 -0.29859938351E+01  0.13170561057E+02 -0.71216231318E+01  0.15267526119E+02  0.00000000000E+00 0. -1.
</event>
<event>
 8    1  0.4798632E-010  0.9118800E+02  0.7816164E-02  0.1184000E+00
        -11   -1    0    0    0    0  0.00000000000E+00  0.00000000000E+00  0.45593999997E+02  0.45594000000E+02  0.51100000000E-03 0. -1.
         11   -1    0    0    0    0 -0.00000000000E+00 -0.00000000000E+00 -0.45593999997E+02  0.45594000000E+02  0.51100000000E-03 0.  1.
         23    2    1    2    0    0 -0.17763568394E-14 -0.88817841970E-15  0.00000000000E+00  0.91188000000E+02  0.91188000000E+02 0.  0.
    9900012    2    3    3    0    0 -0.99292664085E+01  0.40356951624E+01  0.42056459129E+02  0.47787275106E+02  0.20000018517E+02 0.  0.
        -12    1    3    3    0    0  0.99292664085E+01 -0.40356951624E+01 -0.42056459129E+02  0.43400724894E+02  0.00000000000E+00 0.  1.
         11    1    4    4    0    0 -0.69740819491E+01 -0.18068347934E+01  0.16854809375E+02  0.18329950091E+02  0.51100000000E-03 0. -1.
        -11    1    4    4    0    0  0.25674092371E+01  0.86661802817E+01  0.15479473882E+02  0.17925076925E+02  0.51100000000E-03 0.  1.
        -12    1    4    4    0    0 -0.55225936965E+01 -0.28236503258E+01  0.97221758723E+01  0.11532248089E+02  0.00000000000E+00 0.  1.
</event>
<event>
 8    1  0.4798632E-010  0.9118800E+02  0.7816164E-02  0.1184000E+00
        -11   -1    0    0    0    0  0.00000000000E+00  0.00000000000E+00  0.45593999997E+02  0.45594000000E+02  0.51100000000E-03 0. -1.
         11   -1    0    0    0    0 -0.00000000000E+00 -0.00000000000E+00 -0.45593999997E+02  0.45594000000E+02  0.51100000000E-03 0.  1.
         23    2    1    2    0    0  0.17763568394E-14  0.00000000000E+00  0.00000000000E+00  0.91188000000E+02  0.91188000000E+02 0.  0.
    9900012    2    3    3    0    0  0.13875660331E+02  0.26447963390E+02 -0.31489595454E+02  0.47787270295E+02  0.19999996581E+02 0.  0.
         12    1    3    3    0    0 -0.13875660331E+02 -0.26447963390E+02  0.31489595454E+02  0.43400729705E+02  0.00000000000E+00 0. -1.
         11    1    4    4    0    0  0.83779927041E-01  0.13397314975E+01 -0.54156877985E+01  0.55795675597E+01  0.51100000000E-03 0. -1.
        -11    1    4    4    0    0  0.10861798183E+01  0.17792123512E+02 -0.18557740245E+02  0.25731870684E+02  0.51100000000E-03 0.  1.
        -12    1    4    4    0    0  0.12705700586E+02  0.73161083814E+01 -0.75161674102E+01  0.16475832050E+02  0.00000000000E+00 0.  1.
</event>
<event>
 8    1  0.4798632E-010  0.9118800E+02  0.7816164E-02  0.1184000E+00
        -11   -1    0    0    0    0  0.00000000000E+00  0.00000000000E+00  0.45593999997E+02  0.45594000000E+02  0.51100000000E-03 0. -1.
         11   -1    0    0    0    0 -0.00000000000E+00 -0.00000000000E+00 -0.45593999997E+02  0.45594000000E+02  0.51100000000E-03 0.  1.
         23    2    1    2    0    0  0.00000000000E+00  0.35527136788E-14 -0.71054273576E-14  0.91188000000E+02  0.91188000000E+02 0.  0.
    9900012    2    3    3    0    0 -0.11045365378E+02 -0.22360361958E+02  0.35519534696E+02  0.47787271570E+02  0.20000002395E+02 0.  0.
        -12    1    3    3    0    0  0.11045365378E+02  0.22360361958E+02 -0.35519534696E+02  0.43400728430E+02  0.00000000000E+00 0.  1.
         11    1    4    4    0    0  0.21448488305E+01 -0.83141467711E+01  0.17917663839E+02  0.19868771747E+02  0.51100000000E-03 0.  1.
        -11    1    4    4    0    0 -0.11862505835E+02 -0.13390476903E+02  0.10668687255E+02  0.20828941509E+02  0.51100000000E-03 0. -1.
         12    1    4    4    0    0 -0.13277083734E+01 -0.65573828457E+00  0.69331836023E+01  0.70895583139E+01  0.00000000000E+00 0. -1.
</event>
<event>
 8    1  0.4798632E-010  0.9118800E+02  0.7816164E-02  0.1184000E+00
        -11   -1    0    0    0    0  0.00000000000E+00  0.00000000000E+00  0.45593999997E+02  0.45594000000E+02  0.51100000000E-03 0. -1.
         11   -1    0    0    0    0 -0.00000000000E+00 -0.00000000000E+00 -0.45593999997E+02  0.45594000000E+02  0.51100000000E-03 0.  1.
         23    2    1    2    0    0  0.00000000000E+00  0.35527136788E-14  0.00000000000E+00  0.91188000000E+02  0.91188000000E+02 0.  0.
    9900012    2    3    3    0    0  0.22760996293E+02 -0.20646466810E+02  0.30647734134E+02  0.47787272454E+02  0.20000006426E+02 0.  0.
        -12    1    3    3    0    0 -0.22760996293E+02  0.20646466810E+02 -0.30647734134E+02  0.43400727546E+02  0.00000000000E+00 0.  1.
         11    1    4    4    0    0  0.13612146193E+02 -0.79283562451E+01  0.15819767969E+02  0.22325196877E+02  0.51100000000E-03 0. -1.
        -11    1    4    4    0    0  0.67326112878E+01 -0.88038826597E+01  0.17064054830E+02  0.20347441415E+02  0.51100000000E-03 0.  1.
         12    1    4    4    0    0  0.24162388123E+01 -0.39142279056E+01 -0.22360886652E+01  0.51146341622E+01  0.00000000000E+00 0. -1.
</event>
<event>
 8    1  0.4798632E-010  0.9118800E+02  0.7816164E-02  0.1184000E+00
        -11   -1    0    0    0    0  0.00000000000E+00  0.00000000000E+00  0.45593999997E+02  0.45594000000E+02  0.51100000000E-03 0. -1.
         11   -1    0    0    0    0 -0.00000000000E+00 -0.00000000000E+00 -0.45593999997E+02  0.45594000000E+02  0.51100000000E-03 0.  1.
         23    2    1    2    0    0  0.00000000000E+00  0.44408920985E-15  0.35527136788E-14  0.91188000000E+02  0.91188000000E+02 0.  0.
    9900012    2    3    3    0    0  0.34363323698E+02 -0.29578383945E+01 -0.26344572798E+02  0.47787270289E+02  0.19999996557E+02 0.  0.
         12    1    3    3    0    0 -0.34363323698E+02  0.29578383945E+01  0.26344572798E+02  0.43400729711E+02  0.00000000000E+00 0. -1.
         11    1    4    4    0    0  0.28649020490E+01  0.65454687060E+00  0.19654036049E+01  0.35353793216E+01  0.51100000000E-03 0. -1.
        -11    1    4    4    0    0  0.27330804431E+02 -0.74007485629E+01 -0.24589933207E+02  0.37502116814E+02  0.51100000000E-03 0.  1.
        -12    1    4    4    0    0  0.41676172179E+01  0.37883632978E+01 -0.37200431953E+01  0.67497741537E+01  0.00000000000E+00 0.  1.
</event>
<event>
 8    1  0.4798632E-010  0.9118800E+02  0.7816164E-02  0.1184000E+00
        -11   -1    0    0    0    0  0.00000000000E+00  0.00000000000E+00  0.45593999997E+02  0.45594000000E+02  0.51100000000E-03 0. -1.
         11   -1    0    0    0    0 -0.00000000000E+00 -0.00000000000E+00 -0.45593999997E+02  0.45594000000E+02  0.51100000000E-03 0.  1.
         23    2    1    2    0    0  0.00000000000E+00  0.00000000000E+00 -0.44408920985E-15  0.91188000000E+02  0.91188000000E+02 0.  0.
    9900012    2    3    3    0    0  0.27718481035E+02  0.33294683086E+02 -0.26026687273E+01  0.47787262711E+02  0.19999962007E+02 0.  0.
         12    1    3    3    0    0 -0.27718481035E+02 -0.33294683086E+02  0.26026687273E+01  0.43400737289E+02  0.00000000000E+00 0. -1.
         11    1    4    4    0    0  0.32509667686E+01  0.14669055060E+02  0.46019353442E+01  0.15713935550E+02  0.51100000000E-03 0. -1.
        -11    1    4    4    0    0  0.15480317282E+02  0.86846041009E+01 -0.53864604398E+01  0.18549299930E+02  0.51100000000E-03 0.  1.
        -12    1    4    4    0    0  0.89871969839E+01  0.99410239247E+01 -0.18181436317E+01  0.13524027232E+02  0.00000000000E+00 0.  1.
</event>
<event>
 8    1  0.4798632E-010  0.9118800E+02  0.7816164E-02  0.1184000E+00
        -11   -1    0    0    0    0  0.00000000000E+00  0.00000000000E+00  0.45593999997E+02  0.45594000000E+02  0.51100000000E-03 0. -1.
         11   -1    0    0    0    0 -0.00000000000E+00 -0.00000000000E+00 -0.45593999997E+02  0.45594000000E+02  0.51100000000E-03 0.  1.
         23    2    1    2    0    0  0.44408920985E-15  0.00000000000E+00  0.00000000000E+00  0.91188000000E+02  0.91188000000E+02 0.  0.
    9900012    2    3    3    0    0  0.23062596578E+01 -0.32332596185E+02 -0.28860156228E+02  0.47787260062E+02  0.19999949928E+02 0.  0.
         12    1    3    3    0    0 -0.23062596578E+01  0.32332596185E+02  0.28860156228E+02  0.43400739938E+02  0.00000000000E+00 0. -1.
         11    1    4    4    0    0  0.51909694781E+01 -0.29379869544E+02 -0.26412806990E+02  0.39846697126E+02  0.51100000000E-03 0. -1.
        -11    1    4    4    0    0 -0.29491943136E+00 -0.24782465122E+01 -0.41231072700E+01  0.48196158631E+01  0.51100000000E-03 0.  1.
         12    1    4    4    0    0 -0.25897903889E+01 -0.47448012885E+00  0.16757580321E+01  0.31209470732E+01  0.00000000000E+00 0. -1.
</event>
<event>
 8    1  0.4798632E-010  0.9118800E+02  0.7816164E-02  0.1184000E+00
        -11   -1    0    0    0    0  0.00000000000E+00  0.00000000000E+00  0.45593999997E+02  0.45594000000E+02  0.51100000000E-03 0. -1.
         11   -1    0    0    0    0 -0.00000000000E+00 -0.00000000000E+00 -0.45593999997E+02  0.45594000000E+02  0.51100000000E-03 0.  1.
         23    2    1    2    0    0  0.13322676296E-14 -0.35527136788E-14  0.00000000000E+00  0.91188000000E+02  0.91188000000E+02 0.  0.
    9900012    2    3    3    0    0 -0.22055282951E+01 -0.20239986603E+02 -0.38328868400E+02  0.47787267684E+02  0.19999984681E+02 0.  0.
         12    1    3    3    0    0  0.22055282951E+01  0.20239986603E+02  0.38328868400E+02  0.43400732316E+02  0.00000000000E+00 0. -1.
         11    1    4    4    0    0 -0.62078898512E+01 -0.86550930302E+01 -0.11060224557E+02  0.15355034982E+02  0.51100000000E-03 0. -1.
        -11    1    4    4    0    0  0.18940048907E+01 -0.46593154565E+01 -0.23942903256E+02  0.24465467330E+02  0.51100000000E-03 0.  1.
        -12    1    4    4    0    0  0.21083566655E+01 -0.69255781159E+01 -0.33257405859E+01  0.79667653733E+01  0.00000000000E+00 0.  1.
</event>
<event>
 8    1  0.4798632E-010  0.9118800E+02  0.7816164E-02  0.1184000E+00
        -11   -1    0    0    0    0  0.00000000000E+00  0.00000000000E+00  0.45593999997E+02  0.45594000000E+02  0.51100000000E-03 0. -1.
         11   -1    0    0    0    0 -0.00000000000E+00 -0.00000000000E+00 -0.45593999997E+02  0.45594000000E+02  0.51100000000E-03 0.  1.
         23    2    1    2    0    0  0.17763568394E-14  0.00000000000E+00  0.00000000000E+00  0.91188000000E+02  0.91188000000E+02 0.  0.
    9900012    2    3    3    0    0  0.11931328838E+02 -0.19361792160E+02  0.36964750732E+02  0.47787211986E+02  0.19999730729E+02 0.  0.
        -12    1    3    3    0    0 -0.11931328838E+02  0.19361792160E+02 -0.36964750732E+02  0.43400788014E+02  0.00000000000E+00 0.  1.
         11    1    4    4    0    0  0.28638876311E+01 -0.13151113694E+02  0.20153138319E+02  0.24234327474E+02  0.51100000000E-03 0. -1.
        -11    1    4    4    0    0  0.11092295667E+02 -0.15201831802E+01  0.98117238825E+01  0.14886903838E+02  0.51100000000E-03 0.  1.
        -12    1    4    4    0    0 -0.20248544598E+01 -0.46904952861E+01  0.69998885305E+01  0.86659806746E+01  0.00000000000E+00 0.  1.
</event>
<event>
 8    1  0.4798632E-010  0.9118800E+02  0.7816164E-02  0.1184000E+00
        -11   -1    0    0    0    0  0.00000000000E+00  0.00000000000E+00  0.45593999997E+02  0.45594000000E+02  0.51100000000E-03 0. -1.
         11   -1    0    0    0    0 -0.00000000000E+00 -0.00000000000E+00 -0.45593999997E+02  0.45594000000E+02  0.51100000000E-03 0.  1.
         23    2    1    2    0    0 -0.35527136788E-14 -0.88817841970E-15  0.35527136788E-14  0.91188000000E+02  0.91188000000E+02 0.  0.
    9900012    2    3    3    0    0 -0.31104587373E+02 -0.76362811791E+01  0.29288483849E+02  0.47787269222E+02  0.19999991689E+02 0.  0.
        -12    1    3    3    0    0  0.31104587373E+02  0.76362811791E+01 -0.29288483849E+02  0.43400730778E+02  0.00000000000E+00 0.  1.
         11    1    4    4    0    0 -0.15498623539E+02 -0.84069303606E+01  0.59876307520E+01  0.18620835963E+02  0.51100000000E-03 0. -1.
        -11    1    4    4    0    0 -0.57061803161E+00  0.11441355332E+01 -0.17046644919E+00  0.12898488779E+01  0.51100000000E-03 0.  1.
         12    1    4    4    0    0 -0.15035345803E+02 -0.37348635175E+00  0.23471319547E+02  0.27876584381E+02  0.00000000000E+00 0. -1.
</event>
<event>
 8    1  0.4798632E-010  0.9118800E+02  0.7816164E-02  0.1184000E+00
        -11   -1    0    0    0    0  0.00000000000E+00  0.00000000000E+00  0.45593999997E+02  0.45594000000E+02  0.51100000000E-03 0. -1.
         11   -1    0    0    0    0 -0.00000000000E+00 -0.00000000000E+00 -0.45593999997E+02  0.45594000000E+02  0.51100000000E-03 0.  1.
         23    2    1    2    0    0  0.00000000000E+00  0.00000000000E+00  0.00000000000E+00  0.91188000000E+02  0.91188000000E+02 0.  0.
    9900012    2    3    3    0    0 -0.19193033896E+02  0.28315308803E+02  0.26711309002E+02  0.47787270843E+02  0.19999999083E+02 0.  0.
        -12    1    3    3    0    0  0.19193033896E+02 -0.28315308803E+02 -0.26711309002E+02  0.43400729157E+02  0.00000000000E+00 0.  1.
         11    1    4    4    0    0 -0.19496480883E+01  0.13621696318E+02  0.43614002715E+01  0.14435149838E+02  0.51100000000E-03 0. -1.
        -11    1    4    4    0    0 -0.96906126574E+00 -0.95708073977E+00  0.40994092165E+01  0.43197499308E+01  0.51100000000E-03 0.  1.
         12    1    4    4    0    0 -0.16274324542E+02  0.15650693224E+02  0.18250499514E+02  0.29032371075E+02  0.00000000000E+00 0. -1.
</event>
<event>
 8    1  0.4798632E-010  0.9118800E+02  0.7816164E-02  0.1184000E+00
        -11   -1    0    0    0    0  0.00000000000E+00  0.00000000000E+00  0.45593999997E+02  0.45594000000E+02  0.51100000000E-03 0. -1.
         11   -1    0    0    0    0 -0.00000000000E+00 -0.00000000000E+00 -0.45593999997E+02  0.45594000000E+02  0.51100000000E-03 0.  1.
         23    2    1    2    0    0  0.44408920985E-15  0.00000000000E+00  0.00000000000E+00  0.91188000000E+02  0.91188000000E+02 0.  0.
    9900012    2    3    3    0    0 -0.22747511615E+01 -0.20940803755E+02  0.37946428430E+02  0.47787272065E+02  0.20000004651E+02 0.  0.
        -12    1    3    3    0    0  0.22747511615E+01  0.20940803755E+02 -0.37946428430E+02  0.43400727935E+02  0.00000000000E+00 0.  1.
         11    1    4    4    0    0  0.29332495244E+01 -0.12099371464E+02  0.83092534932E+01  0.14968047183E+02  0.51100000000E-03 0. -1.
        -11    1    4    4    0    0  0.18720818079E+00 -0.72870973924E+01  0.22990759094E+02  0.24118703101E+02  0.51100000000E-03 0.  1.
        -12    1    4    4    0    0 -0.53952088666E+01 -0.15543348985E+01  0.66464158422E+01  0.87005217797E+01  0.00000000000E+00 0.  1.
</event>
<event>
 8    1  0.4798632E-010  0.9118800E+02  0.7816164E-02  0.1184000E+00
        -11   -1    0    0    0    0  0.00000000000E+00  0.00000000000E+00  0.45593999997E+02  0.45594000000E+02  0.51100000000E-03 0. -1.
         11   -1    0    0    0    0 -0.00000000000E+00 -0.00000000000E+00 -0.45593999997E+02  0.45594000000E+02  0.51100000000E-03 0.  1.
         23    2    1    2    0    0 -0.35527136788E-14  0.00000000000E+00  0.35527136788E-14  0.91188000000E+02  0.91188000000E+02 0.  0.
    9900012    2    3    3    0    0 -0.28671217462E+02 -0.17973491501E+02  0.27176060362E+02  0.47787270003E+02  0.19999995251E+02 0.  0.
        -12    1    3    3    0    0  0.28671217462E+02  0.17973491501E+02 -0.27176060362E+02  0.43400729997E+02  0.00000000000E+00 0.  1.
         11    1    4    4    0    0 -0.80496427070E+01 -0.93815742698E+01  0.10824351555E+02  0.16430985069E+02  0.51100000000E-03 0. -1.
        -11    1    4    4    0    0 -0.17946718633E+02 -0.23461776635E+00  0.10255860734E+02  0.20671778705E+02  0.51100000000E-03 0.  1.
        -12    1    4    4    0    0 -0.26748561220E+01 -0.83572994651E+01  0.60958480735E+01  0.10684506229E+02  0.00000000000E+00 0.  1.
</event>
<event>
 8    1  0.4798632E-010  0.9118800E+02  0.7816164E-02  0.1184000E+00
        -11   -1    0    0    0    0  0.00000000000E+00  0.00000000000E+00  0.45593999997E+02  0.45594000000E+02  0.51100000000E-03 0. -1.
         11   -1    0    0    0    0 -0.00000000000E+00 -0.00000000000E+00 -0.45593999997E+02  0.45594000000E+02  0.51100000000E-03 0.  1.
         23    2    1    2    0    0  0.44408920985E-15 -0.22204460493E-15  0.00000000000E+00  0.91188000000E+02  0.91188000000E+02 0.  0.
    9900012    2    3    3    0    0 -0.25358535849E+01  0.17649223801E+01  0.43290610690E+02  0.47787280209E+02  0.20000041786E+02 0.  0.
        -12    1    3    3    0    0  0.25358535849E+01 -0.17649223801E+01 -0.43290610690E+02  0.43400719791E+02  0.00000000000E+00 0.  1.
         11    1    4    4    0    0 -0.98818964282E+01 -0.97941730603E+00  0.30879369410E+02  0.32436809194E+02  0.51100000000E-03 0. -1.
        -11    1    4    4    0    0  0.52587657298E+01  0.15232485592E+01  0.45283076011E+01  0.71049611657E+01  0.51100000000E-03 0.  1.
        -12    1    4    4    0    0  0.20872771134E+01  0.12210911270E+01  0.78829336792E+01  0.82455098496E+01  0.00000000000E+00 0.  1.
</event>
<event>
 8    1  0.4798632E-010  0.9118800E+02  0.7816164E-02  0.1184000E+00
        -11   -1    0    0    0    0  0.00000000000E+00  0.00000000000E+00  0.45593999997E+02  0.45594000000E+02  0.51100000000E-03 0. -1.
         11   -1    0    0    0    0 -0.00000000000E+00 -0.00000000000E+00 -0.45593999997E+02  0.45594000000E+02  0.51100000000E-03 0.  1.
         23    2    1    2    0    0  0.88817841970E-15  0.17763568394E-14  0.00000000000E+00  0.91188000000E+02  0.91188000000E+02 0.  0.
    9900012    2    3    3    0    0  0.66938530274E+01 -0.13000431935E+02 -0.40863237936E+02  0.47787272892E+02  0.20000008424E+02 0.  0.
         12    1    3    3    0    0 -0.66938530274E+01  0.13000431935E+02  0.40863237936E+02  0.43400727108E+02  0.00000000000E+00 0. -1.
         11    1    4    4    0    0  0.28673956970E+01 -0.47692217031E+01 -0.57014251393E+00  0.55939696535E+01  0.51100000000E-03 0. -1.
        -11    1    4    4    0    0  0.62679882128E+01 -0.68600334786E+01 -0.34908579233E+02  0.36124183588E+02  0.51100000000E-03 0.  1.
        -12    1    4    4    0    0 -0.24415308823E+01 -0.13711767536E+01 -0.53845161891E+01  0.60691196503E+01  0.00000000000E+00 0.  1.
</event>
<event>
 8    1  0.4798632E-010  0.9118800E+02  0.7816164E-02  0.1184000E+00
        -11   -1    0    0    0    0  0.00000000000E+00  0.00000000000E+00  0.45593999997E+02  0.45594000000E+02  0.51100000000E-03 0. -1.
         11   -1    0    0    0    0 -0.00000000000E+00 -0.00000000000E+00 -0.45593999997E+02  0.45594000000E+02  0.51100000000E-03 0.  1.
         23    2    1    2    0    0  0.00000000000E+00  0.00000000000E+00  0.00000000000E+00  0.91188000000E+02  0.91188000000E+02 0.  0.
    9900012    2    3    3    0    0 -0.48497246182E+01 -0.11824888802E+02 -0.41476206777E+02  0.47787267832E+02  0.19999985355E+02 0.  0.
         12    1    3    3    0    0  0.48497246182E+01  0.11824888802E+02  0.41476206777E+02  0.43400732168E+02  0.00000000000E+00 0. -1.
         11    1    4    4    0    0  0.43260742320E+01 -0.10545583956E+02 -0.18151978150E+02  0.21434051653E+02  0.51100000000E-03 0. -1.
        -11    1    4    4    0    0 -0.13043294520E+01 -0.30432285174E+01 -0.12008283709E+02  0.12456379612E+02  0.51100000000E-03 0.  1.
         12    1    4    4    0    0 -0.78714693982E+01  0.17639236714E+01 -0.11315944918E+02  0.13896836568E+02  0.00000000000E+00 0. -1.
</event>
<event>
 8    1  0.4798632E-010  0.9118800E+02  0.7816164E-02  0.1184000E+00
        -11   -1    0    0    0    0  0.00000000000E+00  0.00000000000E+00  0.45593999997E+02  0.45594000000E+02  0.51100000000E-03 0. -1.
         11   -1    0    0    0    0 -0.00000000000E+00 -0.00000000000E+00 -0.45593999997E+02  0.45594000000E+02  0.51100000000E-03 0.  1.
         23    2    1    2    0    0 -0.88817841970E-15  0.00000000000E+00 -0.35527136788E-14  0.91188000000E+02  0.91188000000E+02 0.  0.
    9900012    2    3    3    0    0  0.76378291299E+01 -0.38052686416E+02 -0.19423696913E+02  0.47787269833E+02  0.19999994475E+02 0.  0.
         12    1    3    3    0    0 -0.76378291299E+01  0.38052686416E+02  0.19423696913E+02  0.43400730167E+02  0.00000000000E+00 0. -1.
         11    1    4    4    0    0 -0.92338595388E+00 -0.89280401650E+01  0.46791978534E+00  0.89878524684E+01  0.51100000000E-03 0. -1.
        -11    1    4    4    0    0  0.10403604165E+02 -0.23636175383E+02 -0.10736655771E+02  0.27967472960E+02  0.51100000000E-03 0.  1.
        -12    1    4    4    0    0 -0.18423890809E+01 -0.54884708678E+01 -0.91549609277E+01  0.10831944404E+02  0.00000000000E+00 0.  1.
</event>
<event>
 8    1  0.4798632E-010  0.9118800E+02  0.7816164E-02  0.1184000E+00
        -11   -1    0    0    0    0  0.00000000000E+00  0.00000000000E+00  0.45593999997E+02  0.45594000000E+02  0.51100000000E-03 0. -1.
         11   -1    0    0    0    0 -0.00000000000E+00 -0.00000000000E+00 -0.45593999997E+02  0.45594000000E+02  0.51100000000E-03 0.  1.
         23    2    1    2    0    0 -0.35527136788E-14  0.00000000000E+00 -0.71054273576E-14  0.91188000000E+02  0.91188000000E+02 0.  0.
    9900012    2    3    3    0    0  0.20016290670E+02  0.10780378261E+02  0.36969646847E+02  0.47787271485E+02  0.20000002011E+02 0.  0.
        -12    1    3    3    0    0 -0.20016290670E+02 -0.10780378261E+02 -0.36969646847E+02  0.43400728515E+02  0.00000000000E+00 0.  1.
         11    1    4    4    0    0  0.62975031454E+00  0.31136174005E+01  0.40683472125E+01  0.51616516812E+01  0.51100000000E-03 0. -1.
        -11    1    4    4    0    0  0.25612422958E+01  0.96224559365E+01  0.97190613250E+01  0.13914444784E+02  0.51100000000E-03 0.  1.
        -12    1    4    4    0    0  0.16825298060E+02 -0.19556950759E+01  0.23182238309E+02  0.28711175020E+02  0.00000000000E+00 0.  1.
</event>
<event>
 8    1  0.4798632E-010  0.9118800E+02  0.7816164E-02  0.1184000E+00
        -11   -1    0    0    0    0  0.00000000000E+00  0.00000000000E+00  0.45593999997E+02  0.45594000000E+02  0.51100000000E-03 0.  1.
         11   -1    0    0    0    0 -0.00000000000E+00 -0.00000000000E+00 -0.45593999997E+02  0.45594000000E+02  0.51100000000E-03 0. -1.
         23    2    1    2    0    0  0.00000000000E+00  0.00000000000E+00 -0.53949900103E-15  0.91188000000E+02  0.91188000000E+02 0.  0.
    9900012    2    3    3    0    0 -0.39600309170E+02 -0.17760577384E+02  0.10521334153E-01  0.47787277586E+02  0.20000029826E+02 0.  0.
        -12    1    3    3    0    0  0.39600309170E+02  0.17760577384E+02 -0.10521334153E-01  0.43400722414E+02  0.00000000000E+00 0.  1.
         11    1    4    4    0    0 -0.18282416740E+01 -0.14923624531E+01 -0.40570728808E+01  0.46935545092E+01  0.51100000000E-03 0. -1.
        -11    1    4    4    0    0 -0.36177002301E+02 -0.17659176227E+02  0.53626485449E+01  0.40612559636E+02  0.51100000000E-03 0.  1.
        -12    1    4    4    0    0 -0.15950651943E+01  0.13909612961E+01 -0.12950543300E+01  0.24811634406E+01  0.00000000000E+00 0.  1.
</event>
<event>
 8    1  0.4798632E-010  0.9118800E+02  0.7816164E-02  0.1184000E+00
        -11   -1    0    0    0    0  0.00000000000E+00  0.00000000000E+00  0.45593999997E+02  0.45594000000E+02  0.51100000000E-03 0. -1.
         11   -1    0    0    0    0 -0.00000000000E+00 -0.00000000000E+00 -0.45593999997E+02  0.45594000000E+02  0.51100000000E-03 0.  1.
         23    2    1    2    0    0  0.00000000000E+00 -0.35527136788E-14 -0.71054273576E-14  0.91188000000E+02  0.91188000000E+02 0.  0.
    9900012    2    3    3    0    0  0.94893706368E+01 -0.23972019277E+02 -0.34912998063E+02  0.47787270778E+02  0.19999998784E+02 0.  0.
         12    1    3    3    0    0 -0.94893706368E+01  0.23972019277E+02  0.34912998063E+02  0.43400729222E+02  0.00000000000E+00 0. -1.
         11    1    4    4    0    0 -0.96761529749E+00  0.10408788675E+00 -0.24356563300E+01  0.26228868963E+01  0.51100000000E-03 0. -1.
        -11    1    4    4    0    0  0.90720297473E+01 -0.72648521029E+01 -0.23114323669E+02  0.25871833308E+02  0.51100000000E-03 0.  1.
        -12    1    4    4    0    0  0.13849561871E+01 -0.16811255060E+02 -0.93630180642E+01  0.19292550573E+02  0.00000000000E+00 0.  1.
</event>
<event>
 8    1  0.4798632E-010  0.9118800E+02  0.7816164E-02  0.1184000E+00
        -11   -1    0    0    0    0  0.00000000000E+00  0.00000000000E+00  0.45593999997E+02  0.45594000000E+02  0.51100000000E-03 0. -1.
         11   -1    0    0    0    0 -0.00000000000E+00 -0.00000000000E+00 -0.45593999997E+02  0.45594000000E+02  0.51100000000E-03 0.  1.
         23    2    1    2    0    0 -0.17763568394E-14  0.00000000000E+00  0.00000000000E+00  0.91188000000E+02  0.91188000000E+02 0.  0.
    9900012    2    3    3    0    0 -0.98660741301E+01 -0.20103132375E+02 -0.37177248735E+02  0.47787272201E+02  0.20000005272E+02 0.  0.
         12    1    3    3    0    0  0.98660741301E+01  0.20103132375E+02  0.37177248735E+02  0.43400727799E+02  0.00000000000E+00 0. -1.
         11    1    4    4    0    0  0.34372016420E+01 -0.82072876830E+01 -0.75470726996E+01  0.11667571848E+02  0.51100000000E-03 0. -1.
        -11    1    4    4    0    0 -0.13669652792E+02 -0.12912876232E+02 -0.24541245785E+02  0.30917220524E+02  0.51100000000E-03 0.  1.
         12    1    4    4    0    0  0.36637701952E+00  0.10170315391E+01 -0.50889302504E+01  0.52024798284E+01  0.00000000000E+00 0. -1.
</event>
<event>
 8    1  0.4798632E-010  0.9118800E+02  0.7816164E-02  0.1184000E+00
        -11   -1    0    0    0    0  0.00000000000E+00  0.00000000000E+00  0.45593999997E+02  0.45594000000E+02  0.51100000000E-03 0.  1.
         11   -1    0    0    0    0 -0.00000000000E+00 -0.00000000000E+00 -0.45593999997E+02  0.45594000000E+02  0.51100000000E-03 0. -1.
         23    2    1    2    0    0  0.00000000000E+00 -0.71054273576E-14  0.66613381478E-15  0.91188000000E+02  0.91188000000E+02 0.  0.
    9900012    2    3    3    0    0 -0.22908705622E+02 -0.36812787858E+02 -0.19059841078E+01  0.47787275138E+02  0.20000018663E+02 0.  0.
         12    1    3    3    0    0  0.22908705622E+02  0.36812787858E+02  0.19059841078E+01  0.43400724862E+02  0.00000000000E+00 0. -1.
         11    1    4    4    0    0 -0.11147007533E+02 -0.22785541510E+02  0.22784087422E+01  0.25468172795E+02  0.51100000000E-03 0. -1.
        -11    1    4    4    0    0 -0.36178154895E+01 -0.87874732706E+01  0.33215963639E+01  0.10066840520E+02  0.51100000000E-03 0.  1.
         12    1    4    4    0    0 -0.81438825986E+01 -0.52397730780E+01 -0.75059892140E+01  0.12252261823E+02  0.00000000000E+00 0. -1.
</event>
<event>
 8    1  0.4798632E-010  0.9118800E+02  0.7816164E-02  0.1184000E+00
        -11   -1    0    0    0    0  0.00000000000E+00  0.00000000000E+00  0.45593999997E+02  0.45594000000E+02  0.51100000000E-03 0. -1.
         11   -1    0    0    0    0 -0.00000000000E+00 -0.00000000000E+00 -0.45593999997E+02  0.45594000000E+02  0.51100000000E-03 0.  1.
         23    2    1    2    0    0  0.00000000000E+00 -0.88817841970E-15  0.00000000000E+00  0.91188000000E+02  0.91188000000E+02 0.  0.
    9900012    2    3    3    0    0 -0.32220791988E+02  0.67650586593E+01  0.28278574385E+02  0.47787271616E+02  0.20000002607E+02 0.  0.
        -12    1    3    3    0    0  0.32220791988E+02 -0.67650586593E+01 -0.28278574385E+02  0.43400728384E+02  0.00000000000E+00 0.  1.
         11    1    4    4    0    0 -0.14160719430E+02 -0.19043480003E+00  0.88637837445E+01  0.16707151245E+02  0.51100000000E-03 0. -1.
        -11    1    4    4    0    0 -0.15054449413E+02  0.11322362301E+02  0.13748991524E+02  0.23320958458E+02  0.51100000000E-03 0.  1.
        -12    1    4    4    0    0 -0.30056231445E+01 -0.43668688418E+01  0.56657991163E+01  0.77591619132E+01  0.00000000000E+00 0.  1.
</event>
<event>
 8    1  0.4798632E-010  0.9118800E+02  0.7816164E-02  0.1184000E+00
        -11   -1    0    0    0    0  0.00000000000E+00  0.00000000000E+00  0.45593999997E+02  0.45594000000E+02  0.51100000000E-03 0. -1.
         11   -1    0    0    0    0 -0.00000000000E+00 -0.00000000000E+00 -0.45593999997E+02  0.45594000000E+02  0.51100000000E-03 0.  1.
         23    2    1    2    0    0 -0.88817841970E-15  0.00000000000E+00 -0.71054273576E-14  0.91188000000E+02  0.91188000000E+02 0.  0.
    9900012    2    3    3    0    0  0.42646590957E+01 -0.10299155250E+02 -0.41944764887E+02  0.47787271694E+02  0.20000002962E+02 0.  0.
         12    1    3    3    0    0 -0.42646590957E+01  0.10299155250E+02  0.41944764887E+02  0.43400728306E+02  0.00000000000E+00 0. -1.
         11    1    4    4    0    0 -0.17832647236E+01  0.40492492532E+01 -0.31606815719E+01  0.54374958252E+01  0.51100000000E-03 0. -1.
        -11    1    4    4    0    0  0.33871423207E+01 -0.85333564907E+01 -0.30692731322E+02  0.32036458331E+02  0.51100000000E-03 0.  1.
         12    1    4    4    0    0  0.26607814986E+01 -0.58150480130E+01 -0.80913519924E+01  0.10313317538E+02  0.00000000000E+00 0. -1.
</event>
<event>
 8    1  0.4798632E-010  0.9118800E+02  0.7816164E-02  0.1184000E+00
        -11   -1    0    0    0    0  0.00000000000E+00  0.00000000000E+00  0.45593999997E+02  0.45594000000E+02  0.51100000000E-03 0. -1.
         11   -1    0    0    0    0 -0.00000000000E+00 -0.00000000000E+00 -0.45593999997E+02  0.45594000000E+02  0.51100000000E-03 0.  1.
         23    2    1    2    0    0  0.35527136788E-14  0.17763568394E-14  0.00000000000E+00  0.91188000000E+02  0.91188000000E+02 0.  0.
    9900012    2    3    3    0    0  0.24483757437E+02  0.13218518141E+02 -0.33308255098E+02  0.47787268926E+02  0.19999990340E+02 0.  0.
         12    1    3    3    0    0 -0.24483757437E+02 -0.13218518141E+02  0.33308255098E+02  0.43400731074E+02  0.00000000000E+00 0. -1.
         11    1    4    4    0    0  0.19617160900E+02  0.11946039941E+02 -0.18994970340E+02  0.29805197039E+02  0.51100000000E-03 0. -1.
        -11    1    4    4    0    0  0.44174849457E+01 -0.32035379133E+01 -0.11354728430E+02  0.12597884203E+02  0.51100000000E-03 0.  1.
         12    1    4    4    0    0  0.44911159153E+00  0.44760161139E+01 -0.29585563283E+01  0.53841876845E+01  0.00000000000E+00 0. -1.
</event>
<event>
 8    1  0.4798632E-010  0.9118800E+02  0.7816164E-02  0.1184000E+00
        -11   -1    0    0    0    0  0.00000000000E+00  0.00000000000E+00  0.45593999997E+02  0.45594000000E+02  0.51100000000E-03 0.  1.
         11   -1    0    0    0    0 -0.00000000000E+00 -0.00000000000E+00 -0.45593999997E+02  0.45594000000E+02  0.51100000000E-03 0. -1.
         23    2    1    2    0    0  0.00000000000E+00  0.17763568394E-14  0.00000000000E+00  0.91188000000E+02  0.91188000000E+02 0.  0.
    9900012    2    3    3    0    0 -0.33381848790E+02 -0.11660741684E+02  0.25165510055E+02  0.47787267039E+02  0.19999981737E+02 0.  0.
        -12    1    3    3    0    0  0.33381848790E+02  0.11660741684E+02 -0.25165510055E+02  0.43400732961E+02  0.00000000000E+00 0.  1.
         11    1    4    4    0    0 -0.30928680670E+02 -0.10597245809E+02  0.21518947216E+02  0.39140132809E+02  0.51100000000E-03 0. -1.
        -11    1    4    4    0    0 -0.88731770638E+00 -0.42198008694E+01  0.21628784668E+01  0.48241160447E+01  0.51100000000E-03 0.  1.
         12    1    4    4    0    0 -0.15658504131E+01  0.31563049939E+01  0.14836843717E+01  0.38230181854E+01  0.00000000000E+00 0. -1.
</event>
<event>
 8    1  0.4798632E-010  0.9118800E+02  0.7816164E-02  0.1184000E+00
        -11   -1    0    0    0    0  0.00000000000E+00  0.00000000000E+00  0.45593999997E+02  0.45594000000E+02  0.51100000000E-03 0. -1.
         11   -1    0    0    0    0 -0.00000000000E+00 -0.00000000000E+00 -0.45593999997E+02  0.45594000000E+02  0.51100000000E-03 0.  1.
         23    2    1    2    0    0  0.00000000000E+00  0.00000000000E+00  0.00000000000E+00  0.91188000000E+02  0.91188000000E+02 0.  0.
    9900012    2    3    3    0    0  0.10795064097E+02  0.49739322943E+01  0.41741461706E+02  0.47787273777E+02  0.20000012460E+02 0.  0.
        -12    1    3    3    0    0 -0.10795064097E+02 -0.49739322943E+01 -0.41741461706E+02  0.43400726223E+02  0.00000000000E+00 0.  1.
         11    1    4    4    0    0  0.10599738490E+02  0.23655655854E+01  0.12771141512E+02  0.16764617872E+02  0.51100000000E-03 0.  1.
        -11    1    4    4    0    0 -0.26722302864E+01  0.57179143373E+01  0.21823903714E+02  0.22718233485E+02  0.51100000000E-03 0. -1.
        -12    1    4    4    0    0  0.28675558932E+01 -0.31095476285E+01  0.71464164792E+01  0.83044224212E+01  0.00000000000E+00 0.  1.
</event>
<event>
 8    1  0.4798632E-010  0.9118800E+02  0.7816164E-02  0.1184000E+00
        -11   -1    0    0    0    0  0.00000000000E+00  0.00000000000E+00  0.45593999997E+02  0.45594000000E+02  0.51100000000E-03 0. -1.
         11   -1    0    0    0    0 -0.00000000000E+00 -0.00000000000E+00 -0.45593999997E+02  0.45594000000E+02  0.51100000000E-03 0.  1.
         23    2    1    2    0    0 -0.35527136788E-14  0.00000000000E+00  0.00000000000E+00  0.91188000000E+02  0.91188000000E+02 0.  0.
    9900012    2    3    3    0    0 -0.22953534533E+02 -0.35412811922E+02  0.10133660870E+02  0.47787273296E+02  0.20000010268E+02 0.  0.
         12    1    3    3    0    0  0.22953534533E+02  0.35412811922E+02 -0.10133660870E+02  0.43400726704E+02  0.00000000000E+00 0. -1.
         11    1    4    4    0    0 -0.28217350340E+01 -0.20606101952E+02  0.87279824231E+01  0.22555516037E+02  0.51100000000E-03 0. -1.
        -11    1    4    4    0    0 -0.14704651852E+02 -0.98588243805E+01 -0.24070248426E+00  0.17705398673E+02  0.51100000000E-03 0.  1.
         12    1    4    4    0    0 -0.54271476478E+01 -0.49478855894E+01  0.16463809311E+01  0.75263585861E+01  0.00000000000E+00 0. -1.
</event>
<event>
 8    1  0.4798632E-010  0.9118800E+02  0.7816164E-02  0.1184000E+00
        -11   -1    0    0    0    0  0.00000000000E+00  0.00000000000E+00  0.45593999997E+02  0.45594000000E+02  0.51100000000E-03 0. -1.
         11   -1    0    0    0    0 -0.00000000000E+00 -0.00000000000E+00 -0.45593999997E+02  0.45594000000E+02  0.51100000000E-03 0.  1.
         23    2    1    2    0    0  0.00000000000E+00 -0.53290705182E-14  0.71054273576E-14  0.91188000000E+02  0.91188000000E+02 0.  0.
    9900012    2    3    3    0    0 -0.84981766500E+01  0.13559965046E+02 -0.40342675143E+02  0.47787273092E+02  0.20000009337E+02 0.  0.
         12    1    3    3    0    0  0.84981766500E+01 -0.13559965046E+02  0.40342675143E+02  0.43400726908E+02  0.00000000000E+00 0. -1.
         11    1    4    4    0    0 -0.87863458445E+00 -0.41937560893E+01 -0.44022361029E+01  0.61432297561E+01  0.51100000000E-03 0. -1.
        -11    1    4    4    0    0  0.12436310696E+01  0.16304189612E+00 -0.31735596404E+01  0.34124305047E+01  0.51100000000E-03 0.  1.
         12    1    4    4    0    0 -0.88631731351E+01  0.17590679239E+02 -0.32766879400E+02  0.38231612832E+02  0.00000000000E+00 0. -1.
</event>
<event>
 8    1  0.4798632E-010  0.9118800E+02  0.7816164E-02  0.1184000E+00
        -11   -1    0    0    0    0  0.00000000000E+00  0.00000000000E+00  0.45593999997E+02  0.45594000000E+02  0.51100000000E-03 0. -1.
         11   -1    0    0    0    0 -0.00000000000E+00 -0.00000000000E+00 -0.45593999997E+02  0.45594000000E+02  0.51100000000E-03 0.  1.
         23    2    1    2    0    0 -0.35527136788E-14  0.00000000000E+00  0.00000000000E+00  0.91188000000E+02  0.91188000000E+02 0.  0.
    9900012    2    3    3    0    0  0.23918467681E+02 -0.15058144788E+01 -0.36183738441E+02  0.47787268428E+02  0.19999988068E+02 0.  0.
         12    1    3    3    0    0 -0.23918467681E+02  0.15058144788E+01  0.36183738441E+02  0.43400731572E+02  0.00000000000E+00 0. -1.
         11    1    4    4    0    0  0.11777386196E+02 -0.64023773749E+01 -0.20566635569E+02  0.24549618338E+02  0.51100000000E-03 0. -1.
        -11    1    4    4    0    0  0.12972438699E+02  0.71270058914E+01 -0.12996830200E+02  0.19697613416E+02  0.51100000000E-03 0.  1.
         12    1    4    4    0    0 -0.83135721407E+00 -0.22304429953E+01 -0.26202726725E+01  0.35400366737E+01  0.00000000000E+00 0. -1.
</event>
<event>
 8    1  0.4798632E-010  0.9118800E+02  0.7816164E-02  0.1184000E+00
        -11   -1    0    0    0    0  0.00000000000E+00  0.00000000000E+00  0.45593999997E+02  0.45594000000E+02  0.51100000000E-03 0. -1.
         11   -1    0    0    0    0 -0.00000000000E+00 -0.00000000000E+00 -0.45593999997E+02  0.45594000000E+02  0.51100000000E-03 0.  1.
         23    2    1    2    0    0 -0.17763568394E-14  0.88817841970E-15 -0.71054273576E-14  0.91188000000E+02  0.91188000000E+02 0.  0.
    9900012    2    3    3    0    0 -0.15328349093E+02  0.58180982722E+01  0.40184728206E+02  0.47787297996E+02  0.20000122883E+02 0.  0.
        -12    1    3    3    0    0  0.15328349093E+02 -0.58180982722E+01 -0.40184728206E+02  0.43400702004E+02  0.00000000000E+00 0.  1.
         11    1    4    4    0    0 -0.12966547050E+02  0.82955529940E+01  0.15560410830E+02  0.21887757476E+02  0.51100000000E-03 0. -1.
        -11    1    4    4    0    0 -0.32236885093E+01 -0.46654766980E+01  0.17017280329E+02  0.17937298305E+02  0.51100000000E-03 0.  1.
         12    1    4    4    0    0  0.86188646667E+00  0.21880219761E+01  0.76070370478E+01  0.79622422153E+01  0.00000000000E+00 0. -1.
</event>
<event>
 8    1  0.4798632E-010  0.9118800E+02  0.7816164E-02  0.1184000E+00
        -11   -1    0    0    0    0  0.00000000000E+00  0.00000000000E+00  0.45593999997E+02  0.45594000000E+02  0.51100000000E-03 0. -1.
         11   -1    0    0    0    0 -0.00000000000E+00 -0.00000000000E+00 -0.45593999997E+02  0.45594000000E+02  0.51100000000E-03 0.  1.
         23    2    1    2    0    0  0.00000000000E+00  0.17763568394E-14  0.00000000000E+00  0.91188000000E+02  0.91188000000E+02 0.  0.
    9900012    2    3    3    0    0  0.21013234923E+02  0.14167787949E+02  0.35232693126E+02  0.47787252055E+02  0.19999913420E+02 0.  0.
        -12    1    3    3    0    0 -0.21013234923E+02 -0.14167787949E+02 -0.35232693126E+02  0.43400747945E+02  0.00000000000E+00 0.  1.
         11    1    4    4    0    0  0.10812932412E+02  0.88528792779E+01  0.45069746353E+01  0.14683521359E+02  0.51100000000E-03 0. -1.
        -11    1    4    4    0    0  0.25135511210E+01  0.48973823818E-01  0.11063381896E+02  0.11345428899E+02  0.51100000000E-03 0.  1.
         12    1    4    4    0    0  0.76867513891E+01  0.52659348468E+01  0.19662336595E+02  0.21758301797E+02  0.00000000000E+00 0. -1.
</event>
<event>
 8    1  0.4798632E-010  0.9118800E+02  0.7816164E-02  0.1184000E+00
        -11   -1    0    0    0    0  0.00000000000E+00  0.00000000000E+00  0.45593999997E+02  0.45594000000E+02  0.51100000000E-03 0. -1.
         11   -1    0    0    0    0 -0.00000000000E+00 -0.00000000000E+00 -0.45593999997E+02  0.45594000000E+02  0.51100000000E-03 0.  1.
         23    2    1    2    0    0  0.44408920985E-15  0.00000000000E+00 -0.35527136788E-14  0.91188000000E+02  0.91188000000E+02 0.  0.
    9900012    2    3    3    0    0  0.29907619763E+01 -0.33799457346E+02 -0.27060583432E+02  0.47787272474E+02  0.20000006520E+02 0.  0.
         12    1    3    3    0    0 -0.29907619763E+01  0.33799457346E+02  0.27060583432E+02  0.43400727526E+02  0.00000000000E+00 0. -1.
         11    1    4    4    0    0  0.68564265812E+00  0.55099351927E+00  0.16107425189E+01  0.18352633152E+01  0.51100000000E-03 0. -1.
        -11    1    4    4    0    0  0.63050323611E+01 -0.21323581255E+02 -0.18907263896E+02  0.29187894390E+02  0.51100000000E-03 0.  1.
         12    1    4    4    0    0 -0.39999130428E+01 -0.13026869611E+02 -0.97640620542E+01  0.16764114770E+02  0.00000000000E+00 0. -1.
</event>
<event>
 8    1  0.4798632E-010  0.9118800E+02  0.7816164E-02  0.1184000E+00
        -11   -1    0    0    0    0  0.00000000000E+00  0.00000000000E+00  0.45593999997E+02  0.45594000000E+02  0.51100000000E-03 0. -1.
         11   -1    0    0    0    0 -0.00000000000E+00 -0.00000000000E+00 -0.45593999997E+02  0.45594000000E+02  0.51100000000E-03 0.  1.
         23    2    1    2    0    0  0.35527136788E-14  0.17763568394E-14  0.00000000000E+00  0.91188000000E+02  0.91188000000E+02 0.  0.
    9900012    2    3    3    0    0  0.18975414057E+02  0.13140857580E+02 -0.36754238969E+02  0.47787279283E+02  0.20000037562E+02 0.  0.
         12    1    3    3    0    0 -0.18975414057E+02 -0.13140857580E+02  0.36754238969E+02  0.43400720717E+02  0.00000000000E+00 0. -1.
         11    1    4    4    0    0  0.17632513887E+02  0.12930566660E+02 -0.29211867035E+02  0.36488878799E+02  0.51100000000E-03 0.  1.
        -11    1    4    4    0    0  0.41144744911E+01 -0.56023708941E+00 -0.73166682344E+01  0.84128711060E+01  0.51100000000E-03 0. -1.
         12    1    4    4    0    0 -0.27715743206E+01  0.77052800986E+00 -0.22570370003E+00  0.28855293776E+01  0.00000000000E+00 0. -1.
</event>
<event>
 8    1  0.4798632E-010  0.9118800E+02  0.7816164E-02  0.1184000E+00
        -11   -1    0    0    0    0  0.00000000000E+00  0.00000000000E+00  0.45593999997E+02  0.45594000000E+02  0.51100000000E-03 0. -1.
         11   -1    0    0    0    0 -0.00000000000E+00 -0.00000000000E+00 -0.45593999997E+02  0.45594000000E+02  0.51100000000E-03 0.  1.
         23    2    1    2    0    0  0.13322676296E-14 -0.35527136788E-14  0.71054273576E-14  0.91188000000E+02  0.91188000000E+02 0.  0.
    9900012    2    3    3    0    0 -0.23508741993E+01 -0.21570446312E+02  0.37587396313E+02  0.47787272757E+02  0.20000007808E+02 0.  0.
        -12    1    3    3    0    0  0.23508741993E+01  0.21570446312E+02 -0.37587396313E+02  0.43400727243E+02  0.00000000000E+00 0.  1.
         11    1    4    4    0    0 -0.89123528428E+01 -0.89156350964E+01  0.17467969076E+02  0.21541785587E+02  0.51100000000E-03 0. -1.
        -11    1    4    4    0    0  0.84345859917E+01 -0.72352754634E+01  0.13615492727E+02  0.17574785755E+02  0.51100000000E-03 0.  1.
        -12    1    4    4    0    0 -0.18731073482E+01 -0.54195357527E+01  0.65039345103E+01  0.86707014149E+01  0.00000000000E+00 0.  1.
</event>
<event>
 8    1  0.4798632E-010  0.9118800E+02  0.7816164E-02  0.1184000E+00
        -11   -1    0    0    0    0  0.00000000000E+00  0.00000000000E+00  0.45593999997E+02  0.45594000000E+02  0.51100000000E-03 0. -1.
         11   -1    0    0    0    0 -0.00000000000E+00 -0.00000000000E+00 -0.45593999997E+02  0.45594000000E+02  0.51100000000E-03 0.  1.
         23    2    1    2    0    0 -0.88817841970E-15  0.11102230246E-15  0.71054273576E-14  0.91188000000E+02  0.91188000000E+02 0.  0.
    9900012    2    3    3    0    0  0.71766565399E+01 -0.63041473059E+00 -0.42798616272E+02  0.47787269861E+02  0.19999994605E+02 0.  0.
         12    1    3    3    0    0 -0.71766565399E+01  0.63041473059E+00  0.42798616272E+02  0.43400730139E+02  0.00000000000E+00 0. -1.
         11    1    4    4    0    0 -0.27976035303E+01 -0.75871842189E+01 -0.13102231237E+02  0.15396766333E+02  0.51100000000E-03 0. -1.
        -11    1    4    4    0    0  0.64784525059E+01  0.58667547978E+01 -0.24664379792E+02  0.26167170071E+02  0.51100000000E-03 0.  1.
         12    1    4    4    0    0  0.34958075643E+01  0.10900146905E+01 -0.50320052431E+01  0.62233334572E+01  0.00000000000E+00 0. -1.
</event>
<event>
 8    1  0.4798632E-010  0.9118800E+02  0.7816164E-02  0.1184000E+00
        -11   -1    0    0    0    0  0.00000000000E+00  0.00000000000E+00  0.45593999997E+02  0.45594000000E+02  0.51100000000E-03 0. -1.
         11   -1    0    0    0    0 -0.00000000000E+00 -0.00000000000E+00 -0.45593999997E+02  0.45594000000E+02  0.51100000000E-03 0.  1.
         23    2    1    2    0    0  0.00000000000E+00 -0.35527136788E-14  0.71054273576E-14  0.91188000000E+02  0.91188000000E+02 0.  0.
    9900012    2    3    3    0    0  0.12600348051E+02 -0.22971587800E+02 -0.34600010845E+02  0.47787269965E+02  0.19999995080E+02 0.  0.
         12    1    3    3    0    0 -0.12600348051E+02  0.22971587800E+02  0.34600010845E+02  0.43400730035E+02  0.00000000000E+00 0. -1.
         11    1    4    4    0    0 -0.20703551370E+01 -0.85556601869E+01 -0.48498295605E+01  0.10050200926E+02  0.51100000000E-03 0. -1.
        -11    1    4    4    0    0  0.76505991449E+01 -0.61341973353E+00 -0.86464106939E+01  0.11561503760E+02  0.51100000000E-03 0.  1.
        -12    1    4    4    0    0  0.70201040428E+01 -0.13802507880E+02 -0.21103770591E+02  0.26175565279E+02  0.00000000000E+00 0.  1.
</event>
<event>
 8    1  0.4798632E-010  0.9118800E+02  0.7816164E-02  0.1184000E+00
        -11   -1    0    0    0    0  0.00000000000E+00  0.00000000000E+00  0.45593999997E+02  0.45594000000E+02  0.51100000000E-03 0. -1.
         11   -1    0    0    0    0 -0.00000000000E+00 -0.00000000000E+00 -0.45593999997E+02  0.45594000000E+02  0.51100000000E-03 0.  1.
         23    2    1    2    0    0 -0.44408920985E-15  0.00000000000E+00  0.00000000000E+00  0.91188000000E+02  0.91188000000E+02 0.  0.
    9900012    2    3    3    0    0 -0.21136583375E+01  0.29925450462E+01  0.43245816831E+02  0.47787267854E+02  0.19999985453E+02 0.  0.
        -12    1    3    3    0    0  0.21136583375E+01 -0.29925450462E+01 -0.43245816831E+02  0.43400732146E+02  0.00000000000E+00 0.  1.
         11    1    4    4    0    0  0.30839541910E+01  0.14581453281E+01  0.29711564903E+02  0.29906755934E+02  0.51100000000E-03 0. -1.
        -11    1    4    4    0    0  0.96080609433E+00 -0.33044906834E+00 -0.13356071672E+01  0.16781512756E+01  0.51100000000E-03 0.  1.
         12    1    4    4    0    0 -0.61584186228E+01  0.18648487865E+01  0.14869859095E+02  0.16202360644E+02  0.00000000000E+00 0. -1.
</event>
<event>
 8    1  0.4798632E-010  0.9118800E+02  0.7816164E-02  0.1184000E+00
        -11   -1    0    0    0    0  0.00000000000E+00  0.00000000000E+00  0.45593999997E+02  0.45594000000E+02  0.51100000000E-03 0. -1.
         11   -1    0    0    0    0 -0.00000000000E+00 -0.00000000000E+00 -0.45593999997E+02  0.45594000000E+02  0.51100000000E-03 0.  1.
         23    2    1    2    0    0  0.44408920985E-15  0.71054273576E-14  0.00000000000E+00  0.91188000000E+02  0.91188000000E+02 0.  0.
    9900012    2    3    3    0    0 -0.29953247647E+01 -0.33244302740E+02  0.27739279912E+02  0.47787270915E+02  0.19999999409E+02 0.  0.
        -12    1    3    3    0    0  0.29953247647E+01  0.33244302740E+02 -0.27739279912E+02  0.43400729085E+02  0.00000000000E+00 0.  1.
         11    1    4    4    0    0 -0.21304314264E+01 -0.31526014503E+02  0.23630394292E+02  0.39456607345E+02  0.51100000000E-03 0. -1.
        -11    1    4    4    0    0  0.74949911818E+00 -0.17126454543E+01 -0.15609545910E+01  0.24354635855E+01  0.51100000000E-03 0.  1.
         12    1    4    4    0    0 -0.16143924565E+01 -0.56427830113E-02  0.56698402106E+01  0.58951999846E+01  0.00000000000E+00 0. -1.
</event>
<event>
 8    1  0.4798632E-010  0.9118800E+02  0.7816164E-02  0.1184000E+00
        -11   -1    0    0    0    0  0.00000000000E+00  0.00000000000E+00  0.45593999997E+02  0.45594000000E+02  0.51100000000E-03 0. -1.
         11   -1    0    0    0    0 -0.00000000000E+00 -0.00000000000E+00 -0.45593999997E+02  0.45594000000E+02  0.51100000000E-03 0.  1.
         23    2    1    2    0    0 -0.71054273576E-14 -0.22204460493E-15  0.00000000000E+00  0.91188000000E+02  0.91188000000E+02 0.  0.
    9900012    2    3    3    0    0  0.43316004825E+02  0.16743891176E+01 -0.21316067391E+01  0.47787267285E+02  0.19999982858E+02 0.  0.
        -12    1    3    3    0    0 -0.43316004825E+02 -0.16743891176E+01  0.21316067391E+01  0.43400732715E+02  0.00000000000E+00 0.  1.
         11    1    4    4    0    0  0.33555468503E+02  0.44511141023E+01 -0.40058927882E+01  0.34085613688E+02  0.51100000000E-03 0. -1.
        -11    1    4    4    0    0  0.10926621722E+02 -0.41695386038E+01  0.11704344000E+01  0.11753553989E+02  0.51100000000E-03 0.  1.
         12    1    4    4    0    0 -0.11660853999E+01  0.13928136191E+01  0.70385164916E+00  0.19480996077E+01  0.00000000000E+00 0. -1.
</event>
<event>
 8    1  0.4798632E-010  0.9118800E+02  0.7816164E-02  0.1184000E+00
        -11   -1    0    0    0    0  0.00000000000E+00  0.00000000000E+00  0.45593999997E+02  0.45594000000E+02  0.51100000000E-03 0. -1.
         11   -1    0    0    0    0 -0.00000000000E+00 -0.00000000000E+00 -0.45593999997E+02  0.45594000000E+02  0.51100000000E-03 0.  1.
         23    2    1    2    0    0  0.00000000000E+00  0.00000000000E+00  0.00000000000E+00  0.91188000000E+02  0.91188000000E+02 0.  0.
    9900012    2    3    3    0    0  0.20335835800E+02 -0.18029187977E+02 -0.33838223995E+02  0.47787271436E+02  0.20000001783E+02 0.  0.
         12    1    3    3    0    0 -0.20335835800E+02  0.18029187977E+02  0.33838223995E+02  0.43400728564E+02  0.00000000000E+00 0. -1.
         11    1    4    4    0    0  0.13402599213E+02 -0.10893189583E+02 -0.11595116971E+02  0.20802355222E+02  0.51100000000E-03 0. -1.
        -11    1    4    4    0    0 -0.30660860786E+01 -0.10638420791E+01 -0.74414968021E+01  0.81184061692E+01  0.51100000000E-03 0.  1.
        -12    1    4    4    0    0  0.99993226650E+01 -0.60721563146E+01 -0.14801610223E+02  0.18866510044E+02  0.00000000000E+00 0.  1.
</event>
<event>
 8    1  0.4798632E-010  0.9118800E+02  0.7816164E-02  0.1184000E+00
        -11   -1    0    0    0    0  0.00000000000E+00  0.00000000000E+00  0.45593999997E+02  0.45594000000E+02  0.51100000000E-03 0. -1.
         11   -1    0    0    0    0 -0.00000000000E+00 -0.00000000000E+00 -0.45593999997E+02  0.45594000000E+02  0.51100000000E-03 0.  1.
         23    2    1    2    0    0  0.00000000000E+00  0.00000000000E+00 -0.71054273576E-14  0.91188000000E+02  0.91188000000E+02 0.  0.
    9900012    2    3    3    0    0 -0.58257785568E+01 -0.20061067257E+02 -0.38042570873E+02  0.47787270583E+02  0.19999997897E+02 0.  0.
         12    1    3    3    0    0  0.58257785568E+01  0.20061067257E+02  0.38042570873E+02  0.43400729417E+02  0.00000000000E+00 0. -1.
         11    1    4    4    0    0  0.39588829797E+01 -0.66427743536E+01 -0.72479284895E+01  0.10598663746E+02  0.51100000000E-03 0. -1.
        -11    1    4    4    0    0 -0.40907319709E+01  0.21389722521E+00 -0.15052380405E+02  0.15599807570E+02  0.51100000000E-03 0.  1.
        -12    1    4    4    0    0 -0.56939295656E+01 -0.13632190129E+02 -0.15742261978E+02  0.21588799267E+02  0.00000000000E+00 0.  1.
</event>
<event>
 8    1  0.4798632E-010  0.9118800E+02  0.7816164E-02  0.1184000E+00
        -11   -1    0    0    0    0  0.00000000000E+00  0.00000000000E+00  0.45593999997E+02  0.45594000000E+02  0.51100000000E-03 0. -1.
         11   -1    0    0    0    0 -0.00000000000E+00 -0.00000000000E+00 -0.45593999997E+02  0.45594000000E+02  0.51100000000E-03 0.  1.
         23    2    1    2    0    0 -0.35527136788E-14  0.00000000000E+00  0.00000000000E+00  0.91188000000E+02  0.91188000000E+02 0.  0.
    9900012    2    3    3    0    0  0.24843219489E+02  0.18210373481E+02  0.30574825614E+02  0.47787271686E+02  0.20000002925E+02 0.  0.
        -12    1    3    3    0    0 -0.24843219489E+02 -0.18210373481E+02 -0.30574825614E+02  0.43400728314E+02  0.00000000000E+00 0.  1.
         11    1    4    4    0    0  0.68123711527E+01  0.82991436000E+01  0.21550471332E+02  0.24077105310E+02  0.51100000000E-03 0. -1.
        -11    1    4    4    0    0  0.15764093274E+02  0.11133723538E+02  0.84676739200E+01  0.21075292132E+02  0.51100000000E-03 0.  1.
        -12    1    4    4    0    0  0.22667550624E+01 -0.12224936573E+01  0.55668036139E+00  0.26348742436E+01  0.00000000000E+00 0.  1.
</event>
<event>
 8    1  0.4798632E-010  0.9118800E+02  0.7816164E-02  0.1184000E+00
        -11   -1    0    0    0    0  0.00000000000E+00  0.00000000000E+00  0.45593999997E+02  0.45594000000E+02  0.51100000000E-03 0. -1.
         11   -1    0    0    0    0 -0.00000000000E+00 -0.00000000000E+00 -0.45593999997E+02  0.45594000000E+02  0.51100000000E-03 0.  1.
         23    2    1    2    0    0  0.00000000000E+00  0.88817841970E-15 -0.71054273576E-14  0.91188000000E+02  0.91188000000E+02 0.  0.
    9900012    2    3    3    0    0  0.19334922778E+02 -0.21683965025E+01  0.38795392832E+02  0.47787266282E+02  0.19999978287E+02 0.  0.
        -12    1    3    3    0    0 -0.19334922778E+02  0.21683965025E+01 -0.38795392832E+02  0.43400733718E+02  0.00000000000E+00 0.  1.
         11    1    4    4    0    0  0.39380329921E+01 -0.81507587047E+01  0.12529081472E+02  0.15457064860E+02  0.51100000000E-03 0. -1.
        -11    1    4    4    0    0  0.10257699535E+02  0.21080362574E+01  0.86750138488E+01  0.13598532353E+02  0.51100000000E-03 0.  1.
         12    1    4    4    0    0  0.51391902509E+01  0.38743259448E+01  0.17591297512E+02  0.18731669069E+02  0.00000000000E+00 0. -1.
</event>
<event>
 8    1  0.4798632E-010  0.9118800E+02  0.7816164E-02  0.1184000E+00
        -11   -1    0    0    0    0  0.00000000000E+00  0.00000000000E+00  0.45593999997E+02  0.45594000000E+02  0.51100000000E-03 0. -1.
         11   -1    0    0    0    0 -0.00000000000E+00 -0.00000000000E+00 -0.45593999997E+02  0.45594000000E+02  0.51100000000E-03 0.  1.
         23    2    1    2    0    0 -0.22204460493E-15  0.17763568394E-14  0.00000000000E+00  0.91188000000E+02  0.91188000000E+02 0.  0.
    9900012    2    3    3    0    0 -0.16418665350E+01 -0.11542013597E+02 -0.41805611023E+02  0.47787275160E+02  0.20000018766E+02 0.  0.
         12    1    3    3    0    0  0.16418665350E+01  0.11542013597E+02  0.41805611023E+02  0.43400724840E+02  0.00000000000E+00 0. -1.
         11    1    4    4    0    0 -0.12196615158E+01 -0.10940436074E+01 -0.31296288025E+00  0.16680682400E+01  0.51100000000E-03 0. -1.
        -11    1    4    4    0    0 -0.43636016657E+01 -0.66041174114E+01 -0.39466997818E+02  0.40252941549E+02  0.51100000000E-03 0.  1.
        -12    1    4    4    0    0  0.39413966465E+01 -0.38438525787E+01 -0.20256503244E+01  0.58662653714E+01  0.00000000000E+00 0.  1.
</event>
<event>
 8    1  0.4798632E-010  0.9118800E+02  0.7816164E-02  0.1184000E+00
        -11   -1    0    0    0    0  0.00000000000E+00  0.00000000000E+00  0.45593999997E+02  0.45594000000E+02  0.51100000000E-03 0. -1.
         11   -1    0    0    0    0 -0.00000000000E+00 -0.00000000000E+00 -0.45593999997E+02  0.45594000000E+02  0.51100000000E-03 0.  1.
         23    2    1    2    0    0  0.00000000000E+00  0.00000000000E+00  0.00000000000E+00  0.91188000000E+02  0.91188000000E+02 0.  0.
    9900012    2    3    3    0    0  0.30594473613E+02 -0.13208443032E+02 -0.27805371797E+02  0.47787268627E+02  0.19999988976E+02 0.  0.
         12    1    3    3    0    0 -0.30594473613E+02  0.13208443032E+02  0.27805371797E+02  0.43400731373E+02  0.00000000000E+00 0. -1.
         11    1    4    4    0    0  0.51886744054E-01  0.58033011951E-01 -0.83676571676E+00  0.84037919450E+00  0.51100000000E-03 0. -1.
        -11    1    4    4    0    0  0.11883871834E+02 -0.38791662843E+00 -0.19930678209E+02  0.23207947415E+02  0.51100000000E-03 0.  1.
        -12    1    4    4    0    0  0.18658715035E+02 -0.12878559416E+02 -0.70379278713E+01  0.23738942017E+02  0.00000000000E+00 0.  1.
</event>
<event>
 8    1  0.4798632E-010  0.9118800E+02  0.7816164E-02  0.1184000E+00
        -11   -1    0    0    0    0  0.00000000000E+00  0.00000000000E+00  0.45593999997E+02  0.45594000000E+02  0.51100000000E-03 0. -1.
         11   -1    0    0    0    0 -0.00000000000E+00 -0.00000000000E+00 -0.45593999997E+02  0.45594000000E+02  0.51100000000E-03 0.  1.
         23    2    1    2    0    0  0.00000000000E+00 -0.17763568394E-14  0.00000000000E+00  0.91188000000E+02  0.91188000000E+02 0.  0.
    9900012    2    3    3    0    0 -0.23270838126E+02 -0.11027215777E+02  0.34935537558E+02  0.47787272133E+02  0.20000004965E+02 0.  0.
        -12    1    3    3    0    0  0.23270838126E+02  0.11027215777E+02 -0.34935537558E+02  0.43400727867E+02  0.00000000000E+00 0.  1.
         11    1    4    4    0    0 -0.16711311664E+02  0.17470273590E+01  0.13208517358E+02  0.21372528470E+02  0.51100000000E-03 0. -1.
        -11    1    4    4    0    0 -0.14803448383E+01 -0.54814070470E+01  0.54535132363E+01  0.78726139836E+01  0.51100000000E-03 0.  1.
         12    1    4    4    0    0 -0.50791816239E+01 -0.72928360889E+01  0.16273506963E+02  0.18542129680E+02  0.00000000000E+00 0. -1.
</event>
<event>
 8    1  0.4798632E-010  0.9118800E+02  0.7816164E-02  0.1184000E+00
        -11   -1    0    0    0    0  0.00000000000E+00  0.00000000000E+00  0.45593999997E+02  0.45594000000E+02  0.51100000000E-03 0. -1.
         11   -1    0    0    0    0 -0.00000000000E+00 -0.00000000000E+00 -0.45593999997E+02  0.45594000000E+02  0.51100000000E-03 0.  1.
         23    2    1    2    0    0  0.17763568394E-14  0.00000000000E+00 -0.71054273576E-14  0.91188000000E+02  0.91188000000E+02 0.  0.
    9900012    2    3    3    0    0  0.10187337332E+02 -0.17478285238E+02  0.38397279167E+02  0.47787270234E+02  0.19999996303E+02 0.  0.
        -12    1    3    3    0    0 -0.10187337332E+02  0.17478285238E+02 -0.38397279167E+02  0.43400729766E+02  0.00000000000E+00 0.  1.
         11    1    4    4    0    0  0.16758992849E+01  0.25656749878E+01  0.65207067865E+01  0.72049249693E+01  0.51100000000E-03 0. -1.
        -11    1    4    4    0    0  0.36536924478E+00 -0.13345584262E+02  0.23837015402E+02  0.27321080095E+02  0.51100000000E-03 0.  1.
         12    1    4    4    0    0  0.81460688027E+01 -0.66983759639E+01  0.80395569786E+01  0.13261265170E+02  0.00000000000E+00 0. -1.
</event>
<event>
 8    1  0.4798632E-010  0.9118800E+02  0.7816164E-02  0.1184000E+00
        -11   -1    0    0    0    0  0.00000000000E+00  0.00000000000E+00  0.45593999997E+02  0.45594000000E+02  0.51100000000E-03 0. -1.
         11   -1    0    0    0    0 -0.00000000000E+00 -0.00000000000E+00 -0.45593999997E+02  0.45594000000E+02  0.51100000000E-03 0.  1.
         23    2    1    2    0    0  0.00000000000E+00  0.35527136788E-14 -0.35527136788E-14  0.91188000000E+02  0.91188000000E+02 0.  0.
    9900012    2    3    3    0    0 -0.18984612583E+02  0.27957916838E+02 -0.27231625081E+02  0.47787285335E+02  0.20000065156E+02 0.  0.
         12    1    3    3    0    0  0.18984612583E+02 -0.27957916838E+02  0.27231625081E+02  0.43400714665E+02  0.00000000000E+00 0. -1.
         11    1    4    4    0    0 -0.82663380428E+01  0.20716670631E+02 -0.84648205071E+01  0.23857199608E+02  0.51100000000E-03 0. -1.
        -11    1    4    4    0    0 -0.35046584377E+01 -0.75388376891E+00 -0.76748478193E+01  0.84707886771E+01  0.51100000000E-03 0.  1.
        -12    1    4    4    0    0 -0.72136161024E+01  0.79951299765E+01 -0.11091956755E+02  0.15459297050E+02  0.00000000000E+00 0.  1.
</event>
<event>
 8    1  0.4798632E-010  0.9118800E+02  0.7816164E-02  0.1184000E+00
        -11   -1    0    0    0    0  0.00000000000E+00  0.00000000000E+00  0.45593999997E+02  0.45594000000E+02  0.51100000000E-03 0. -1.
         11   -1    0    0    0    0 -0.00000000000E+00 -0.00000000000E+00 -0.45593999997E+02  0.45594000000E+02  0.51100000000E-03 0.  1.
         23    2    1    2    0    0  0.00000000000E+00 -0.35527136788E-14  0.00000000000E+00  0.91188000000E+02  0.91188000000E+02 0.  0.
    9900012    2    3    3    0    0 -0.19770044522E+02  0.16513018318E+02  0.34929770404E+02  0.47787270803E+02  0.19999998898E+02 0.  0.
        -12    1    3    3    0    0  0.19770044522E+02 -0.16513018318E+02 -0.34929770404E+02  0.43400729197E+02  0.00000000000E+00 0.  1.
         11    1    4    4    0    0 -0.76568740384E+01  0.59756595659E+01  0.26227245939E+02  0.27967921930E+02  0.51100000000E-03 0. -1.
        -11    1    4    4    0    0 -0.65429760713E+01  0.99763072596E+01  0.42453061075E+01  0.12663327628E+02  0.51100000000E-03 0.  1.
        -12    1    4    4    0    0 -0.55701944122E+01  0.56105149231E+00  0.44572183583E+01  0.71560212451E+01  0.00000000000E+00 0.  1.
</event>
<event>
 8    1  0.4798632E-010  0.9118800E+02  0.7816164E-02  0.1184000E+00
        -11   -1    0    0    0    0  0.00000000000E+00  0.00000000000E+00  0.45593999997E+02  0.45594000000E+02  0.51100000000E-03 0. -1.
         11   -1    0    0    0    0 -0.00000000000E+00 -0.00000000000E+00 -0.45593999997E+02  0.45594000000E+02  0.51100000000E-03 0.  1.
         23    2    1    2    0    0 -0.88817841970E-15  0.88817841970E-15  0.00000000000E+00  0.91188000000E+02  0.91188000000E+02 0.  0.
    9900012    2    3    3    0    0 -0.62577250175E+01  0.45983284628E+01  0.42700341734E+02  0.47787274992E+02  0.20000017997E+02 0.  0.
        -12    1    3    3    0    0  0.62577250175E+01 -0.45983284628E+01 -0.42700341734E+02  0.43400725008E+02  0.00000000000E+00 0.  1.
         11    1    4    4    0    0 -0.23302105797E+01 -0.16675749629E+01  0.60107740646E+01  0.66588356880E+01  0.51100000000E-03 0. -1.
        -11    1    4    4    0    0 -0.45645838587E+01  0.61579086426E+01  0.38474249366E+02  0.39230385280E+02  0.51100000000E-03 0.  1.
        -12    1    4    4    0    0  0.63706942091E+00  0.10799478305E+00 -0.17846816965E+01  0.18980540240E+01  0.00000000000E+00 0.  1.
</event>
<event>
 8    1  0.4798632E-010  0.9118800E+02  0.7816164E-02  0.1184000E+00
        -11   -1    0    0    0    0  0.00000000000E+00  0.00000000000E+00  0.45593999997E+02  0.45594000000E+02  0.51100000000E-03 0. -1.
         11   -1    0    0    0    0 -0.00000000000E+00 -0.00000000000E+00 -0.45593999997E+02  0.45594000000E+02  0.51100000000E-03 0.  1.
         23    2    1    2    0    0  0.00000000000E+00  0.17763568394E-14 -0.35527136788E-14  0.91188000000E+02  0.91188000000E+02 0.  0.
    9900012    2    3    3    0    0  0.37264615346E+02  0.12505148226E+02  0.18400903560E+02  0.47787267968E+02  0.19999985975E+02 0.  0.
        -12    1    3    3    0    0 -0.37264615346E+02 -0.12505148226E+02 -0.18400903560E+02  0.43400732032E+02  0.00000000000E+00 0.  1.
         11    1    4    4    0    0  0.21101371757E+02  0.13197638933E+02  0.16812630609E+02  0.30035147938E+02  0.51100000000E-03 0. -1.
        -11    1    4    4    0    0  0.16673114327E+02 -0.14535226062E+01  0.17286240394E+01  0.16825385899E+02  0.51100000000E-03 0.  1.
        -12    1    4    4    0    0 -0.50987073774E+00  0.76103189953E+00 -0.14035108834E+00  0.92673413086E+00  0.00000000000E+00 0.  1.
</event>
<event>
 8    1  0.4798632E-010  0.9118800E+02  0.7816164E-02  0.1184000E+00
        -11   -1    0    0    0    0  0.00000000000E+00  0.00000000000E+00  0.45593999997E+02  0.45594000000E+02  0.51100000000E-03 0. -1.
         11   -1    0    0    0    0 -0.00000000000E+00 -0.00000000000E+00 -0.45593999997E+02  0.45594000000E+02  0.51100000000E-03 0.  1.
         23    2    1    2    0    0 -0.35527136788E-14  0.71054273576E-14 -0.35527136788E-14  0.91188000000E+02  0.91188000000E+02 0.  0.
    9900012    2    3    3    0    0 -0.20462782296E+02  0.26719890339E+02 -0.27403375778E+02  0.47787274164E+02  0.20000014224E+02 0.  0.
         12    1    3    3    0    0  0.20462782296E+02 -0.26719890339E+02  0.27403375778E+02  0.43400725836E+02  0.00000000000E+00 0. -1.
         11    1    4    4    0    0 -0.54328463162E+01 -0.69499687592E+00  0.21469020287E+00  0.54813257427E+01  0.51100000000E-03 0.  1.
        -11    1    4    4    0    0 -0.34485304249E+01  0.12890189836E+02 -0.13420015805E+02  0.18924750475E+02  0.51100000000E-03 0. -1.
        -12    1    4    4    0    0 -0.11581405555E+02  0.14524697379E+02 -0.14198050176E+02  0.23381197946E+02  0.00000000000E+00 0.  1.
</event>
<event>
 8    1  0.4798632E-010  0.9118800E+02  0.7816164E-02  0.1184000E+00
        -11   -1    0    0    0    0  0.00000000000E+00  0.00000000000E+00  0.45593999997E+02  0.45594000000E+02  0.51100000000E-03 0.  1.
         11   -1    0    0    0    0 -0.00000000000E+00 -0.00000000000E+00 -0.45593999997E+02  0.45594000000E+02  0.51100000000E-03 0. -1.
         23    2    1    2    0    0 -0.35527136788E-14  0.00000000000E+00 -0.35527136788E-14  0.91188000000E+02  0.91188000000E+02 0.  0.
    9900012    2    3    3    0    0 -0.28126064363E+02  0.23146887477E+02 -0.23595944755E+02  0.47787279899E+02  0.20000040373E+02 0.  0.
         12    1    3    3    0    0  0.28126064363E+02 -0.23146887477E+02  0.23595944755E+02  0.43400720101E+02  0.00000000000E+00 0. -1.
         11    1    4    4    0    0 -0.38404639895E+01  0.10599811627E+02  0.31704543271E+00  0.11278549918E+02  0.51100000000E-03 0. -1.
        -11    1    4    4    0    0 -0.19024002884E+02  0.88009197815E+01 -0.19910649146E+02  0.28910254658E+02  0.51100000000E-03 0.  1.
        -12    1    4    4    0    0 -0.52615974893E+01  0.37461560684E+01 -0.40023410415E+01  0.75984753234E+01  0.00000000000E+00 0.  1.
</event>
<event>
 8    1  0.4798632E-010  0.9118800E+02  0.7816164E-02  0.1184000E+00
        -11   -1    0    0    0    0  0.00000000000E+00  0.00000000000E+00  0.45593999997E+02  0.45594000000E+02  0.51100000000E-03 0. -1.
         11   -1    0    0    0    0 -0.00000000000E+00 -0.00000000000E+00 -0.45593999997E+02  0.45594000000E+02  0.51100000000E-03 0.  1.
         23    2    1    2    0    0  0.00000000000E+00  0.35527136788E-14  0.00000000000E+00  0.91188000000E+02  0.91188000000E+02 0.  0.
    9900012    2    3    3    0    0  0.24068926868E+02 -0.19080810822E+02 -0.30663218147E+02  0.47787268101E+02  0.19999986581E+02 0.  0.
         12    1    3    3    0    0 -0.24068926868E+02  0.19080810822E+02  0.30663218147E+02  0.43400731899E+02  0.00000000000E+00 0. -1.
         11    1    4    4    0    0  0.33913071816E+01 -0.12654620191E+01 -0.58537932452E-01  0.36201913585E+01  0.51100000000E-03 0. -1.
        -11    1    4    4    0    0  0.59919635949E+01 -0.14051880301E+01  0.36573894850E+00  0.61653829047E+01  0.51100000000E-03 0.  1.
        -12    1    4    4    0    0  0.14685656091E+02 -0.16410160773E+02 -0.30970419163E+02  0.38001693838E+02  0.00000000000E+00 0.  1.
</event>
<event>
 8    1  0.4798632E-010  0.9118800E+02  0.7816164E-02  0.1184000E+00
        -11   -1    0    0    0    0  0.00000000000E+00  0.00000000000E+00  0.45593999997E+02  0.45594000000E+02  0.51100000000E-03 0. -1.
         11   -1    0    0    0    0 -0.00000000000E+00 -0.00000000000E+00 -0.45593999997E+02  0.45594000000E+02  0.51100000000E-03 0.  1.
         23    2    1    2    0    0  0.11102230246E-15  0.00000000000E+00  0.00000000000E+00  0.91188000000E+02  0.91188000000E+02 0.  0.
    9900012    2    3    3    0    0  0.88453726643E+00  0.23825058770E+02 -0.36265846622E+02  0.47787222786E+02  0.19999779969E+02 0.  0.
         12    1    3    3    0    0 -0.88453726643E+00 -0.23825058770E+02  0.36265846622E+02  0.43400777214E+02  0.00000000000E+00 0. -1.
         11    1    4    4    0    0  0.34119621025E+01  0.35402448481E+01 -0.11428517716E+02  0.12441295608E+02  0.51100000000E-03 0. -1.
        -11    1    4    4    0    0 -0.46359272005E+01  0.36753610496E+01 -0.14521375392E+02  0.15680256483E+02  0.51100000000E-03 0.  1.
         12    1    4    4    0    0  0.21085023644E+01  0.16609452872E+02 -0.10315953515E+02  0.19665670694E+02  0.00000000000E+00 0. -1.
</event>
<event>
 8    1  0.4798632E-010  0.9118800E+02  0.7816164E-02  0.1184000E+00
        -11   -1    0    0    0    0  0.00000000000E+00  0.00000000000E+00  0.45593999997E+02  0.45594000000E+02  0.51100000000E-03 0. -1.
         11   -1    0    0    0    0 -0.00000000000E+00 -0.00000000000E+00 -0.45593999997E+02  0.45594000000E+02  0.51100000000E-03 0.  1.
         23    2    1    2    0    0  0.00000000000E+00  0.00000000000E+00 -0.71054273576E-14  0.91188000000E+02  0.91188000000E+02 0.  0.
    9900012    2    3    3    0    0  0.21568925474E+02  0.87542325243E+01 -0.36630154722E+02  0.47787269959E+02  0.19999995049E+02 0.  0.
         12    1    3    3    0    0 -0.21568925474E+02 -0.87542325243E+01  0.36630154722E+02  0.43400730041E+02  0.00000000000E+00 0. -1.
         11    1    4    4    0    0  0.53558771938E+01 -0.48552527535E+01 -0.46116953056E+01  0.85747672662E+01  0.51100000000E-03 0. -1.
        -11    1    4    4    0    0  0.98900195909E+01  0.71058758528E+01 -0.24768555231E+02  0.27600494337E+02  0.51100000000E-03 0.  1.
         12    1    4    4    0    0  0.63230286889E+01  0.65036094250E+01 -0.72499041850E+01  0.11612008355E+02  0.00000000000E+00 0. -1.
</event>
<event>
 8    1  0.4798632E-010  0.9118800E+02  0.7816164E-02  0.1184000E+00
        -11   -1    0    0    0    0  0.00000000000E+00  0.00000000000E+00  0.45593999997E+02  0.45594000000E+02  0.51100000000E-03 0. -1.
         11   -1    0    0    0    0 -0.00000000000E+00 -0.00000000000E+00 -0.45593999997E+02  0.45594000000E+02  0.51100000000E-03 0.  1.
         23    2    1    2    0    0  0.00000000000E+00  0.35527136788E-14  0.00000000000E+00  0.91188000000E+02  0.91188000000E+02 0.  0.
    9900012    2    3    3    0    0  0.32162348957E+02  0.27904232709E+02 -0.84000237414E+01  0.47787270831E+02  0.19999999028E+02 0.  0.
         12    1    3    3    0    0 -0.32162348957E+02 -0.27904232709E+02  0.84000237414E+01  0.43400729169E+02  0.00000000000E+00 0. -1.
         11    1    4    4    0    0  0.36082000052E+01  0.90178171270E+01 -0.31449735733E+01  0.10209358063E+02  0.51100000000E-03 0. -1.
        -11    1    4    4    0    0  0.20688142638E+02  0.20265038193E+02 -0.59398796629E+01  0.29562699293E+02  0.51100000000E-03 0.  1.
        -12    1    4    4    0    0  0.78660063133E+01 -0.13786226111E+01  0.68482949478E+00  0.80152134758E+01  0.00000000000E+00 0.  1.
</event>
<event>
 8    1  0.4798632E-010  0.9118800E+02  0.7816164E-02  0.1184000E+00
        -11   -1    0    0    0    0  0.00000000000E+00  0.00000000000E+00  0.45593999997E+02  0.45594000000E+02  0.51100000000E-03 0. -1.
         11   -1    0    0    0    0 -0.00000000000E+00 -0.00000000000E+00 -0.45593999997E+02  0.45594000000E+02  0.51100000000E-03 0.  1.
         23    2    1    2    0    0  0.35527136788E-14 -0.35527136788E-14  0.35527136788E-14  0.91188000000E+02  0.91188000000E+02 0.  0.
    9900012    2    3    3    0    0 -0.28913233951E+02  0.16481324306E+02 -0.27857031888E+02  0.47787269891E+02  0.19999994742E+02 0.  0.
         12    1    3    3    0    0  0.28913233951E+02 -0.16481324306E+02  0.27857031888E+02  0.43400730109E+02  0.00000000000E+00 0. -1.
         11    1    4    4    0    0 -0.36034764758E+01 -0.28738023944E+01  0.30760210028E-01  0.46092005126E+01  0.51100000000E-03 0. -1.
        -11    1    4    4    0    0 -0.23758329990E+02  0.14484498571E+02 -0.24172782576E+02  0.36858952244E+02  0.51100000000E-03 0.  1.
         12    1    4    4    0    0 -0.15514274852E+01  0.48706281295E+01 -0.37150095217E+01  0.63191171349E+01  0.00000000000E+00 0. -1.
</event>
<event>
 8    1  0.4798632E-010  0.9118800E+02  0.7816164E-02  0.1184000E+00
        -11   -1    0    0    0    0  0.00000000000E+00  0.00000000000E+00  0.45593999997E+02  0.45594000000E+02  0.51100000000E-03 0. -1.
         11   -1    0    0    0    0 -0.00000000000E+00 -0.00000000000E+00 -0.45593999997E+02  0.45594000000E+02  0.51100000000E-03 0.  1.
         23    2    1    2    0    0  0.00000000000E+00  0.00000000000E+00  0.00000000000E+00  0.91188000000E+02  0.91188000000E+02 0.  0.
    9900012    2    3    3    0    0  0.38031304173E+02 -0.79661257632E+01  0.19333491836E+02  0.47787272318E+02  0.20000005806E+02 0.  0.
        -12    1    3    3    0    0 -0.38031304173E+02  0.79661257632E+01 -0.19333491836E+02  0.43400727682E+02  0.00000000000E+00 0.  1.
         11    1    4    4    0    0  0.13567145178E+02 -0.66186968223E+01  0.13063756333E+02  0.19963374106E+02  0.51100000000E-03 0. -1.
        -11    1    4    4    0    0  0.21515184640E+02  0.26855809602E+01  0.69789577917E+01  0.22777650610E+02  0.51100000000E-03 0.  1.
        -12    1    4    4    0    0  0.29489743546E+01 -0.40330099011E+01 -0.70922228828E+00  0.50462476020E+01  0.00000000000E+00 0.  1.
</event>
<event>
 8    1  0.5283054E-010  0.9118800E+02  0.7816164E-02  0.1184000E+00
        -11   -1    0    0    0    0  0.00000000000E+00  0.00000000000E+00  0.45593999997E+02  0.45594000000E+02  0.51100000000E-03 0. -1.
         11   -1    0    0    0    0 -0.00000000000E+00 -0.00000000000E+00 -0.45593999997E+02  0.45594000000E+02  0.51100000000E-03 0.  1.
         23    2    1    2    0    0  0.00000000000E+00  0.00000000000E+00  0.00000000000E+00  0.91188000000E+02  0.91188000000E+02 0.  0.
    9900012    2    3    3    0    0 -0.13557535906E+02  0.14506956888E+02 -0.38592286853E+02  0.47787272097E+02  0.20000004800E+02 0.  0.
         12    1    3    3    0    0  0.13557535906E+02 -0.14506956888E+02  0.38592286853E+02  0.43400727903E+02  0.00000000000E+00 0. -1.
         11    1    4    4    0    0 -0.50317625946E+01 -0.24076378680E+01 -0.86756394845E+01  0.10314168684E+02  0.51100000000E-03 0. -1.
        -11    1    4    4    0    0 -0.10532151729E+02  0.14035941511E+02 -0.18367713199E+02  0.25402888862E+02  0.51100000000E-03 0.  1.
        -12    1    4    4    0    0  0.20063784179E+01  0.28786532444E+01 -0.11548934170E+02  0.12070214551E+02  0.00000000000E+00 0.  1.
</event>
<event>
 8    1  0.4798632E-010  0.9118800E+02  0.7816164E-02  0.1184000E+00
        -11   -1    0    0    0    0  0.00000000000E+00  0.00000000000E+00  0.45593999997E+02  0.45594000000E+02  0.51100000000E-03 0. -1.
         11   -1    0    0    0    0 -0.00000000000E+00 -0.00000000000E+00 -0.45593999997E+02  0.45594000000E+02  0.51100000000E-03 0.  1.
         23    2    1    2    0    0  0.00000000000E+00  0.00000000000E+00  0.00000000000E+00  0.91188000000E+02  0.91188000000E+02 0.  0.
    9900012    2    3    3    0    0 -0.33614552320E+01 -0.29031494042E+02 -0.32085762718E+02  0.47787271933E+02  0.20000004049E+02 0.  0.
         12    1    3    3    0    0  0.33614552320E+01  0.29031494042E+02  0.32085762718E+02  0.43400728067E+02  0.00000000000E+00 0. -1.
         11    1    4    4    0    0 -0.10408744435E+01 -0.22658989737E+01  0.48339985651E-02  0.24935399325E+01  0.51100000000E-03 0. -1.
        -11    1    4    4    0    0 -0.48341860098E+01 -0.13667317149E+02 -0.54253509343E+01  0.15478996914E+02  0.51100000000E-03 0.  1.
        -12    1    4    4    0    0  0.25136052213E+01 -0.13098277920E+02 -0.26665245782E+02  0.29814735087E+02  0.00000000000E+00 0.  1.
</event>
<event>
 8    1  0.4798632E-010  0.9118800E+02  0.7816164E-02  0.1184000E+00
        -11   -1    0    0    0    0  0.00000000000E+00  0.00000000000E+00  0.45593999997E+02  0.45594000000E+02  0.51100000000E-03 0. -1.
         11   -1    0    0    0    0 -0.00000000000E+00 -0.00000000000E+00 -0.45593999997E+02  0.45594000000E+02  0.51100000000E-03 0.  1.
         23    2    1    2    0    0  0.00000000000E+00  0.00000000000E+00  0.00000000000E+00  0.91188000000E+02  0.91188000000E+02 0.  0.
    9900012    2    3    3    0    0  0.31890831130E+02 -0.14961693577E+02 -0.25352432498E+02  0.47787271683E+02  0.20000002913E+02 0.  0.
         12    1    3    3    0    0 -0.31890831130E+02  0.14961693577E+02  0.25352432498E+02  0.43400728317E+02  0.00000000000E+00 0. -1.
         11    1    4    4    0    0  0.10919880936E+02  0.10069806081E+00 -0.17240072951E+02  0.20407695983E+02  0.51100000000E-03 0. -1.
        -11    1    4    4    0    0  0.13266809363E+02 -0.11793345282E+02 -0.61250026170E+01  0.18777829506E+02  0.51100000000E-03 0.  1.
         12    1    4    4    0    0  0.77041408311E+01 -0.32690463558E+01 -0.19873569305E+01  0.86017461943E+01  0.00000000000E+00 0. -1.
</event>
<event>
 8    1  0.4798632E-010  0.9118800E+02  0.7816164E-02  0.1184000E+00
        -11   -1    0    0    0    0  0.00000000000E+00  0.00000000000E+00  0.45593999997E+02  0.45594000000E+02  0.51100000000E-03 0. -1.
         11   -1    0    0    0    0 -0.00000000000E+00 -0.00000000000E+00 -0.45593999997E+02  0.45594000000E+02  0.51100000000E-03 0.  1.
         23    2    1    2    0    0  0.00000000000E+00  0.00000000000E+00 -0.17763568394E-14  0.91188000000E+02  0.91188000000E+02 0.  0.
    9900012    2    3    3    0    0  0.34084370401E+02  0.23438844993E+02  0.13133903695E+02  0.47787272051E+02  0.20000004588E+02 0.  0.
        -12    1    3    3    0    0 -0.34084370401E+02 -0.23438844993E+02 -0.13133903695E+02  0.43400727949E+02  0.00000000000E+00 0.  1.
         11    1    4    4    0    0  0.19330181741E+02  0.23536453733E+01  0.14667088087E+01  0.19528103023E+02  0.51100000000E-03 0. -1.
        -11    1    4    4    0    0  0.11191323781E+02  0.15672689695E+02  0.86933173541E+01  0.21129427279E+02  0.51100000000E-03 0.  1.
         12    1    4    4    0    0  0.35628648791E+01  0.54125099246E+01  0.29738775321E+01  0.71297417489E+01  0.00000000000E+00 0. -1.
</event>
<event>
 8    1  0.4798632E-010  0.9118800E+02  0.7816164E-02  0.1184000E+00
        -11   -1    0    0    0    0  0.00000000000E+00  0.00000000000E+00  0.45593999997E+02  0.45594000000E+02  0.51100000000E-03 0. -1.
         11   -1    0    0    0    0 -0.00000000000E+00 -0.00000000000E+00 -0.45593999997E+02  0.45594000000E+02  0.51100000000E-03 0.  1.
         23    2    1    2    0    0  0.00000000000E+00  0.71054273576E-14  0.00000000000E+00  0.91188000000E+02  0.91188000000E+02 0.  0.
    9900012    2    3    3    0    0  0.92635892294E+00 -0.31047669008E+02 -0.30311840828E+02  0.47787267448E+02  0.19999983601E+02 0.  0.
         12    1    3    3    0    0 -0.92635892294E+00  0.31047669008E+02  0.30311840828E+02  0.43400732552E+02  0.00000000000E+00 0. -1.
         11    1    4    4    0    0 -0.27179509113E+01  0.98163554704E+00 -0.34536433897E+01  0.45031675994E+01  0.51100000000E-03 0. -1.
        -11    1    4    4    0    0  0.48089566210E+01 -0.24911120605E+02 -0.25448332545E+02  0.35934769001E+02  0.51100000000E-03 0.  1.
        -12    1    4    4    0    0 -0.11646467867E+01 -0.71181839499E+01 -0.14098648933E+01  0.73493308470E+01  0.00000000000E+00 0.  1.
</event>
<event>
 8    1  0.4798632E-010  0.9118800E+02  0.7816164E-02  0.1184000E+00
        -11   -1    0    0    0    0  0.00000000000E+00  0.00000000000E+00  0.45593999997E+02  0.45594000000E+02  0.51100000000E-03 0. -1.
         11   -1    0    0    0    0 -0.00000000000E+00 -0.00000000000E+00 -0.45593999997E+02  0.45594000000E+02  0.51100000000E-03 0.  1.
         23    2    1    2    0    0  0.00000000000E+00  0.00000000000E+00  0.00000000000E+00  0.91188000000E+02  0.91188000000E+02 0.  0.
    9900012    2    3    3    0    0 -0.15654128283E+02  0.11047888976E+02  0.38942464663E+02  0.47787272620E+02  0.20000007182E+02 0.  0.
        -12    1    3    3    0    0  0.15654128283E+02 -0.11047888976E+02 -0.38942464663E+02  0.43400727380E+02  0.00000000000E+00 0.  1.
         11    1    4    4    0    0 -0.53884185242E+01  0.24572124527E+01  0.17043015212E+02  0.18042652660E+02  0.51100000000E-03 0. -1.
        -11    1    4    4    0    0 -0.12910118977E+02  0.10636358275E+02  0.17367854214E+02  0.24113184145E+02  0.51100000000E-03 0.  1.
        -12    1    4    4    0    0  0.26444092183E+01 -0.20456817513E+01  0.45315952366E+01  0.56314358143E+01  0.00000000000E+00 0.  1.
</event>
<event>
 8    1  0.4798632E-010  0.9118800E+02  0.7816164E-02  0.1184000E+00
        -11   -1    0    0    0    0  0.00000000000E+00  0.00000000000E+00  0.45593999997E+02  0.45594000000E+02  0.51100000000E-03 0. -1.
         11   -1    0    0    0    0 -0.00000000000E+00 -0.00000000000E+00 -0.45593999997E+02  0.45594000000E+02  0.51100000000E-03 0.  1.
         23    2    1    2    0    0 -0.11102230246E-15 -0.35527136788E-14 -0.71054273576E-14  0.91188000000E+02  0.91188000000E+02 0.  0.
    9900012    2    3    3    0    0  0.86698351080E+00 -0.12840697473E+02 -0.41448619134E+02  0.47787271894E+02  0.20000003872E+02 0.  0.
         12    1    3    3    0    0 -0.86698351080E+00  0.12840697473E+02  0.41448619134E+02  0.43400728106E+02  0.00000000000E+00 0. -1.
         11    1    4    4    0    0  0.21277990828E+01  0.38640646821E+01 -0.91753918259E+01  0.10180684664E+02  0.51100000000E-03 0. -1.
        -11    1    4    4    0    0 -0.43863408541E+01 -0.96950032073E+01 -0.24360036669E+02  0.26582785032E+02  0.51100000000E-03 0.  1.
        -12    1    4    4    0    0  0.31255252821E+01 -0.70097589482E+01 -0.79131906396E+01  0.11023802198E+02  0.00000000000E+00 0.  1.
</event>
<event>
 8    1  0.4798632E-010  0.9118800E+02  0.7816164E-02  0.1184000E+00
        -11   -1    0    0    0    0  0.00000000000E+00  0.00000000000E+00  0.45593999997E+02  0.45594000000E+02  0.51100000000E-03 0. -1.
         11   -1    0    0    0    0 -0.00000000000E+00 -0.00000000000E+00 -0.45593999997E+02  0.45594000000E+02  0.51100000000E-03 0.  1.
         23    2    1    2    0    0  0.00000000000E+00 -0.35527136788E-14  0.00000000000E+00  0.91188000000E+02  0.91188000000E+02 0.  0.
    9900012    2    3    3    0    0 -0.13436254900E+02 -0.28850778921E+02  0.29508038463E+02  0.47787254338E+02  0.19999923830E+02 0.  0.
        -12    1    3    3    0    0  0.13436254900E+02  0.28850778921E+02 -0.29508038463E+02  0.43400745662E+02  0.00000000000E+00 0.  1.
         11    1    4    4    0    0 -0.15260924297E+02 -0.20978642043E+02  0.28301591135E+02  0.38392437971E+02  0.51100000000E-03 0. -1.
        -11    1    4    4    0    0  0.24631729593E+01 -0.18421925921E+01  0.12778645812E+01  0.33307405667E+01  0.51100000000E-03 0.  1.
         12    1    4    4    0    0 -0.63850356183E+00 -0.60299442857E+01 -0.71417253020E-01  0.60640758003E+01  0.00000000000E+00 0. -1.
</event>
<event>
 8    1  0.4798632E-010  0.9118800E+02  0.7816164E-02  0.1184000E+00
        -11   -1    0    0    0    0  0.00000000000E+00  0.00000000000E+00  0.45593999997E+02  0.45594000000E+02  0.51100000000E-03 0.  1.
         11   -1    0    0    0    0 -0.00000000000E+00 -0.00000000000E+00 -0.45593999997E+02  0.45594000000E+02  0.51100000000E-03 0. -1.
         23    2    1    2    0    0  0.00000000000E+00  0.00000000000E+00 -0.35527136788E-14  0.91188000000E+02  0.91188000000E+02 0.  0.
    9900012    2    3    3    0    0  0.19160982602E+02  0.31846511241E+02 -0.22411600179E+02  0.47787270109E+02  0.19999995736E+02 0.  0.
         12    1    3    3    0    0 -0.19160982602E+02 -0.31846511241E+02  0.22411600179E+02  0.43400729891E+02  0.00000000000E+00 0. -1.
         11    1    4    4    0    0  0.30177184011E+01  0.13556669212E+02  0.97840759122E+00  0.13922901498E+02  0.51100000000E-03 0. -1.
        -11    1    4    4    0    0  0.69327211983E+01  0.90953721080E+01 -0.99986158343E+01  0.15190810902E+02  0.51100000000E-03 0.  1.
         12    1    4    4    0    0  0.92105430023E+01  0.91944699211E+01 -0.13391391936E+02  0.18673557709E+02  0.00000000000E+00 0. -1.
</event>
<event>
 8    1  0.4798632E-010  0.9118800E+02  0.7816164E-02  0.1184000E+00
        -11   -1    0    0    0    0  0.00000000000E+00  0.00000000000E+00  0.45593999997E+02  0.45594000000E+02  0.51100000000E-03 0. -1.
         11   -1    0    0    0    0 -0.00000000000E+00 -0.00000000000E+00 -0.45593999997E+02  0.45594000000E+02  0.51100000000E-03 0.  1.
         23    2    1    2    0    0 -0.88817841970E-15  0.71054273576E-14 -0.17763568394E-14  0.91188000000E+02  0.91188000000E+02 0.  0.
    9900012    2    3    3    0    0  0.73682663168E+01 -0.39997449575E+02 -0.15150462402E+02  0.47787264614E+02  0.19999970682E+02 0.  0.
         12    1    3    3    0    0 -0.73682663168E+01  0.39997449575E+02  0.15150462402E+02  0.43400735386E+02  0.00000000000E+00 0. -1.
         11    1    4    4    0    0  0.97583849044E+01 -0.26913749925E+02 -0.60517714880E+01  0.29260894542E+02  0.51100000000E-03 0. -1.
        -11    1    4    4    0    0  0.19563001517E+01 -0.11201966002E+02 -0.58984071793E+01  0.12810244342E+02  0.51100000000E-03 0.  1.
         12    1    4    4    0    0 -0.43464187393E+01 -0.18817336475E+01 -0.32002837346E+01  0.57161257299E+01  0.00000000000E+00 0. -1.
</event>
<event>
 8    1  0.4798632E-010  0.9118800E+02  0.7816164E-02  0.1184000E+00
        -11   -1    0    0    0    0  0.00000000000E+00  0.00000000000E+00  0.45593999997E+02  0.45594000000E+02  0.51100000000E-03 0. -1.
         11   -1    0    0    0    0 -0.00000000000E+00 -0.00000000000E+00 -0.45593999997E+02  0.45594000000E+02  0.51100000000E-03 0.  1.
         23    2    1    2    0    0 -0.35527136788E-14 -0.71054273576E-14  0.00000000000E+00  0.91188000000E+02  0.91188000000E+02 0.  0.
    9900012    2    3    3    0    0 -0.22575219652E+02 -0.26843048223E+02 -0.25562346436E+02  0.47787270334E+02  0.19999996760E+02 0.  0.
         12    1    3    3    0    0  0.22575219652E+02  0.26843048223E+02  0.25562346436E+02  0.43400729666E+02  0.00000000000E+00 0. -1.
         11    1    4    4    0    0 -0.21344568765E+01  0.29985923993E+01 -0.23227188054E+01  0.43522965713E+01  0.51100000000E-03 0. -1.
        -11    1    4    4    0    0 -0.18238235903E+01 -0.28746820045E+01 -0.26551782950E+00  0.34147663309E+01  0.51100000000E-03 0.  1.
         12    1    4    4    0    0 -0.18616939185E+02 -0.26966958618E+02 -0.22974109801E+02  0.40020207432E+02  0.00000000000E+00 0. -1.
</event>
<event>
 8    1  0.4798632E-010  0.9118800E+02  0.7816164E-02  0.1184000E+00
        -11   -1    0    0    0    0  0.00000000000E+00  0.00000000000E+00  0.45593999997E+02  0.45594000000E+02  0.51100000000E-03 0. -1.
         11   -1    0    0    0    0 -0.00000000000E+00 -0.00000000000E+00 -0.45593999997E+02  0.45594000000E+02  0.51100000000E-03 0.  1.
         23    2    1    2    0    0  0.00000000000E+00  0.00000000000E+00 -0.71054273576E-14  0.91188000000E+02  0.91188000000E+02 0.  0.
    9900012    2    3    3    0    0  0.19800184265E+02  0.61853074838E+00 -0.38615972681E+02  0.47787271626E+02  0.20000002653E+02 0.  0.
         12    1    3    3    0    0 -0.19800184265E+02 -0.61853074838E+00  0.38615972681E+02  0.43400728374E+02  0.00000000000E+00 0. -1.
         11    1    4    4    0    0  0.13952116960E+02  0.43667390121E+00 -0.11634857386E+02  0.18172015805E+02  0.51100000000E-03 0. -1.
        -11    1    4    4    0    0  0.80216691922E+01 -0.25979111681E+01 -0.21524241593E+02  0.23116861713E+02  0.51100000000E-03 0.  1.
         12    1    4    4    0    0 -0.21736018867E+01  0.27797680153E+01 -0.54568737029E+01  0.64983941085E+01  0.00000000000E+00 0. -1.
</event>
<event>
 8    1  0.4798632E-010  0.9118800E+02  0.7816164E-02  0.1184000E+00
        -11   -1    0    0    0    0  0.00000000000E+00  0.00000000000E+00  0.45593999997E+02  0.45594000000E+02  0.51100000000E-03 0.  1.
         11   -1    0    0    0    0 -0.00000000000E+00 -0.00000000000E+00 -0.45593999997E+02  0.45594000000E+02  0.51100000000E-03 0. -1.
         23    2    1    2    0    0  0.00000000000E+00  0.00000000000E+00 -0.17763568394E-14  0.91188000000E+02  0.91188000000E+02 0.  0.
    9900012    2    3    3    0    0  0.36439509119E+02  0.18552479945E+02 -0.14546159505E+02  0.47787273125E+02  0.20000009487E+02 0.  0.
         12    1    3    3    0    0 -0.36439509119E+02 -0.18552479945E+02  0.14546159505E+02  0.43400726875E+02  0.00000000000E+00 0. -1.
         11    1    4    4    0    0  0.33952775809E+01  0.62043387751E+01 -0.29992372961E+01  0.76822623040E+01  0.51100000000E-03 0.  1.
        -11    1    4    4    0    0  0.12835440877E+02  0.10582942839E+02 -0.10743672550E+02  0.19803376524E+02  0.51100000000E-03 0. -1.
        -12    1    4    4    0    0  0.20208790661E+02  0.17651983314E+01 -0.80324965883E+00  0.20301634297E+02  0.00000000000E+00 0.  1.
</event>
<event>
 8    1  0.4798632E-010  0.9118800E+02  0.7816164E-02  0.1184000E+00
        -11   -1    0    0    0    0  0.00000000000E+00  0.00000000000E+00  0.45593999997E+02  0.45594000000E+02  0.51100000000E-03 0. -1.
         11   -1    0    0    0    0 -0.00000000000E+00 -0.00000000000E+00 -0.45593999997E+02  0.45594000000E+02  0.51100000000E-03 0.  1.
         23    2    1    2    0    0 -0.35527136788E-14  0.00000000000E+00  0.00000000000E+00  0.91188000000E+02  0.91188000000E+02 0.  0.
    9900012    2    3    3    0    0  0.26956534261E+02  0.20619583826E+02 -0.27051822883E+02  0.47787273073E+02  0.20000009248E+02 0.  0.
         12    1    3    3    0    0 -0.26956534261E+02 -0.20619583826E+02  0.27051822883E+02  0.43400726927E+02  0.00000000000E+00 0. -1.
         11    1    4    4    0    0  0.16315171303E+01 -0.49070056072E+00 -0.17557680617E+01  0.24464989136E+01  0.51100000000E-03 0. -1.
        -11    1    4    4    0    0  0.17105803303E+02  0.15245661634E+02 -0.26657990541E+02  0.35152342244E+02  0.51100000000E-03 0.  1.
        -12    1    4    4    0    0  0.82192138279E+01  0.58646227532E+01  0.13619357198E+01  0.10188431915E+02  0.00000000000E+00 0.  1.
</event>
<event>
 8    1  0.4798632E-010  0.9118800E+02  0.7816164E-02  0.1184000E+00
        -11   -1    0    0    0    0  0.00000000000E+00  0.00000000000E+00  0.45593999997E+02  0.45594000000E+02  0.51100000000E-03 0. -1.
         11   -1    0    0    0    0 -0.00000000000E+00 -0.00000000000E+00 -0.45593999997E+02  0.45594000000E+02  0.51100000000E-03 0.  1.
         23    2    1    2    0    0  0.00000000000E+00  0.00000000000E+00  0.00000000000E+00  0.91188000000E+02  0.91188000000E+02 0.  0.
    9900012    2    3    3    0    0 -0.17906914509E+02 -0.59408704177E+01  0.39085392931E+02  0.47787314877E+02  0.20000199849E+02 0.  0.
        -12    1    3    3    0    0  0.17906914509E+02  0.59408704177E+01 -0.39085392931E+02  0.43400685123E+02  0.00000000000E+00 0.  1.
         11    1    4    4    0    0 -0.84598723378E+00 -0.17543710862E+01  0.18408067683E+02  0.18510820306E+02  0.51100000000E-03 0. -1.
        -11    1    4    4    0    0 -0.14980951186E+02 -0.75455037037E+01  0.16615352780E+02  0.23610029073E+02  0.51100000000E-03 0.  1.
        -12    1    4    4    0    0 -0.20799760895E+01  0.33590043722E+01  0.40619724676E+01  0.56664654973E+01  0.00000000000E+00 0.  1.
</event>
<event>
 8    1  0.4798632E-010  0.9118800E+02  0.7816164E-02  0.1184000E+00
        -11   -1    0    0    0    0  0.00000000000E+00  0.00000000000E+00  0.45593999997E+02  0.45594000000E+02  0.51100000000E-03 0. -1.
         11   -1    0    0    0    0 -0.00000000000E+00 -0.00000000000E+00 -0.45593999997E+02  0.45594000000E+02  0.51100000000E-03 0.  1.
         23    2    1    2    0    0  0.00000000000E+00  0.00000000000E+00  0.00000000000E+00  0.91188000000E+02  0.91188000000E+02 0.  0.
    9900012    2    3    3    0    0  0.21608165614E+02 -0.28903162260E+02 -0.24110538785E+02  0.47787266247E+02  0.19999978125E+02 0.  0.
         12    1    3    3    0    0 -0.21608165614E+02  0.28903162260E+02  0.24110538785E+02  0.43400733753E+02  0.00000000000E+00 0. -1.
         11    1    4    4    0    0  0.87015684353E+01 -0.10320232587E+01 -0.82480934864E+01  0.12033844426E+02  0.51100000000E-03 0. -1.
        -11    1    4    4    0    0  0.13008473778E+02 -0.20426848569E+02 -0.14371700110E+02  0.28160651569E+02  0.51100000000E-03 0.  1.
         12    1    4    4    0    0 -0.10187659953E+00 -0.74442904319E+01 -0.14907451892E+01  0.75927702517E+01  0.00000000000E+00 0. -1.
</event>
<event>
 8    1  0.4798632E-010  0.9118800E+02  0.7816164E-02  0.1184000E+00
        -11   -1    0    0    0    0  0.00000000000E+00  0.00000000000E+00  0.45593999997E+02  0.45594000000E+02  0.51100000000E-03 0.  1.
         11   -1    0    0    0    0 -0.00000000000E+00 -0.00000000000E+00 -0.45593999997E+02  0.45594000000E+02  0.51100000000E-03 0. -1.
         23    2    1    2    0    0  0.00000000000E+00  0.00000000000E+00  0.35527136788E-14  0.91188000000E+02  0.91188000000E+02 0.  0.
    9900012    2    3    3    0    0 -0.34753927806E+02  0.22775584706E+02  0.12532376261E+02  0.47787271764E+02  0.20000003282E+02 0.  0.
         12    1    3    3    0    0  0.34753927806E+02 -0.22775584706E+02 -0.12532376261E+02  0.43400728236E+02  0.00000000000E+00 0. -1.
         11    1    4    4    0    0 -0.64531613009E+00  0.26473545276E+01  0.22806753916E+01  0.35533645191E+01  0.51100000000E-03 0. -1.
        -11    1    4    4    0    0 -0.70057750368E+01  0.98416091556E+01 -0.28645213087E+01  0.12415459606E+02  0.51100000000E-03 0.  1.
        -12    1    4    4    0    0 -0.27102836639E+02  0.10286621023E+02  0.13116222178E+02  0.31818447639E+02  0.00000000000E+00 0.  1.
</event>
<event>
 8    1  0.4798632E-010  0.9118800E+02  0.7816164E-02  0.1184000E+00
        -11   -1    0    0    0    0  0.00000000000E+00  0.00000000000E+00  0.45593999997E+02  0.45594000000E+02  0.51100000000E-03 0.  1.
         11   -1    0    0    0    0 -0.00000000000E+00 -0.00000000000E+00 -0.45593999997E+02  0.45594000000E+02  0.51100000000E-03 0. -1.
         23    2    1    2    0    0  0.00000000000E+00 -0.17763568394E-14  0.00000000000E+00  0.91188000000E+02  0.91188000000E+02 0.  0.
    9900012    2    3    3    0    0  0.24686456766E+02  0.94409044919E+01  0.34424839518E+02  0.47787292620E+02  0.20000098372E+02 0.  0.
        -12    1    3    3    0    0 -0.24686456766E+02 -0.94409044919E+01 -0.34424839518E+02  0.43400707380E+02  0.00000000000E+00 0.  1.
         11    1    4    4    0    0  0.39320004773E+01 -0.29868764228E+01  0.12422363758E+02  0.13367766460E+02  0.51100000000E-03 0.  1.
        -11    1    4    4    0    0 -0.32618329604E+00 -0.57963903030E+00  0.33395957682E+01  0.34051838576E+01  0.51100000000E-03 0. -1.
         12    1    4    4    0    0  0.21080639584E+02  0.13007419945E+02  0.18662879991E+02  0.31014342303E+02  0.00000000000E+00 0. -1.
</event>
<event>
 8    1  0.4798632E-010  0.9118800E+02  0.7816164E-02  0.1184000E+00
        -11   -1    0    0    0    0  0.00000000000E+00  0.00000000000E+00  0.45593999997E+02  0.45594000000E+02  0.51100000000E-03 0. -1.
         11   -1    0    0    0    0 -0.00000000000E+00 -0.00000000000E+00 -0.45593999997E+02  0.45594000000E+02  0.51100000000E-03 0.  1.
         23    2    1    2    0    0  0.17763568394E-14  0.35527136788E-14  0.00000000000E+00  0.91188000000E+02  0.91188000000E+02 0.  0.
    9900012    2    3    3    0    0  0.13724321417E+02  0.19263059060E+02 -0.36389509870E+02  0.47787321765E+02  0.20000231253E+02 0.  0.
         12    1    3    3    0    0 -0.13724321417E+02 -0.19263059060E+02  0.36389509870E+02  0.43400678235E+02  0.00000000000E+00 0. -1.
         11    1    4    4    0    0  0.47793462672E+01 -0.26013356461E+01 -0.12834422337E+02  0.13940283171E+02  0.51100000000E-03 0. -1.
        -11    1    4    4    0    0  0.28595603107E+01  0.25133810942E+01 -0.55085228630E+01  0.66961178371E+01  0.51100000000E-03 0.  1.
         12    1    4    4    0    0  0.60854148393E+01  0.19351013612E+02 -0.18046564670E+02  0.27150920757E+02  0.00000000000E+00 0. -1.
</event>
<event>
 8    1  0.4798632E-010  0.9118800E+02  0.7816164E-02  0.1184000E+00
        -11   -1    0    0    0    0  0.00000000000E+00  0.00000000000E+00  0.45593999997E+02  0.45594000000E+02  0.51100000000E-03 0. -1.
         11   -1    0    0    0    0 -0.00000000000E+00 -0.00000000000E+00 -0.45593999997E+02  0.45594000000E+02  0.51100000000E-03 0.  1.
         23    2    1    2    0    0  0.00000000000E+00  0.00000000000E+00 -0.35527136788E-14  0.91188000000E+02  0.91188000000E+02 0.  0.
    9900012    2    3    3    0    0  0.29650941298E+02  0.47861023078E+01 -0.31329514091E+02  0.47787267882E+02  0.19999985583E+02 0.  0.
         12    1    3    3    0    0 -0.29650941298E+02 -0.47861023078E+01  0.31329514091E+02  0.43400732118E+02  0.00000000000E+00 0. -1.
         11    1    4    4    0    0  0.10499747729E+02  0.14827932227E+01 -0.25257075107E+01  0.10900576902E+02  0.51100000000E-03 0. -1.
        -11    1    4    4    0    0  0.55476641864E+01  0.54512232269E+01 -0.17204099312E+02  0.18880504390E+02  0.51100000000E-03 0.  1.
        -12    1    4    4    0    0  0.13603529383E+02 -0.21479141417E+01 -0.11599707268E+02  0.18006186590E+02  0.00000000000E+00 0.  1.
</event>
<event>
 8    1  0.4798632E-010  0.9118800E+02  0.7816164E-02  0.1184000E+00
        -11   -1    0    0    0    0  0.00000000000E+00  0.00000000000E+00  0.45593999997E+02  0.45594000000E+02  0.51100000000E-03 0.  1.
         11   -1    0    0    0    0 -0.00000000000E+00 -0.00000000000E+00 -0.45593999997E+02  0.45594000000E+02  0.51100000000E-03 0. -1.
         23    2    1    2    0    0 -0.35527136788E-14 -0.17763568394E-14  0.35527136788E-14  0.91188000000E+02  0.91188000000E+02 0.  0.
    9900012    2    3    3    0    0 -0.25816176626E+02 -0.14793724277E+02 -0.31595798628E+02  0.47787265622E+02  0.19999975278E+02 0.  0.
         12    1    3    3    0    0  0.25816176626E+02  0.14793724277E+02  0.31595798628E+02  0.43400734378E+02  0.00000000000E+00 0. -1.
         11    1    4    4    0    0 -0.11886672984E+01 -0.34130675364E+01 -0.80435937726E+01  0.88182402436E+01  0.51100000000E-03 0. -1.
        -11    1    4    4    0    0 -0.26180137491E+02 -0.94911959413E+01 -0.18724550243E+02  0.33557282093E+02  0.51100000000E-03 0.  1.
        -12    1    4    4    0    0  0.15526281632E+01 -0.18894607994E+01 -0.48276546126E+01  0.54117432852E+01  0.00000000000E+00 0.  1.
</event>
<event>
 8    1  0.4798632E-010  0.9118800E+02  0.7816164E-02  0.1184000E+00
        -11   -1    0    0    0    0  0.00000000000E+00  0.00000000000E+00  0.45593999997E+02  0.45594000000E+02  0.51100000000E-03 0. -1.
         11   -1    0    0    0    0 -0.00000000000E+00 -0.00000000000E+00 -0.45593999997E+02  0.45594000000E+02  0.51100000000E-03 0.  1.
         23    2    1    2    0    0 -0.17763568394E-14  0.00000000000E+00  0.00000000000E+00  0.91188000000E+02  0.91188000000E+02 0.  0.
    9900012    2    3    3    0    0 -0.15624143261E+02  0.27468951282E+02  0.29748355727E+02  0.47787287959E+02  0.20000077122E+02 0.  0.
        -12    1    3    3    0    0  0.15624143261E+02 -0.27468951282E+02 -0.29748355727E+02  0.43400712041E+02  0.00000000000E+00 0.  1.
         11    1    4    4    0    0 -0.56181556302E+01  0.51220389763E+01  0.18969447963E+02  0.20436215702E+02  0.51100000000E-03 0. -1.
        -11    1    4    4    0    0 -0.67993265158E+01  0.16471775138E+02  0.49996673901E+01  0.18508022356E+02  0.51100000000E-03 0.  1.
        -12    1    4    4    0    0 -0.32066611155E+01  0.58751371681E+01  0.57792403737E+01  0.88430499009E+01  0.00000000000E+00 0.  1.
</event>
<event>
 8    1  0.4798632E-010  0.9118800E+02  0.7816164E-02  0.1184000E+00
        -11   -1    0    0    0    0  0.00000000000E+00  0.00000000000E+00  0.45593999997E+02  0.45594000000E+02  0.51100000000E-03 0. -1.
         11   -1    0    0    0    0 -0.00000000000E+00 -0.00000000000E+00 -0.45593999997E+02  0.45594000000E+02  0.51100000000E-03 0.  1.
         23    2    1    2    0    0 -0.88817841970E-15  0.00000000000E+00  0.88817841970E-15  0.91188000000E+02  0.91188000000E+02 0.  0.
    9900012    2    3    3    0    0  0.51621440848E+01  0.42485546355E+02 -0.72079306999E+01  0.47787266762E+02  0.19999980476E+02 0.  0.
         12    1    3    3    0    0 -0.51621440848E+01 -0.42485546355E+02  0.72079306999E+01  0.43400733238E+02  0.00000000000E+00 0. -1.
         11    1    4    4    0    0 -0.97980960627E+00  0.18983711289E+02  0.54473239009E+01  0.19774090601E+02  0.51100000000E-03 0. -1.
        -11    1    4    4    0    0  0.20890903687E+01  0.17127769666E+02 -0.10327255084E+02  0.20109127035E+02  0.51100000000E-03 0.  1.
        -12    1    4    4    0    0  0.40528633223E+01  0.63740654003E+01 -0.23279995164E+01  0.79040491259E+01  0.00000000000E+00 0.  1.
</event>
<event>
 8    1  0.4798632E-010  0.9118800E+02  0.7816164E-02  0.1184000E+00
        -11   -1    0    0    0    0  0.00000000000E+00  0.00000000000E+00  0.45593999997E+02  0.45594000000E+02  0.51100000000E-03 0. -1.
         11   -1    0    0    0    0 -0.00000000000E+00 -0.00000000000E+00 -0.45593999997E+02  0.45594000000E+02  0.51100000000E-03 0.  1.
         23    2    1    2    0    0  0.00000000000E+00 -0.88817841970E-15  0.00000000000E+00  0.91188000000E+02  0.91188000000E+02 0.  0.
    9900012    2    3    3    0    0 -0.24441813457E+02 -0.70943817265E+01  0.35155241281E+02  0.47787268593E+02  0.19999988822E+02 0.  0.
        -12    1    3    3    0    0  0.24441813457E+02  0.70943817265E+01 -0.35155241281E+02  0.43400731407E+02  0.00000000000E+00 0.  1.
         11    1    4    4    0    0 -0.15884973352E+01 -0.62160290265E+01  0.11280793071E+02  0.12977620475E+02  0.51100000000E-03 0. -1.
        -11    1    4    4    0    0 -0.22904066668E+02 -0.18825162558E+01  0.18958773684E+02  0.29792200947E+02  0.51100000000E-03 0.  1.
        -12    1    4    4    0    0  0.50750545783E-01  0.10041635558E+01  0.49156745261E+01  0.50174471708E+01  0.00000000000E+00 0.  1.
</event>
<event>
 8    1  0.4798632E-010  0.9118800E+02  0.7816164E-02  0.1184000E+00
        -11   -1    0    0    0    0  0.00000000000E+00  0.00000000000E+00  0.45593999997E+02  0.45594000000E+02  0.51100000000E-03 0. -1.
         11   -1    0    0    0    0 -0.00000000000E+00 -0.00000000000E+00 -0.45593999997E+02  0.45594000000E+02  0.51100000000E-03 0.  1.
         23    2    1    2    0    0  0.00000000000E+00  0.11102230246E-14  0.00000000000E+00  0.91188000000E+02  0.91188000000E+02 0.  0.
    9900012    2    3    3    0    0  0.39511263706E+02 -0.18202237953E+01 -0.17865314617E+02  0.47787278339E+02  0.20000033259E+02 0.  0.
         12    1    3    3    0    0 -0.39511263706E+02  0.18202237953E+01  0.17865314617E+02  0.43400721661E+02  0.00000000000E+00 0. -1.
         11    1    4    4    0    0  0.11691048762E+02 -0.78697198445E+01 -0.59117483855E+01  0.15282731458E+02  0.51100000000E-03 0.  1.
        -11    1    4    4    0    0 -0.85827815584E+00  0.54559905647E+00 -0.27101267223E+00  0.10525055120E+01  0.51100000000E-03 0. -1.
         12    1    4    4    0    0  0.28678493100E+02  0.55038969928E+01 -0.11682553559E+02  0.31452041369E+02  0.00000000000E+00 0. -1.
</event>
<event>
 8    1  0.5607891E-010  0.9118800E+02  0.7816164E-02  0.1184000E+00
        -11   -1    0    0    0    0  0.00000000000E+00  0.00000000000E+00  0.45593999997E+02  0.45594000000E+02  0.51100000000E-03 0. -1.
         11   -1    0    0    0    0 -0.00000000000E+00 -0.00000000000E+00 -0.45593999997E+02  0.45594000000E+02  0.51100000000E-03 0.  1.
         23    2    1    2    0    0  0.44408920985E-15  0.00000000000E+00 -0.71054273576E-14  0.91188000000E+02  0.91188000000E+02 0.  0.
    9900012    2    3    3    0    0  0.39196934086E+01 -0.15952586668E+02  0.40171808870E+02  0.47787271369E+02  0.20000001479E+02 0.  0.
        -12    1    3    3    0    0 -0.39196934086E+01  0.15952586668E+02 -0.40171808870E+02  0.43400728631E+02  0.00000000000E+00 0.  1.
         11    1    4    4    0    0  0.44525208335E+00 -0.67845260790E+01  0.14506294790E+02  0.16020631459E+02  0.51100000000E-03 0. -1.
        -11    1    4    4    0    0 -0.21935544551E+01 -0.83515088562E+01  0.42984677885E+01  0.96455278193E+01  0.51100000000E-03 0.  1.
        -12    1    4    4    0    0  0.56679957803E+01 -0.81655173244E+00  0.21367046292E+02  0.22121112091E+02  0.00000000000E+00 0.  1.
</event>
<event>
 8    1  0.4798632E-010  0.9118800E+02  0.7816164E-02  0.1184000E+00
        -11   -1    0    0    0    0  0.00000000000E+00  0.00000000000E+00  0.45593999997E+02  0.45594000000E+02  0.51100000000E-03 0. -1.
         11   -1    0    0    0    0 -0.00000000000E+00 -0.00000000000E+00 -0.45593999997E+02  0.45594000000E+02  0.51100000000E-03 0.  1.
         23    2    1    2    0    0  0.00000000000E+00 -0.71054273576E-14 -0.35527136788E-14  0.91188000000E+02  0.91188000000E+02 0.  0.
    9900012    2    3    3    0    0 -0.20196596668E+02 -0.28688473749E+02  0.25547851461E+02  0.47787265475E+02  0.19999974608E+02 0.  0.
        -12    1    3    3    0    0  0.20196596668E+02  0.28688473749E+02 -0.25547851461E+02  0.43400734525E+02  0.00000000000E+00 0.  1.
         11    1    4    4    0    0 -0.98568896798E+01 -0.16260655635E+02  0.19515139934E+02  0.27247162839E+02  0.51100000000E-03 0. -1.
        -11    1    4    4    0    0  0.18414356238E+01 -0.12925151050E+00 -0.68971936767E+00  0.19706101027E+01  0.51100000000E-03 0.  1.
        -12    1    4    4    0    0 -0.12181142612E+02 -0.12298566603E+02  0.67224308944E+01  0.18569492534E+02  0.00000000000E+00 0.  1.
</event>
<event>
 8    1  0.4798632E-010  0.9118800E+02  0.7816164E-02  0.1184000E+00
        -11   -1    0    0    0    0  0.00000000000E+00  0.00000000000E+00  0.45593999997E+02  0.45594000000E+02  0.51100000000E-03 0. -1.
         11   -1    0    0    0    0 -0.00000000000E+00 -0.00000000000E+00 -0.45593999997E+02  0.45594000000E+02  0.51100000000E-03 0.  1.
         23    2    1    2    0    0  0.00000000000E+00 -0.35527136788E-14  0.00000000000E+00  0.91188000000E+02  0.91188000000E+02 0.  0.
    9900012    2    3    3    0    0  0.21407174065E+02  0.18165371738E+02 -0.33096462989E+02  0.47787266202E+02  0.19999977923E+02 0.  0.
         12    1    3    3    0    0 -0.21407174065E+02 -0.18165371738E+02  0.33096462989E+02  0.43400733798E+02  0.00000000000E+00 0. -1.
         11    1    4    4    0    0  0.49755191445E+01  0.83332100512E+01 -0.60410740443E+01  0.11432093263E+02  0.51100000000E-03 0. -1.
        -11    1    4    4    0    0  0.16612193396E+02  0.26982697871E+01 -0.21544407627E+02  0.27338747768E+02  0.51100000000E-03 0.  1.
        -12    1    4    4    0    0 -0.18053847626E+00  0.71338918996E+01 -0.55109813173E+01  0.90164251705E+01  0.00000000000E+00 0.  1.
</event>
<event>
 8    1  0.4798632E-010  0.9118800E+02  0.7816164E-02  0.1184000E+00
        -11   -1    0    0    0    0  0.00000000000E+00  0.00000000000E+00  0.45593999997E+02  0.45594000000E+02  0.51100000000E-03 0. -1.
         11   -1    0    0    0    0 -0.00000000000E+00 -0.00000000000E+00 -0.45593999997E+02  0.45594000000E+02  0.51100000000E-03 0.  1.
         23    2    1    2    0    0  0.22204460493E-15  0.17763568394E-14 -0.71054273576E-14  0.91188000000E+02  0.91188000000E+02 0.  0.
    9900012    2    3    3    0    0  0.17215349684E+01  0.14326664943E+02 -0.40931731504E+02  0.47787266655E+02  0.19999979985E+02 0.  0.
         12    1    3    3    0    0 -0.17215349684E+01 -0.14326664943E+02  0.40931731504E+02  0.43400733345E+02  0.00000000000E+00 0. -1.
         11    1    4    4    0    0 -0.31078213965E+00  0.14890208814E+02 -0.20194974476E+02  0.25092865489E+02  0.51100000000E-03 0. -1.
        -11    1    4    4    0    0  0.53703775768E+01 -0.16240396387E+01 -0.11027384822E+02  0.12372618006E+02  0.51100000000E-03 0.  1.
         12    1    4    4    0    0 -0.33380604688E+01  0.10604957672E+01 -0.97093722057E+01  0.10321783160E+02  0.00000000000E+00 0. -1.
</event>
<event>
 8    1  0.4798632E-010  0.9118800E+02  0.7816164E-02  0.1184000E+00
        -11   -1    0    0    0    0  0.00000000000E+00  0.00000000000E+00  0.45593999997E+02  0.45594000000E+02  0.51100000000E-03 0. -1.
         11   -1    0    0    0    0 -0.00000000000E+00 -0.00000000000E+00 -0.45593999997E+02  0.45594000000E+02  0.51100000000E-03 0.  1.
         23    2    1    2    0    0  0.00000000000E+00  0.00000000000E+00  0.00000000000E+00  0.91188000000E+02  0.91188000000E+02 0.  0.
    9900012    2    3    3    0    0 -0.37383421352E+02  0.18182506442E+02  0.12469942269E+02  0.47787271979E+02  0.20000004263E+02 0.  0.
        -12    1    3    3    0    0  0.37383421352E+02 -0.18182506442E+02 -0.12469942269E+02  0.43400728021E+02  0.00000000000E+00 0.  1.
         11    1    4    4    0    0 -0.27876884632E+02  0.78000469389E+01  0.98352339339E+01  0.30572753488E+02  0.51100000000E-03 0. -1.
        -11    1    4    4    0    0 -0.27042878104E+01 -0.10311588688E+01  0.26551330385E+01  0.39276192391E+01  0.51100000000E-03 0.  1.
         12    1    4    4    0    0 -0.68022489099E+01  0.11413618372E+02 -0.20424703575E-01  0.13286899252E+02  0.00000000000E+00 0. -1.
</event>
<event>
 8    1  0.4798632E-010  0.9118800E+02  0.7816164E-02  0.1184000E+00
        -11   -1    0    0    0    0  0.00000000000E+00  0.00000000000E+00  0.45593999997E+02  0.45594000000E+02  0.51100000000E-03 0. -1.
         11   -1    0    0    0    0 -0.00000000000E+00 -0.00000000000E+00 -0.45593999997E+02  0.45594000000E+02  0.51100000000E-03 0.  1.
         23    2    1    2    0    0 -0.17763568394E-14  0.00000000000E+00  0.00000000000E+00  0.91188000000E+02  0.91188000000E+02 0.  0.
    9900012    2    3    3    0    0  0.95814742272E+01  0.18756534639E+02  0.37947471417E+02  0.47787276194E+02  0.20000023477E+02 0.  0.
        -12    1    3    3    0    0 -0.95814742272E+01 -0.18756534639E+02 -0.37947471417E+02  0.43400723806E+02  0.00000000000E+00 0.  1.
         11    1    4    4    0    0 -0.57188455105E+00  0.27081710341E+01  0.21673529590E+00  0.27763675440E+01  0.51100000000E-03 0. -1.
        -11    1    4    4    0    0  0.27526156638E+01  0.15504790704E+02  0.17919419601E+02  0.23855419235E+02  0.51100000000E-03 0.  1.
        -12    1    4    4    0    0  0.74007431144E+01  0.54357290050E+00  0.19811316520E+02  0.21155489415E+02  0.00000000000E+00 0.  1.
</event>
<event>
 8    1  0.4798632E-010  0.9118800E+02  0.7816164E-02  0.1184000E+00
        -11   -1    0    0    0    0  0.00000000000E+00  0.00000000000E+00  0.45593999997E+02  0.45594000000E+02  0.51100000000E-03 0. -1.
         11   -1    0    0    0    0 -0.00000000000E+00 -0.00000000000E+00 -0.45593999997E+02  0.45594000000E+02  0.51100000000E-03 0.  1.
         23    2    1    2    0    0  0.17763568394E-14  0.00000000000E+00  0.35527136788E-14  0.91188000000E+02  0.91188000000E+02 0.  0.
    9900012    2    3    3    0    0  0.14416507333E+02  0.31210312756E+02  0.26489699698E+02  0.47787268484E+02  0.19999988326E+02 0.  0.
        -12    1    3    3    0    0 -0.14416507333E+02 -0.31210312756E+02 -0.26489699698E+02  0.43400731516E+02  0.00000000000E+00 0.  1.
         11    1    4    4    0    0  0.10858051213E+02  0.47733062946E+01  0.10113340645E+02  0.15587218751E+02  0.51100000000E-03 0. -1.
        -11    1    4    4    0    0  0.35179298642E+01  0.25359382925E+02  0.17199763177E+02  0.30843248637E+02  0.51100000000E-03 0.  1.
         12    1    4    4    0    0  0.40526256226E-01  0.10776235365E+01 -0.82340412376E+00  0.13568010963E+01  0.00000000000E+00 0. -1.
</event>
<event>
 8    1  0.4798632E-010  0.9118800E+02  0.7816164E-02  0.1184000E+00
        -11   -1    0    0    0    0  0.00000000000E+00  0.00000000000E+00  0.45593999997E+02  0.45594000000E+02  0.51100000000E-03 0. -1.
         11   -1    0    0    0    0 -0.00000000000E+00 -0.00000000000E+00 -0.45593999997E+02  0.45594000000E+02  0.51100000000E-03 0.  1.
         23    2    1    2    0    0  0.00000000000E+00  0.17763568394E-14  0.00000000000E+00  0.91188000000E+02  0.91188000000E+02 0.  0.
    9900012    2    3    3    0    0 -0.34664041092E+02  0.15266665803E+02 -0.21188596478E+02  0.47787269012E+02  0.19999990733E+02 0.  0.
         12    1    3    3    0    0  0.34664041092E+02 -0.15266665803E+02  0.21188596478E+02  0.43400730988E+02  0.00000000000E+00 0. -1.
         11    1    4    4    0    0 -0.30262697881E+02  0.10720926850E+02 -0.13874841782E+02  0.34975425520E+02  0.51100000000E-03 0.  1.
        -11    1    4    4    0    0 -0.41958085182E+01 -0.14455458675E+01 -0.39308218704E+01  0.59283870331E+01  0.51100000000E-03 0. -1.
         12    1    4    4    0    0 -0.20553469266E+00  0.59912848210E+01 -0.33829328255E+01  0.68834564587E+01  0.00000000000E+00 0. -1.
</event>
<event>
 8    1  0.4798632E-010  0.9118800E+02  0.7816164E-02  0.1184000E+00
        -11   -1    0    0    0    0  0.00000000000E+00  0.00000000000E+00  0.45593999997E+02  0.45594000000E+02  0.51100000000E-03 0. -1.
         11   -1    0    0    0    0 -0.00000000000E+00 -0.00000000000E+00 -0.45593999997E+02  0.45594000000E+02  0.51100000000E-03 0.  1.
         23    2    1    2    0    0 -0.88817841970E-15  0.00000000000E+00  0.00000000000E+00  0.91188000000E+02  0.91188000000E+02 0.  0.
    9900012    2    3    3    0    0 -0.48818357202E+01  0.36205922167E+02  0.23429105395E+02  0.47787261532E+02  0.19999956629E+02 0.  0.
        -12    1    3    3    0    0  0.48818357202E+01 -0.36205922167E+02 -0.23429105395E+02  0.43400738468E+02  0.00000000000E+00 0.  1.
         11    1    4    4    0    0 -0.23553901629E+01  0.15986295705E+02  0.54513599357E+01  0.17053645903E+02  0.51100000000E-03 0. -1.
        -11    1    4    4    0    0  0.35923734987E+01 -0.19585321483E+00  0.22106274960E+01  0.42226034650E+01  0.51100000000E-03 0.  1.
        -12    1    4    4    0    0 -0.61188190560E+01  0.20415479676E+02  0.15767117964E+02  0.26511012164E+02  0.00000000000E+00 0.  1.
</event>
<event>
 8    1  0.4798632E-010  0.9118800E+02  0.7816164E-02  0.1184000E+00
        -11   -1    0    0    0    0  0.00000000000E+00  0.00000000000E+00  0.45593999997E+02  0.45594000000E+02  0.51100000000E-03 0. -1.
         11   -1    0    0    0    0 -0.00000000000E+00 -0.00000000000E+00 -0.45593999997E+02  0.45594000000E+02  0.51100000000E-03 0.  1.
         23    2    1    2    0    0  0.44408920985E-15 -0.35527136788E-14  0.71054273576E-14  0.91188000000E+02  0.91188000000E+02 0.  0.
    9900012    2    3    3    0    0 -0.11730766653E+01 -0.17535636617E+02  0.39683101586E+02  0.47787271758E+02  0.20000003256E+02 0.  0.
        -12    1    3    3    0    0  0.11730766653E+01  0.17535636617E+02 -0.39683101586E+02  0.43400728242E+02  0.00000000000E+00 0.  1.
         11    1    4    4    0    0 -0.47136066006E+01 -0.16092051983E+02  0.21016147876E+02  0.26885882838E+02  0.51100000000E-03 0. -1.
        -11    1    4    4    0    0  0.50516374541E+01 -0.34105948827E+01  0.16562681673E+02  0.17648615325E+02  0.51100000000E-03 0.  1.
         12    1    4    4    0    0 -0.15111075188E+01  0.19670102491E+01  0.21042720368E+01  0.32527735947E+01  0.00000000000E+00 0. -1.
</event>
<event>
 8    1  0.4798632E-010  0.9118800E+02  0.7816164E-02  0.1184000E+00
        -11   -1    0    0    0    0  0.00000000000E+00  0.00000000000E+00  0.45593999997E+02  0.45594000000E+02  0.51100000000E-03 0.  1.
         11   -1    0    0    0    0 -0.00000000000E+00 -0.00000000000E+00 -0.45593999997E+02  0.45594000000E+02  0.51100000000E-03 0. -1.
         23    2    1    2    0    0  0.00000000000E+00  0.00000000000E+00  0.88817841970E-15  0.91188000000E+02  0.91188000000E+02 0.  0.
    9900012    2    3    3    0    0  0.25216860860E+02 -0.34956837294E+02 -0.50747056852E+01  0.47787272091E+02  0.20000004772E+02 0.  0.
         12    1    3    3    0    0 -0.25216860860E+02  0.34956837294E+02  0.50747056852E+01  0.43400727909E+02  0.00000000000E+00 0. -1.
         11    1    4    4    0    0  0.39702897069E+01 -0.15002758079E+02 -0.81275740737E+01  0.17518658936E+02  0.51100000000E-03 0. -1.
        -11    1    4    4    0    0  0.13975791327E+02 -0.17457185603E+02  0.31319504272E+01  0.22580637416E+02  0.51100000000E-03 0.  1.
         12    1    4    4    0    0  0.72707798267E+01 -0.24968936125E+01 -0.79082038664E-01  0.76879757394E+01  0.00000000000E+00 0. -1.
</event>
<event>
 8    1  0.4798632E-010  0.9118800E+02  0.7816164E-02  0.1184000E+00
        -11   -1    0    0    0    0  0.00000000000E+00  0.00000000000E+00  0.45593999997E+02  0.45594000000E+02  0.51100000000E-03 0. -1.
         11   -1    0    0    0    0 -0.00000000000E+00 -0.00000000000E+00 -0.45593999997E+02  0.45594000000E+02  0.51100000000E-03 0.  1.
         23    2    1    2    0    0  0.00000000000E+00  0.00000000000E+00  0.00000000000E+00  0.91188000000E+02  0.91188000000E+02 0.  0.
    9900012    2    3    3    0    0  0.19504870735E+02  0.93912845885E+01 -0.37616311004E+02  0.47787273483E+02  0.20000011119E+02 0.  0.
         12    1    3    3    0    0 -0.19504870735E+02 -0.93912845885E+01  0.37616311004E+02  0.43400726517E+02  0.00000000000E+00 0. -1.
         11    1    4    4    0    0  0.82093453846E+01  0.20170619310E+01 -0.27684331081E+02  0.28946227356E+02  0.51100000000E-03 0. -1.
        -11    1    4    4    0    0 -0.54588336101E+00  0.16704667806E+01 -0.41019379733E+01  0.44625489696E+01  0.51100000000E-03 0.  1.
         12    1    4    4    0    0  0.11841408711E+02  0.57037558769E+01 -0.58300419501E+01  0.14378497158E+02  0.00000000000E+00 0. -1.
</event>
<event>
 8    1  0.4798632E-010  0.9118800E+02  0.7816164E-02  0.1184000E+00
        -11   -1    0    0    0    0  0.00000000000E+00  0.00000000000E+00  0.45593999997E+02  0.45594000000E+02  0.51100000000E-03 0.  1.
         11   -1    0    0    0    0 -0.00000000000E+00 -0.00000000000E+00 -0.45593999997E+02  0.45594000000E+02  0.51100000000E-03 0. -1.
         23    2    1    2    0    0 -0.35527136788E-14  0.17763568394E-14  0.00000000000E+00  0.91188000000E+02  0.91188000000E+02 0.  0.
    9900012    2    3    3    0    0  0.26447748353E+02 -0.11374188172E+02  0.32477160256E+02  0.47787291621E+02  0.20000093817E+02 0.  0.
        -12    1    3    3    0    0 -0.26447748353E+02  0.11374188172E+02 -0.32477160256E+02  0.43400708379E+02  0.00000000000E+00 0.  1.
         11    1    4    4    0    0  0.10597799476E+02 -0.43768263055E+01  0.16422487095E+02  0.20029179835E+02  0.51100000000E-03 0. -1.
        -11    1    4    4    0    0  0.33042709472E+01  0.14387034205E+01 -0.20698501739E+01  0.41560021689E+01  0.51100000000E-03 0.  1.
        -12    1    4    4    0    0  0.12545677930E+02 -0.84360652872E+01  0.18124523335E+02  0.23602109617E+02  0.00000000000E+00 0.  1.
</event>
<event>
 8    1  0.4798632E-010  0.9118800E+02  0.7816164E-02  0.1184000E+00
        -11   -1    0    0    0    0  0.00000000000E+00  0.00000000000E+00  0.45593999997E+02  0.45594000000E+02  0.51100000000E-03 0.  1.
         11   -1    0    0    0    0 -0.00000000000E+00 -0.00000000000E+00 -0.45593999997E+02  0.45594000000E+02  0.51100000000E-03 0. -1.
         23    2    1    2    0    0 -0.35527136788E-14  0.00000000000E+00 -0.88817841970E-15  0.91188000000E+02  0.91188000000E+02 0.  0.
    9900012    2    3    3    0    0 -0.19753733549E+02 -0.38073046980E+02 -0.66224071354E+01  0.47787272221E+02  0.20000005365E+02 0.  0.
        -12    1    3    3    0    0  0.19753733549E+02  0.38073046980E+02  0.66224071354E+01  0.43400727779E+02  0.00000000000E+00 0.  1.
         11    1    4    4    0    0 -0.56989971284E+01 -0.84026504849E+01  0.54493166568E+00  0.10167598252E+02  0.51100000000E-03 0. -1.
        -11    1    4    4    0    0 -0.61331887872E+01 -0.52647587389E+00 -0.37928855755E+01  0.72304330987E+01  0.51100000000E-03 0.  1.
        -12    1    4    4    0    0 -0.79215476336E+01 -0.29143920621E+02 -0.33744532256E+01  0.30389240870E+02  0.00000000000E+00 0.  1.
</event>
<event>
 8    1  0.4798632E-010  0.9118800E+02  0.7816164E-02  0.1184000E+00
        -11   -1    0    0    0    0  0.00000000000E+00  0.00000000000E+00  0.45593999997E+02  0.45594000000E+02  0.51100000000E-03 0. -1.
         11   -1    0    0    0    0 -0.00000000000E+00 -0.00000000000E+00 -0.45593999997E+02  0.45594000000E+02  0.51100000000E-03 0.  1.
         23    2    1    2    0    0  0.00000000000E+00  0.00000000000E+00 -0.35527136788E-14  0.91188000000E+02  0.91188000000E+02 0.  0.
    9900012    2    3    3    0    0 -0.29947384820E+02 -0.17662250080E+02  0.25977342900E+02  0.47787270978E+02  0.19999999697E+02 0.  0.
        -12    1    3    3    0    0  0.29947384820E+02  0.17662250080E+02 -0.25977342900E+02  0.43400729022E+02  0.00000000000E+00 0.  1.
         11    1    4    4    0    0 -0.28046119531E+01 -0.68730374326E+01  0.58323780506E+01  0.94403986009E+01  0.51100000000E-03 0. -1.
        -11    1    4    4    0    0 -0.10641112009E+02  0.30055206820E+01  0.79864960362E+01  0.13640034404E+02  0.51100000000E-03 0.  1.
        -12    1    4    4    0    0 -0.16501660858E+02 -0.13794733330E+02  0.12158468813E+02  0.24706837973E+02  0.00000000000E+00 0.  1.
</event>
<event>
 8    1  0.4798632E-010  0.9118800E+02  0.7816164E-02  0.1184000E+00
        -11   -1    0    0    0    0  0.00000000000E+00  0.00000000000E+00  0.45593999997E+02  0.45594000000E+02  0.51100000000E-03 0. -1.
         11   -1    0    0    0    0 -0.00000000000E+00 -0.00000000000E+00 -0.45593999997E+02  0.45594000000E+02  0.51100000000E-03 0.  1.
         23    2    1    2    0    0  0.44408920985E-15  0.00000000000E+00  0.00000000000E+00  0.91188000000E+02  0.91188000000E+02 0.  0.
    9900012    2    3    3    0    0 -0.12407195843E+01  0.94370777877E+01 -0.42344136864E+02  0.47787265571E+02  0.19999975043E+02 0.  0.
         12    1    3    3    0    0  0.12407195843E+01 -0.94370777877E+01  0.42344136864E+02  0.43400734429E+02  0.00000000000E+00 0. -1.
         11    1    4    4    0    0  0.29558456064E+01 -0.19093115127E+01 -0.20302435249E+02  0.20605129725E+02  0.51100000000E-03 0. -1.
        -11    1    4    4    0    0  0.13071340885E+01  0.78593852758E+01 -0.63390628025E+01  0.10181466197E+02  0.51100000000E-03 0.  1.
        -12    1    4    4    0    0 -0.55036992792E+01  0.34870040246E+01 -0.15702638813E+02  0.17000669649E+02  0.00000000000E+00 0.  1.
</event>
<event>
 8    1  0.4798632E-010  0.9118800E+02  0.7816164E-02  0.1184000E+00
        -11   -1    0    0    0    0  0.00000000000E+00  0.00000000000E+00  0.45593999997E+02  0.45594000000E+02  0.51100000000E-03 0. -1.
         11   -1    0    0    0    0 -0.00000000000E+00 -0.00000000000E+00 -0.45593999997E+02  0.45594000000E+02  0.51100000000E-03 0.  1.
         23    2    1    2    0    0  0.35527136788E-14  0.00000000000E+00  0.00000000000E+00  0.91188000000E+02  0.91188000000E+02 0.  0.
    9900012    2    3    3    0    0  0.19677439413E+02 -0.38151250728E+02 -0.63956119776E+01  0.47787269516E+02  0.19999993032E+02 0.  0.
        -12    1    3    3    0    0 -0.19677439413E+02  0.38151250728E+02  0.63956119776E+01  0.43400730484E+02  0.00000000000E+00 0.  1.
         11    1    4    4    0    0  0.84885976209E+01 -0.10011449839E+02 -0.92794692100E+01  0.16074637369E+02  0.51100000000E-03 0. -1.
        -11    1    4    4    0    0 -0.66672760138E+00 -0.89724490122E+01  0.47694617516E-01  0.89973130439E+01  0.51100000000E-03 0.  1.
         12    1    4    4    0    0  0.11855569393E+02 -0.19167351877E+02  0.28361626149E+01  0.22715319104E+02  0.00000000000E+00 0. -1.
</event>
<event>
 8    1  0.4798632E-010  0.9118800E+02  0.7816164E-02  0.1184000E+00
        -11   -1    0    0    0    0  0.00000000000E+00  0.00000000000E+00  0.45593999997E+02  0.45594000000E+02  0.51100000000E-03 0. -1.
         11   -1    0    0    0    0 -0.00000000000E+00 -0.00000000000E+00 -0.45593999997E+02  0.45594000000E+02  0.51100000000E-03 0.  1.
         23    2    1    2    0    0  0.00000000000E+00  0.35527136788E-14  0.35527136788E-14  0.91188000000E+02  0.91188000000E+02 0.  0.
    9900012    2    3    3    0    0  0.22891522373E+02  0.30149425053E+02 -0.21227663451E+02  0.47787270476E+02  0.19999997410E+02 0.  0.
         12    1    3    3    0    0 -0.22891522373E+02 -0.30149425053E+02  0.21227663451E+02  0.43400729524E+02  0.00000000000E+00 0. -1.
         11    1    4    4    0    0 -0.74429459736E+00  0.55256035514E+01  0.15017970653E+01  0.57742240813E+01  0.51100000000E-03 0. -1.
        -11    1    4    4    0    0  0.29861406979E+01  0.25568547233E+01  0.40642919183E+00  0.39521800684E+01  0.51100000000E-03 0.  1.
         12    1    4    4    0    0  0.20649676273E+02  0.22066966778E+02 -0.23135889708E+02  0.38060866327E+02  0.00000000000E+00 0. -1.
</event>
<event>
 8    1  0.4798632E-010  0.9118800E+02  0.7816164E-02  0.1184000E+00
        -11   -1    0    0    0    0  0.00000000000E+00  0.00000000000E+00  0.45593999997E+02  0.45594000000E+02  0.51100000000E-03 0. -1.
         11   -1    0    0    0    0 -0.00000000000E+00 -0.00000000000E+00 -0.45593999997E+02  0.45594000000E+02  0.51100000000E-03 0.  1.
         23    2    1    2    0    0  0.00000000000E+00  0.00000000000E+00  0.00000000000E+00  0.91188000000E+02  0.91188000000E+02 0.  0.
    9900012    2    3    3    0    0  0.10213913771E+01  0.18613399122E+01  0.43348785405E+02  0.47787250897E+02  0.19999908138E+02 0.  0.
        -12    1    3    3    0    0 -0.10213913771E+01 -0.18613399122E+01 -0.43348785405E+02  0.43400749103E+02  0.00000000000E+00 0.  1.
         11    1    4    4    0    0 -0.68950088471E+01 -0.15497723991E+01  0.61824814181E+01  0.93896761519E+01  0.51100000000E-03 0. -1.
        -11    1    4    4    0    0  0.77420541391E+01  0.17979818484E+01  0.32479937992E+02  0.33438279161E+02  0.51100000000E-03 0.  1.
         12    1    4    4    0    0  0.17434608513E+00  0.16131304628E+01  0.46863659953E+01  0.49592955840E+01  0.00000000000E+00 0. -1.
</event>
<event>
 8    1  0.4798632E-010  0.9118800E+02  0.7816164E-02  0.1184000E+00
        -11   -1    0    0    0    0  0.00000000000E+00  0.00000000000E+00  0.45593999997E+02  0.45594000000E+02  0.51100000000E-03 0. -1.
         11   -1    0    0    0    0 -0.00000000000E+00 -0.00000000000E+00 -0.45593999997E+02  0.45594000000E+02  0.51100000000E-03 0.  1.
         23    2    1    2    0    0  0.00000000000E+00  0.00000000000E+00  0.00000000000E+00  0.91188000000E+02  0.91188000000E+02 0.  0.
    9900012    2    3    3    0    0  0.11782323944E+02 -0.23664330417E+02 -0.34420916814E+02  0.47787271828E+02  0.20000003571E+02 0.  0.
         12    1    3    3    0    0 -0.11782323944E+02  0.23664330417E+02  0.34420916814E+02  0.43400728172E+02  0.00000000000E+00 0. -1.
         11    1    4    4    0    0  0.10557650739E+01 -0.13118205000E+02 -0.88531297303E+01  0.15861268820E+02  0.51100000000E-03 0. -1.
        -11    1    4    4    0    0  0.11495736781E+02 -0.12291810570E+02 -0.24547301210E+02  0.29762569919E+02  0.51100000000E-03 0.  1.
        -12    1    4    4    0    0 -0.76917791089E+00  0.17456851529E+01 -0.10204858736E+01  0.21634330888E+01  0.00000000000E+00 0.  1.
</event>
<event>
 8    1  0.4798632E-010  0.9118800E+02  0.7816164E-02  0.1184000E+00
        -11   -1    0    0    0    0  0.00000000000E+00  0.00000000000E+00  0.45593999997E+02  0.45594000000E+02  0.51100000000E-03 0. -1.
         11   -1    0    0    0    0 -0.00000000000E+00 -0.00000000000E+00 -0.45593999997E+02  0.45594000000E+02  0.51100000000E-03 0.  1.
         23    2    1    2    0    0  0.00000000000E+00  0.00000000000E+00  0.35527136788E-14  0.91188000000E+02  0.91188000000E+02 0.  0.
    9900012    2    3    3    0    0  0.17309505576E+02 -0.31280864551E+02  0.24607246302E+02  0.47787216126E+02  0.19999749602E+02 0.  0.
        -12    1    3    3    0    0 -0.17309505576E+02  0.31280864551E+02 -0.24607246302E+02  0.43400783874E+02  0.00000000000E+00 0.  1.
         11    1    4    4    0    0  0.17129971476E+02 -0.15279646644E+02  0.14538694920E+02  0.27171256404E+02  0.51100000000E-03 0. -1.
        -11    1    4    4    0    0 -0.29879135151E+01 -0.35779100348E+01  0.49829416065E+01  0.68233990581E+01  0.51100000000E-03 0.  1.
        -12    1    4    4    0    0  0.31674476153E+01 -0.12423307872E+02  0.50856097756E+01  0.13792560664E+02  0.00000000000E+00 0.  1.
</event>
<event>
 8    1  0.4798632E-010  0.9118800E+02  0.7816164E-02  0.1184000E+00
        -11   -1    0    0    0    0  0.00000000000E+00  0.00000000000E+00  0.45593999997E+02  0.45594000000E+02  0.51100000000E-03 0. -1.
         11   -1    0    0    0    0 -0.00000000000E+00 -0.00000000000E+00 -0.45593999997E+02  0.45594000000E+02  0.51100000000E-03 0.  1.
         23    2    1    2    0    0  0.00000000000E+00  0.35527136788E-14  0.00000000000E+00  0.91188000000E+02  0.91188000000E+02 0.  0.
    9900012    2    3    3    0    0 -0.15695912634E+02  0.28484971248E+02  0.28737944987E+02  0.47787254125E+02  0.19999922856E+02 0.  0.
        -12    1    3    3    0    0  0.15695912634E+02 -0.28484971248E+02 -0.28737944987E+02  0.43400745875E+02  0.00000000000E+00 0.  1.
         11    1    4    4    0    0 -0.13323387460E+01  0.13437082869E+02  0.13773642301E+02  0.19288430342E+02  0.51100000000E-03 0. -1.
        -11    1    4    4    0    0 -0.65159293398E+01 -0.78245838776E+00  0.35147760394E+01  0.74446777740E+01  0.51100000000E-03 0.  1.
        -12    1    4    4    0    0 -0.78476445483E+01  0.15830346767E+02  0.11449526647E+02  0.21054146009E+02  0.00000000000E+00 0.  1.
</event>
<event>
 8    1  0.4798632E-010  0.9118800E+02  0.7816164E-02  0.1184000E+00
        -11   -1    0    0    0    0  0.00000000000E+00  0.00000000000E+00  0.45593999997E+02  0.45594000000E+02  0.51100000000E-03 0. -1.
         11   -1    0    0    0    0 -0.00000000000E+00 -0.00000000000E+00 -0.45593999997E+02  0.45594000000E+02  0.51100000000E-03 0.  1.
         23    2    1    2    0    0 -0.88817841970E-15  0.35527136788E-14  0.00000000000E+00  0.91188000000E+02  0.91188000000E+02 0.  0.
    9900012    2    3    3    0    0  0.46317439909E+01 -0.31978863027E+02  0.28974528934E+02  0.47787261989E+02  0.19999958713E+02 0.  0.
        -12    1    3    3    0    0 -0.46317439909E+01  0.31978863027E+02 -0.28974528934E+02  0.43400738011E+02  0.00000000000E+00 0.  1.
         11    1    4    4    0    0  0.82104488808E+01 -0.25365764471E+02  0.19217860561E+02  0.32865782248E+02  0.51100000000E-03 0. -1.
        -11    1    4    4    0    0 -0.12478809274E+01 -0.24739679906E+01 -0.11693404866E+01  0.30075042581E+01  0.51100000000E-03 0.  1.
         12    1    4    4    0    0 -0.23308239625E+01 -0.41391305662E+01  0.10926008860E+02  0.11913975483E+02  0.00000000000E+00 0. -1.
</event>
<event>
 8    1  0.4798632E-010  0.9118800E+02  0.7816164E-02  0.1184000E+00
        -11   -1    0    0    0    0  0.00000000000E+00  0.00000000000E+00  0.45593999997E+02  0.45594000000E+02  0.51100000000E-03 0. -1.
         11   -1    0    0    0    0 -0.00000000000E+00 -0.00000000000E+00 -0.45593999997E+02  0.45594000000E+02  0.51100000000E-03 0.  1.
         23    2    1    2    0    0  0.00000000000E+00  0.00000000000E+00 -0.17763568394E-14  0.91188000000E+02  0.91188000000E+02 0.  0.
    9900012    2    3    3    0    0  0.18648722264E+02 -0.36669666435E+02  0.13826930922E+02  0.47787270775E+02  0.19999998772E+02 0.  0.
        -12    1    3    3    0    0 -0.18648722264E+02  0.36669666435E+02 -0.13826930922E+02  0.43400729225E+02  0.00000000000E+00 0.  1.
         11    1    4    4    0    0  0.54729005759E+01 -0.20669292898E+02  0.10528125976E+02  0.23833038968E+02  0.51100000000E-03 0. -1.
        -11    1    4    4    0    0  0.40012619665E+01  0.11336484512E+01 -0.37031080875E+00  0.41752109518E+01  0.51100000000E-03 0.  1.
        -12    1    4    4    0    0  0.91745597220E+01 -0.17134021988E+02  0.36691157546E+01  0.19779020855E+02  0.00000000000E+00 0.  1.
</event>
<event>
 8    1  0.4798632E-010  0.9118800E+02  0.7816164E-02  0.1184000E+00
        -11   -1    0    0    0    0  0.00000000000E+00  0.00000000000E+00  0.45593999997E+02  0.45594000000E+02  0.51100000000E-03 0. -1.
         11   -1    0    0    0    0 -0.00000000000E+00 -0.00000000000E+00 -0.45593999997E+02  0.45594000000E+02  0.51100000000E-03 0.  1.
         23    2    1    2    0    0  0.00000000000E+00  0.00000000000E+00  0.00000000000E+00  0.91188000000E+02  0.91188000000E+02 0.  0.
    9900012    2    3    3    0    0 -0.22238701178E+02  0.90584144104E+01  0.36152581559E+02  0.47787264349E+02  0.19999969472E+02 0.  0.
        -12    1    3    3    0    0  0.22238701178E+02 -0.90584144104E+01 -0.36152581559E+02  0.43400735651E+02  0.00000000000E+00 0.  1.
         11    1    4    4    0    0 -0.16771791163E+02  0.36491167252E+01  0.20965129399E+02  0.27095122858E+02  0.51100000000E-03 0. -1.
        -11    1    4    4    0    0 -0.85440096042E-03 -0.31702432947E+01  0.68176193517E+01  0.75186685765E+01  0.51100000000E-03 0.  1.
        -12    1    4    4    0    0 -0.54660556134E+01  0.85795409799E+01  0.83698328076E+01  0.13173472914E+02  0.00000000000E+00 0.  1.
</event>
<event>
 8    1  0.4798632E-010  0.9118800E+02  0.7816164E-02  0.1184000E+00
        -11   -1    0    0    0    0  0.00000000000E+00  0.00000000000E+00  0.45593999997E+02  0.45594000000E+02  0.51100000000E-03 0. -1.
         11   -1    0    0    0    0 -0.00000000000E+00 -0.00000000000E+00 -0.45593999997E+02  0.45594000000E+02  0.51100000000E-03 0.  1.
         23    2    1    2    0    0 -0.88817841970E-15  0.17763568394E-14  0.71054273576E-14  0.91188000000E+02  0.91188000000E+02 0.  0.
    9900012    2    3    3    0    0 -0.72678642209E+01  0.12027645053E+02  0.41062606306E+02  0.47787265761E+02  0.19999975912E+02 0.  0.
        -12    1    3    3    0    0  0.72678642209E+01 -0.12027645053E+02 -0.41062606306E+02  0.43400734239E+02  0.00000000000E+00 0.  1.
         11    1    4    4    0    0 -0.43866847182E+01 -0.31691744630E+01  0.16784810635E+02  0.17635660972E+02  0.51100000000E-03 0. -1.
        -11    1    4    4    0    0 -0.51665060567E+00 -0.10841477022E+01  0.66522473092E+00  0.13728904881E+01  0.51100000000E-03 0.  1.
         12    1    4    4    0    0 -0.23645288971E+01  0.16280967218E+02  0.23612570939E+02  0.28778714301E+02  0.00000000000E+00 0. -1.
</event>
<event>
 8    1  0.4798632E-010  0.9118800E+02  0.7816164E-02  0.1184000E+00
        -11   -1    0    0    0    0  0.00000000000E+00  0.00000000000E+00  0.45593999997E+02  0.45594000000E+02  0.51100000000E-03 0. -1.
         11   -1    0    0    0    0 -0.00000000000E+00 -0.00000000000E+00 -0.45593999997E+02  0.45594000000E+02  0.51100000000E-03 0.  1.
         23    2    1    2    0    0 -0.17763568394E-14  0.00000000000E+00 -0.71054273576E-14  0.91188000000E+02  0.91188000000E+02 0.  0.
    9900012    2    3    3    0    0 -0.10861556671E+02  0.11315122847E+02 -0.40467499792E+02  0.47787263166E+02  0.19999964078E+02 0.  0.
         12    1    3    3    0    0  0.10861556671E+02 -0.11315122847E+02  0.40467499792E+02  0.43400736834E+02  0.00000000000E+00 0. -1.
         11    1    4    4    0    0 -0.16896389057E+01  0.83489595168E+01 -0.86878383234E+01  0.12167108927E+02  0.51100000000E-03 0. -1.
        -11    1    4    4    0    0  0.11943972112E+01 -0.33654424469E+01 -0.10831055627E+02  0.11404584772E+02  0.51100000000E-03 0.  1.
        -12    1    4    4    0    0 -0.10366314977E+02  0.63316057769E+01 -0.20948605842E+02  0.24215569467E+02  0.00000000000E+00 0.  1.
</event>
<event>
 8    1  0.4798632E-010  0.9118800E+02  0.7816164E-02  0.1184000E+00
        -11   -1    0    0    0    0  0.00000000000E+00  0.00000000000E+00  0.45593999997E+02  0.45594000000E+02  0.51100000000E-03 0. -1.
         11   -1    0    0    0    0 -0.00000000000E+00 -0.00000000000E+00 -0.45593999997E+02  0.45594000000E+02  0.51100000000E-03 0.  1.
         23    2    1    2    0    0  0.00000000000E+00  0.22204460493E-15  0.00000000000E+00  0.91188000000E+02  0.91188000000E+02 0.  0.
    9900012    2    3    3    0    0  0.23316693740E+02 -0.10739240487E+01 -0.36589638054E+02  0.47787272670E+02  0.20000007414E+02 0.  0.
         12    1    3    3    0    0 -0.23316693740E+02  0.10739240487E+01  0.36589638054E+02  0.43400727330E+02  0.00000000000E+00 0. -1.
         11    1    4    4    0    0  0.40138662890E+01  0.16280642508E+01 -0.20681853862E+01  0.47999069620E+01  0.51100000000E-03 0. -1.
        -11    1    4    4    0    0  0.17496970607E+02 -0.46001026406E+01 -0.35770205790E+02  0.40085066387E+02  0.51100000000E-03 0.  1.
        -12    1    4    4    0    0  0.18058568440E+01  0.18981143411E+01  0.12487531223E+01  0.29022993218E+01  0.00000000000E+00 0.  1.
</event>
<event>
 8    1  0.4798632E-010  0.9118800E+02  0.7816164E-02  0.1184000E+00
        -11   -1    0    0    0    0  0.00000000000E+00  0.00000000000E+00  0.45593999997E+02  0.45594000000E+02  0.51100000000E-03 0. -1.
         11   -1    0    0    0    0 -0.00000000000E+00 -0.00000000000E+00 -0.45593999997E+02  0.45594000000E+02  0.51100000000E-03 0.  1.
         23    2    1    2    0    0 -0.17763568394E-14  0.00000000000E+00  0.00000000000E+00  0.91188000000E+02  0.91188000000E+02 0.  0.
    9900012    2    3    3    0    0 -0.14816139826E+02  0.55540587332E+01 -0.40413582802E+02  0.47787271404E+02  0.20000001641E+02 0.  0.
         12    1    3    3    0    0  0.14816139826E+02 -0.55540587332E+01  0.40413582802E+02  0.43400728596E+02  0.00000000000E+00 0. -1.
         11    1    4    4    0    0 -0.52932176926E+01  0.86463332805E+01 -0.12980397233E+02  0.16470213882E+02  0.51100000000E-03 0. -1.
        -11    1    4    4    0    0 -0.92875461294E+00 -0.36627459457E+01 -0.18599084632E+02  0.18979047458E+02  0.51100000000E-03 0.  1.
        -12    1    4    4    0    0 -0.85941675206E+01  0.57047139849E+00 -0.88341009366E+01  0.12338010064E+02  0.00000000000E+00 0.  1.
</event>
<event>
 8    1  0.4798632E-010  0.9118800E+02  0.7816164E-02  0.1184000E+00
        -11   -1    0    0    0    0  0.00000000000E+00  0.00000000000E+00  0.45593999997E+02  0.45594000000E+02  0.51100000000E-03 0. -1.
         11   -1    0    0    0    0 -0.00000000000E+00 -0.00000000000E+00 -0.45593999997E+02  0.45594000000E+02  0.51100000000E-03 0.  1.
         23    2    1    2    0    0  0.71054273576E-14  0.17763568394E-14  0.35527136788E-14  0.91188000000E+02  0.91188000000E+02 0.  0.
    9900012    2    3    3    0    0 -0.36362131259E+02  0.14117700016E+02 -0.19029174385E+02  0.47787268195E+02  0.19999987009E+02 0.  0.
         12    1    3    3    0    0  0.36362131259E+02 -0.14117700016E+02  0.19029174385E+02  0.43400731805E+02  0.00000000000E+00 0. -1.
         11    1    4    4    0    0 -0.21504728789E+02  0.74820056850E+01 -0.17757627100E+02  0.28875025365E+02  0.51100000000E-03 0. -1.
        -11    1    4    4    0    0 -0.23057059299E+01  0.21404001819E+01  0.35420643866E+01  0.47374901745E+01  0.51100000000E-03 0.  1.
        -12    1    4    4    0    0 -0.12551696540E+02  0.44952941493E+01 -0.48136116715E+01  0.14174752655E+02  0.00000000000E+00 0.  1.
</event>
<event>
 8    1  0.4798632E-010  0.9118800E+02  0.7816164E-02  0.1184000E+00
        -11   -1    0    0    0    0  0.00000000000E+00  0.00000000000E+00  0.45593999997E+02  0.45594000000E+02  0.51100000000E-03 0. -1.
         11   -1    0    0    0    0 -0.00000000000E+00 -0.00000000000E+00 -0.45593999997E+02  0.45594000000E+02  0.51100000000E-03 0.  1.
         23    2    1    2    0    0  0.35527136788E-14  0.00000000000E+00 -0.35527136788E-14  0.91188000000E+02  0.91188000000E+02 0.  0.
    9900012    2    3    3    0    0 -0.24367757206E+02 -0.20818693965E+02  0.29264617264E+02  0.47787269208E+02  0.19999991627E+02 0.  0.
        -12    1    3    3    0    0  0.24367757206E+02  0.20818693965E+02 -0.29264617264E+02  0.43400730792E+02  0.00000000000E+00 0.  1.
         11    1    4    4    0    0 -0.44572467409E+00 -0.99978203091E+01  0.13169414926E+02  0.16540513026E+02  0.51100000000E-03 0.  1.
        -11    1    4    4    0    0 -0.18886414708E+02 -0.79947824141E+01  0.14899740577E+02  0.25349861457E+02  0.51100000000E-03 0. -1.
        -12    1    4    4    0    0 -0.50356178235E+01 -0.28260912419E+01  0.11954617612E+01  0.58968947247E+01  0.00000000000E+00 0.  1.
</event>
<event>
 8    1  0.5947564E-010  0.9118800E+02  0.7816164E-02  0.1184000E+00
        -11   -1    0    0    0    0  0.00000000000E+00  0.00000000000E+00  0.45593999997E+02  0.45594000000E+02  0.51100000000E-03 0. -1.
         11   -1    0    0    0    0 -0.00000000000E+00 -0.00000000000E+00 -0.45593999997E+02  0.45594000000E+02  0.51100000000E-03 0.  1.
         23    2    1    2    0    0  0.35527136788E-14 -0.17763568394E-14  0.71054273576E-14  0.91188000000E+02  0.91188000000E+02 0.  0.
    9900012    2    3    3    0    0 -0.24409810345E+02  0.12619616719E+02 -0.33593598423E+02  0.47787269335E+02  0.19999992207E+02 0.  0.
         12    1    3    3    0    0  0.24409810345E+02 -0.12619616719E+02  0.33593598423E+02  0.43400730665E+02  0.00000000000E+00 0. -1.
         11    1    4    4    0    0 -0.12651287184E+01 -0.21122149682E+01  0.32359918166E+00  0.24832880295E+01  0.51100000000E-03 0. -1.
        -11    1    4    4    0    0 -0.14443111063E+02  0.61550734453E+01 -0.27082869570E+02  0.31304475889E+02  0.51100000000E-03 0.  1.
        -12    1    4    4    0    0 -0.87015705638E+01  0.85767582420E+01 -0.68343280352E+01  0.13999505417E+02  0.00000000000E+00 0.  1.
</event>
<event>
 8    1  0.4798632E-010  0.9118800E+02  0.7816164E-02  0.1184000E+00
        -11   -1    0    0    0    0  0.00000000000E+00  0.00000000000E+00  0.45593999997E+02  0.45594000000E+02  0.51100000000E-03 0. -1.
         11   -1    0    0    0    0 -0.00000000000E+00 -0.00000000000E+00 -0.45593999997E+02  0.45594000000E+02  0.51100000000E-03 0.  1.
         23    2    1    2    0    0  0.71054273576E-14  0.35527136788E-14  0.00000000000E+00  0.91188000000E+02  0.91188000000E+02 0.  0.
    9900012    2    3    3    0    0  0.33145246077E+02  0.18239099086E+02 -0.21268554003E+02  0.47787268873E+02  0.19999990100E+02 0.  0.
         12    1    3    3    0    0 -0.33145246077E+02 -0.18239099086E+02  0.21268554003E+02  0.43400731127E+02  0.00000000000E+00 0. -1.
         11    1    4    4    0    0  0.27227552917E+02  0.17128032558E+02 -0.17639200965E+02  0.36685835797E+02  0.51100000000E-03 0. -1.
        -11    1    4    4    0    0  0.77180684535E+01  0.23616040089E+01 -0.37627928562E+01  0.89052997977E+01  0.51100000000E-03 0.  1.
         12    1    4    4    0    0 -0.18003752940E+01 -0.12505374812E+01  0.13343981742E+00  0.21961332783E+01  0.00000000000E+00 0. -1.
</event>
<event>
 8    1  0.4798632E-010  0.9118800E+02  0.7816164E-02  0.1184000E+00
        -11   -1    0    0    0    0  0.00000000000E+00  0.00000000000E+00  0.45593999997E+02  0.45594000000E+02  0.51100000000E-03 0. -1.
         11   -1    0    0    0    0 -0.00000000000E+00 -0.00000000000E+00 -0.45593999997E+02  0.45594000000E+02  0.51100000000E-03 0.  1.
         23    2    1    2    0    0  0.44408920985E-15  0.00000000000E+00  0.71054273576E-14  0.91188000000E+02  0.91188000000E+02 0.  0.
    9900012    2    3    3    0    0 -0.33728452750E+01 -0.27746672178E+02 -0.33201949931E+02  0.47787269805E+02  0.19999994349E+02 0.  0.
         12    1    3    3    0    0  0.33728452750E+01  0.27746672178E+02  0.33201949931E+02  0.43400730195E+02  0.00000000000E+00 0. -1.
         11    1    4    4    0    0  0.12340020752E+01 -0.11173194797E+02 -0.16486936190E+02  0.19954500953E+02  0.51100000000E-03 0. -1.
        -11    1    4    4    0    0 -0.19799444597E+01 -0.12297167116E+02 -0.24280994023E+01  0.12690002605E+02  0.51100000000E-03 0.  1.
        -12    1    4    4    0    0 -0.26269028906E+01 -0.42763102651E+01 -0.14286914340E+02  0.15142766247E+02  0.00000000000E+00 0.  1.
</event>
<event>
 8    1  0.4798632E-010  0.9118800E+02  0.7816164E-02  0.1184000E+00
        -11   -1    0    0    0    0  0.00000000000E+00  0.00000000000E+00  0.45593999997E+02  0.45594000000E+02  0.51100000000E-03 0. -1.
         11   -1    0    0    0    0 -0.00000000000E+00 -0.00000000000E+00 -0.45593999997E+02  0.45594000000E+02  0.51100000000E-03 0.  1.
         23    2    1    2    0    0  0.35527136788E-14  0.00000000000E+00  0.00000000000E+00  0.91188000000E+02  0.91188000000E+02 0.  0.
    9900012    2    3    3    0    0 -0.22295097316E+02 -0.10757135989E+02  0.35648784408E+02  0.47787272255E+02  0.20000005521E+02 0.  0.
        -12    1    3    3    0    0  0.22295097316E+02  0.10757135989E+02 -0.35648784408E+02  0.43400727745E+02  0.00000000000E+00 0.  1.
         11    1    4    4    0    0 -0.20537474028E+02 -0.14822353313E+02  0.29002299027E+02  0.38504848348E+02  0.51100000000E-03 0. -1.
        -11    1    4    4    0    0  0.11779262791E+01  0.27645597992E+01  0.45325349451E+01  0.54382142742E+01  0.51100000000E-03 0.  1.
         12    1    4    4    0    0 -0.29355495674E+01  0.13006575250E+01  0.21139504355E+01  0.38442096332E+01  0.00000000000E+00 0. -1.
</event>
<event>
 8    1  0.4798632E-010  0.9118800E+02  0.7816164E-02  0.1184000E+00
        -11   -1    0    0    0    0  0.00000000000E+00  0.00000000000E+00  0.45593999997E+02  0.45594000000E+02  0.51100000000E-03 0. -1.
         11   -1    0    0    0    0 -0.00000000000E+00 -0.00000000000E+00 -0.45593999997E+02  0.45594000000E+02  0.51100000000E-03 0.  1.
         23    2    1    2    0    0 -0.88817841970E-15 -0.17763568394E-14  0.71054273576E-14  0.91188000000E+02  0.91188000000E+02 0.  0.
    9900012    2    3    3    0    0 -0.44895219176E+01 -0.15851068099E+02  0.40152343434E+02  0.47787275926E+02  0.20000022257E+02 0.  0.
        -12    1    3    3    0    0  0.44895219176E+01  0.15851068099E+02 -0.40152343434E+02  0.43400724074E+02  0.00000000000E+00 0.  1.
         11    1    4    4    0    0  0.62004626907E+00 -0.92738688077E+01  0.52715654719E+01  0.10685434143E+02  0.51100000000E-03 0. -1.
        -11    1    4    4    0    0 -0.22570117325E+01  0.72744161939E+00  0.14855115226E+01  0.27982169349E+01  0.51100000000E-03 0.  1.
         12    1    4    4    0    0 -0.28525564542E+01 -0.73046409109E+01  0.33395266439E+02  0.34303624848E+02  0.00000000000E+00 0. -1.
</event>
<event>
 8    1  0.4798632E-010  0.9118800E+02  0.7816164E-02  0.1184000E+00
        -11   -1    0    0    0    0  0.00000000000E+00  0.00000000000E+00  0.45593999997E+02  0.45594000000E+02  0.51100000000E-03 0. -1.
         11   -1    0    0    0    0 -0.00000000000E+00 -0.00000000000E+00 -0.45593999997E+02  0.45594000000E+02  0.51100000000E-03 0.  1.
         23    2    1    2    0    0  0.22204460493E-15  0.00000000000E+00 -0.35527136788E-14  0.91188000000E+02  0.91188000000E+02 0.  0.
    9900012    2    3    3    0    0 -0.20854920172E+00  0.37984584143E+02  0.20994065040E+02  0.47787275442E+02  0.20000020049E+02 0.  0.
        -12    1    3    3    0    0  0.20854920172E+00 -0.37984584143E+02 -0.20994065040E+02  0.43400724558E+02  0.00000000000E+00 0.  1.
         11    1    4    4    0    0  0.48653400556E+01  0.14816615946E+02  0.17893038513E+02  0.23735300071E+02  0.51100000000E-03 0. -1.
        -11    1    4    4    0    0 -0.36040786417E+01  0.16900943907E+02  0.11210711938E+01  0.17317277173E+02  0.51100000000E-03 0.  1.
         12    1    4    4    0    0 -0.14698106157E+01  0.62670242899E+01  0.19799553326E+01  0.67346981978E+01  0.00000000000E+00 0. -1.
</event>
<event>
 8    1  0.4798632E-010  0.9118800E+02  0.7816164E-02  0.1184000E+00
        -11   -1    0    0    0    0  0.00000000000E+00  0.00000000000E+00  0.45593999997E+02  0.45594000000E+02  0.51100000000E-03 0. -1.
         11   -1    0    0    0    0 -0.00000000000E+00 -0.00000000000E+00 -0.45593999997E+02  0.45594000000E+02  0.51100000000E-03 0.  1.
         23    2    1    2    0    0  0.35527136788E-14  0.00000000000E+00  0.00000000000E+00  0.91188000000E+02  0.91188000000E+02 0.  0.
    9900012    2    3    3    0    0  0.25011746972E+02 -0.12198689626E+02 -0.33305070789E+02  0.47787271257E+02  0.20000000969E+02 0.  0.
         12    1    3    3    0    0 -0.25011746972E+02  0.12198689626E+02  0.33305070789E+02  0.43400728743E+02  0.00000000000E+00 0. -1.
         11    1    4    4    0    0  0.21945655664E+01 -0.38440710863E+00  0.10440491398E+01  0.24604726615E+01  0.51100000000E-03 0. -1.
        -11    1    4    4    0    0  0.13054510029E+02 -0.52588632414E+01 -0.29347985649E+02  0.32548120323E+02  0.51100000000E-03 0.  1.
        -12    1    4    4    0    0  0.97626713773E+01 -0.65554192758E+01 -0.50011342798E+01  0.12778678272E+02  0.00000000000E+00 0.  1.
</event>
<event>
 8    1  0.4798632E-010  0.9118800E+02  0.7816164E-02  0.1184000E+00
        -11   -1    0    0    0    0  0.00000000000E+00  0.00000000000E+00  0.45593999997E+02  0.45594000000E+02  0.51100000000E-03 0. -1.
         11   -1    0    0    0    0 -0.00000000000E+00 -0.00000000000E+00 -0.45593999997E+02  0.45594000000E+02  0.51100000000E-03 0.  1.
         23    2    1    2    0    0 -0.17763568394E-14 -0.22204460493E-15  0.00000000000E+00  0.91188000000E+02  0.91188000000E+02 0.  0.
    9900012    2    3    3    0    0  0.75709984046E+01  0.58986762057E+00 -0.42731197831E+02  0.47787271564E+02  0.20000002371E+02 0.  0.
         12    1    3    3    0    0 -0.75709984046E+01 -0.58986762057E+00  0.42731197831E+02  0.43400728436E+02  0.00000000000E+00 0. -1.
         11    1    4    4    0    0  0.10658726095E+02  0.25819882433E+01 -0.17576647406E+02  0.20717471843E+02  0.51100000000E-03 0. -1.
        -11    1    4    4    0    0  0.31224285670E+01 -0.18010980382E+01 -0.68663265041E+01  0.77549954366E+01  0.51100000000E-03 0.  1.
         12    1    4    4    0    0 -0.62101562578E+01 -0.19102258455E+00 -0.18288223921E+02  0.19314804285E+02  0.00000000000E+00 0. -1.
</event>
<event>
 8    1  0.4798632E-010  0.9118800E+02  0.7816164E-02  0.1184000E+00
        -11   -1    0    0    0    0  0.00000000000E+00  0.00000000000E+00  0.45593999997E+02  0.45594000000E+02  0.51100000000E-03 0. -1.
         11   -1    0    0    0    0 -0.00000000000E+00 -0.00000000000E+00 -0.45593999997E+02  0.45594000000E+02  0.51100000000E-03 0.  1.
         23    2    1    2    0    0 -0.88817841970E-15  0.00000000000E+00  0.88817841970E-15  0.91188000000E+02  0.91188000000E+02 0.  0.
    9900012    2    3    3    0    0 -0.72762068339E+01 -0.42069861494E+02 -0.77978808952E+01  0.47787269840E+02  0.19999994507E+02 0.  0.
         12    1    3    3    0    0  0.72762068339E+01  0.42069861494E+02  0.77978808952E+01  0.43400730160E+02  0.00000000000E+00 0. -1.
         11    1    4    4    0    0  0.97692240785E+00 -0.10546014853E+02  0.19509109234E+01  0.10769348187E+02  0.51100000000E-03 0. -1.
        -11    1    4    4    0    0 -0.99461857533E+01 -0.15774028586E+02 -0.10031327346E+02  0.21174846338E+02  0.51100000000E-03 0.  1.
        -12    1    4    4    0    0  0.16930565115E+01 -0.15749818055E+02  0.28253552740E+00  0.15843075315E+02  0.00000000000E+00 0.  1.
</event>
<event>
 8    1  0.4798632E-010  0.9118800E+02  0.7816164E-02  0.1184000E+00
        -11   -1    0    0    0    0  0.00000000000E+00  0.00000000000E+00  0.45593999997E+02  0.45594000000E+02  0.51100000000E-03 0. -1.
         11   -1    0    0    0    0 -0.00000000000E+00 -0.00000000000E+00 -0.45593999997E+02  0.45594000000E+02  0.51100000000E-03 0.  1.
         23    2    1    2    0    0  0.00000000000E+00 -0.71054273576E-14  0.35527136788E-14  0.91188000000E+02  0.91188000000E+02 0.  0.
    9900012    2    3    3    0    0 -0.12288639140E+02  0.36555836646E+02 -0.19906880465E+02  0.47787265736E+02  0.19999975797E+02 0.  0.
         12    1    3    3    0    0  0.12288639140E+02 -0.36555836646E+02  0.19906880465E+02  0.43400734264E+02  0.00000000000E+00 0. -1.
         11    1    4    4    0    0 -0.79834524889E+01  0.24006722785E+01 -0.20221527450E+01  0.85783356787E+01  0.51100000000E-03 0. -1.
        -11    1    4    4    0    0  0.10759235203E+01  0.13546130600E+02 -0.72409363819E+01  0.15397611036E+02  0.51100000000E-03 0.  1.
         12    1    4    4    0    0 -0.53811101717E+01  0.20609033767E+02 -0.10643791338E+02  0.23811319021E+02  0.00000000000E+00 0. -1.
</event>
<event>
 8    1  0.4798632E-010  0.9118800E+02  0.7816164E-02  0.1184000E+00
        -11   -1    0    0    0    0  0.00000000000E+00  0.00000000000E+00  0.45593999997E+02  0.45594000000E+02  0.51100000000E-03 0. -1.
         11   -1    0    0    0    0 -0.00000000000E+00 -0.00000000000E+00 -0.45593999997E+02  0.45594000000E+02  0.51100000000E-03 0.  1.
         23    2    1    2    0    0  0.00000000000E+00  0.00000000000E+00  0.35527136788E-14  0.91188000000E+02  0.91188000000E+02 0.  0.
    9900012    2    3    3    0    0  0.23172132011E+02 -0.18136175196E+02  0.31902270157E+02  0.47787269662E+02  0.19999993698E+02 0.  0.
        -12    1    3    3    0    0 -0.23172132011E+02  0.18136175196E+02 -0.31902270157E+02  0.43400730338E+02  0.00000000000E+00 0.  1.
         11    1    4    4    0    0  0.56627970603E+01 -0.22887896149E+01  0.11835681926E+02  0.13318753522E+02  0.51100000000E-03 0. -1.
        -11    1    4    4    0    0 -0.16289503956E+01 -0.65396373124E+01  0.50791550595E+01  0.84390847814E+01  0.51100000000E-03 0.  1.
        -12    1    4    4    0    0  0.19138285346E+02 -0.93077482685E+01  0.14987433172E+02  0.26029431359E+02  0.00000000000E+00 0.  1.
</event>
<event>
 8    1  0.4798632E-010  0.9118800E+02  0.7816164E-02  0.1184000E+00
        -11   -1    0    0    0    0  0.00000000000E+00  0.00000000000E+00  0.45593999997E+02  0.45594000000E+02  0.51100000000E-03 0. -1.
         11   -1    0    0    0    0 -0.00000000000E+00 -0.00000000000E+00 -0.45593999997E+02  0.45594000000E+02  0.51100000000E-03 0.  1.
         23    2    1    2    0    0  0.35527136788E-14  0.00000000000E+00 -0.35527136788E-14  0.91188000000E+02  0.91188000000E+02 0.  0.
    9900012    2    3    3    0    0  0.22418780806E+02 -0.21338640446E+02 -0.30425049535E+02  0.47787274798E+02  0.20000017113E+02 0.  0.
         12    1    3    3    0    0 -0.22418780806E+02  0.21338640446E+02  0.30425049535E+02  0.43400725202E+02  0.00000000000E+00 0. -1.
         11    1    4    4    0    0  0.17288613903E+02 -0.19143565071E+02 -0.25163848097E+02  0.36035975158E+02  0.51100000000E-03 0. -1.
        -11    1    4    4    0    0  0.22999684549E+01 -0.27250498834E+01 -0.73665983540E+01  0.81842851447E+01  0.51100000000E-03 0.  1.
         12    1    4    4    0    0  0.28301984474E+01  0.52997450819E+00  0.21053969160E+01  0.35670144946E+01  0.00000000000E+00 0. -1.
</event>
<event>
 8    1  0.4798632E-010  0.9118800E+02  0.7816164E-02  0.1184000E+00
        -11   -1    0    0    0    0  0.00000000000E+00  0.00000000000E+00  0.45593999997E+02  0.45594000000E+02  0.51100000000E-03 0. -1.
         11   -1    0    0    0    0 -0.00000000000E+00 -0.00000000000E+00 -0.45593999997E+02  0.45594000000E+02  0.51100000000E-03 0.  1.
         23    2    1    2    0    0  0.00000000000E+00  0.35527136788E-14  0.00000000000E+00  0.91188000000E+02  0.91188000000E+02 0.  0.
    9900012    2    3    3    0    0 -0.80965312182E+01 -0.23837234618E+02 -0.35353304941E+02  0.47787265649E+02  0.19999975398E+02 0.  0.
         12    1    3    3    0    0  0.80965312182E+01  0.23837234618E+02  0.35353304941E+02  0.43400734351E+02  0.00000000000E+00 0. -1.
         11    1    4    4    0    0  0.28036632874E+01 -0.13922665322E+02 -0.94487566444E+01  0.17058139989E+02  0.51100000000E-03 0. -1.
        -11    1    4    4    0    0 -0.14819061076E+01 -0.62431001188E+01 -0.97065405728E+01  0.11635689707E+02  0.51100000000E-03 0.  1.
         12    1    4    4    0    0 -0.94182883980E+01 -0.36714691773E+01 -0.16198007724E+02  0.19093435953E+02  0.00000000000E+00 0. -1.
</event>
<event>
 8    1  0.4798632E-010  0.9118800E+02  0.7816164E-02  0.1184000E+00
        -11   -1    0    0    0    0  0.00000000000E+00  0.00000000000E+00  0.45593999997E+02  0.45594000000E+02  0.51100000000E-03 0.  1.
         11   -1    0    0    0    0 -0.00000000000E+00 -0.00000000000E+00 -0.45593999997E+02  0.45594000000E+02  0.51100000000E-03 0. -1.
         23    2    1    2    0    0  0.00000000000E+00 -0.17763568394E-14 -0.35527136788E-14  0.91188000000E+02  0.91188000000E+02 0.  0.
    9900012    2    3    3    0    0 -0.36723507115E+02 -0.10958524614E+02 -0.20369542229E+02  0.47787268588E+02  0.19999988799E+02 0.  0.
         12    1    3    3    0    0  0.36723507115E+02  0.10958524614E+02  0.20369542229E+02  0.43400731412E+02  0.00000000000E+00 0. -1.
         11    1    4    4    0    0 -0.78316233136E+01 -0.88724719818E+01 -0.65038538753E-01  0.11834665735E+02  0.51100000000E-03 0. -1.
        -11    1    4    4    0    0 -0.15455655877E+02  0.18921081339E+01 -0.93156215762E+01  0.18144921532E+02  0.51100000000E-03 0.  1.
        -12    1    4    4    0    0 -0.13436227924E+02 -0.39781607658E+01 -0.10988882114E+02  0.17807681321E+02  0.00000000000E+00 0.  1.
</event>
<event>
 8    1  0.4798632E-010  0.9118800E+02  0.7816164E-02  0.1184000E+00
        -11   -1    0    0    0    0  0.00000000000E+00  0.00000000000E+00  0.45593999997E+02  0.45594000000E+02  0.51100000000E-03 0. -1.
         11   -1    0    0    0    0 -0.00000000000E+00 -0.00000000000E+00 -0.45593999997E+02  0.45594000000E+02  0.51100000000E-03 0.  1.
         23    2    1    2    0    0 -0.35527136788E-14  0.17763568394E-14  0.00000000000E+00  0.91188000000E+02  0.91188000000E+02 0.  0.
    9900012    2    3    3    0    0 -0.20904681129E+02  0.88567973383E+01 -0.36988845554E+02  0.47787271347E+02  0.20000001381E+02 0.  0.
         12    1    3    3    0    0  0.20904681129E+02 -0.88567973383E+01  0.36988845554E+02  0.43400728653E+02  0.00000000000E+00 0. -1.
         11    1    4    4    0    0 -0.61393317960E+01 -0.48179948416E+01 -0.79116795405E+01  0.11113016809E+02  0.51100000000E-03 0. -1.
        -11    1    4    4    0    0 -0.12409833998E+02  0.15045807119E+02 -0.26652963611E+02  0.33026667425E+02  0.51100000000E-03 0.  1.
        -12    1    4    4    0    0 -0.23555153352E+01 -0.13710149388E+01 -0.24242024021E+01  0.36475871125E+01  0.00000000000E+00 0.  1.
</event>
<event>
 8    1  0.4798632E-010  0.9118800E+02  0.7816164E-02  0.1184000E+00
        -11   -1    0    0    0    0  0.00000000000E+00  0.00000000000E+00  0.45593999997E+02  0.45594000000E+02  0.51100000000E-03 0.  1.
         11   -1    0    0    0    0 -0.00000000000E+00 -0.00000000000E+00 -0.45593999997E+02  0.45594000000E+02  0.51100000000E-03 0. -1.
         23    2    1    2    0    0  0.88817841970E-15  0.00000000000E+00  0.00000000000E+00  0.91188000000E+02  0.91188000000E+02 0.  0.
    9900012    2    3    3    0    0  0.46904835131E+01 -0.42715654380E+02 -0.60823773822E+01  0.47787273285E+02  0.20000010218E+02 0.  0.
         12    1    3    3    0    0 -0.46904835131E+01  0.42715654380E+02  0.60823773822E+01  0.43400726715E+02  0.00000000000E+00 0. -1.
         11    1    4    4    0    0 -0.48578022761E+01 -0.51871639499E+01  0.12366335998E+01  0.72134718214E+01  0.51100000000E-03 0. -1.
        -11    1    4    4    0    0  0.90983027588E+01 -0.16339856230E+02 -0.29211430404E+01  0.18928895679E+02  0.51100000000E-03 0.  1.
         12    1    4    4    0    0  0.44998303034E+00 -0.21188634200E+02 -0.43978679416E+01  0.21644905785E+02  0.00000000000E+00 0. -1.
</event>
<event>
 8    1  0.4798632E-010  0.9118800E+02  0.7816164E-02  0.1184000E+00
        -11   -1    0    0    0    0  0.00000000000E+00  0.00000000000E+00  0.45593999997E+02  0.45594000000E+02  0.51100000000E-03 0. -1.
         11   -1    0    0    0    0 -0.00000000000E+00 -0.00000000000E+00 -0.45593999997E+02  0.45594000000E+02  0.51100000000E-03 0.  1.
         23    2    1    2    0    0  0.00000000000E+00  0.71054273576E-14 -0.11102230246E-15  0.91188000000E+02  0.91188000000E+02 0.  0.
    9900012    2    3    3    0    0 -0.22127427617E+02 -0.37329379284E+02  0.71943367548E+00  0.47787271947E+02  0.20000004117E+02 0.  0.
         12    1    3    3    0    0  0.22127427617E+02  0.37329379284E+02 -0.71943367548E+00  0.43400728053E+02  0.00000000000E+00 0. -1.
         11    1    4    4    0    0 -0.27907458649E+00 -0.12678349329E+02  0.38001821599E+00  0.12687113085E+02  0.51100000000E-03 0. -1.
        -11    1    4    4    0    0 -0.20699713715E+02 -0.23408880011E+02 -0.29641929491E+01  0.31388536942E+02  0.51100000000E-03 0.  1.
         12    1    4    4    0    0 -0.11486393160E+01 -0.12421499438E+01  0.33036084086E+01  0.37116219202E+01  0.00000000000E+00 0. -1.
</event>
<event>
 8    1  0.4798632E-010  0.9118800E+02  0.7816164E-02  0.1184000E+00
        -11   -1    0    0    0    0  0.00000000000E+00  0.00000000000E+00  0.45593999997E+02  0.45594000000E+02  0.51100000000E-03 0. -1.
         11   -1    0    0    0    0 -0.00000000000E+00 -0.00000000000E+00 -0.45593999997E+02  0.45594000000E+02  0.51100000000E-03 0.  1.
         23    2    1    2    0    0  0.26645352591E-14  0.00000000000E+00  0.35527136788E-14  0.91188000000E+02  0.91188000000E+02 0.  0.
    9900012    2    3    3    0    0  0.58725351994E+01  0.35076801499E+02  0.24874779192E+02  0.47787270594E+02  0.19999997947E+02 0.  0.
        -12    1    3    3    0    0 -0.58725351994E+01 -0.35076801499E+02 -0.24874779192E+02  0.43400729406E+02  0.00000000000E+00 0.  1.
         11    1    4    4    0    0 -0.88388026091E+00  0.15593070437E+02  0.21035911656E+02  0.26199898272E+02  0.51100000000E-03 0. -1.
        -11    1    4    4    0    0  0.45769086984E+01  0.12844341953E+02  0.49609889501E+01  0.14509880257E+02  0.51100000000E-03 0.  1.
         12    1    4    4    0    0  0.21795067619E+01  0.66393891097E+01 -0.11221214144E+01  0.70774920660E+01  0.00000000000E+00 0. -1.
</event>
<event>
 8    1  0.4798632E-010  0.9118800E+02  0.7816164E-02  0.1184000E+00
        -11   -1    0    0    0    0  0.00000000000E+00  0.00000000000E+00  0.45593999997E+02  0.45594000000E+02  0.51100000000E-03 0. -1.
         11   -1    0    0    0    0 -0.00000000000E+00 -0.00000000000E+00 -0.45593999997E+02  0.45594000000E+02  0.51100000000E-03 0.  1.
         23    2    1    2    0    0  0.00000000000E+00  0.00000000000E+00  0.00000000000E+00  0.91188000000E+02  0.91188000000E+02 0.  0.
    9900012    2    3    3    0    0  0.10484539531E+02 -0.31172601616E+02 -0.28319022692E+02  0.47787266055E+02  0.19999977250E+02 0.  0.
         12    1    3    3    0    0 -0.10484539531E+02  0.31172601616E+02  0.28319022692E+02  0.43400733945E+02  0.00000000000E+00 0. -1.
         11    1    4    4    0    0  0.99867295782E+01 -0.12833406931E+02 -0.17448819256E+02  0.23851465255E+02  0.51100000000E-03 0. -1.
        -11    1    4    4    0    0  0.25133209811E+01 -0.17744123757E+02 -0.64591267598E+01  0.19049698922E+02  0.51100000000E-03 0.  1.
        -12    1    4    4    0    0 -0.20155110278E+01 -0.59507092860E+00 -0.44110766767E+01  0.48861018779E+01  0.00000000000E+00 0.  1.
</event>
<event>
 8    1  0.4798632E-010  0.9118800E+02  0.7816164E-02  0.1184000E+00
        -11   -1    0    0    0    0  0.00000000000E+00  0.00000000000E+00  0.45593999997E+02  0.45594000000E+02  0.51100000000E-03 0. -1.
         11   -1    0    0    0    0 -0.00000000000E+00 -0.00000000000E+00 -0.45593999997E+02  0.45594000000E+02  0.51100000000E-03 0.  1.
         23    2    1    2    0    0  0.17763568394E-14 -0.35527136788E-14 -0.71054273576E-14  0.91188000000E+02  0.91188000000E+02 0.  0.
    9900012    2    3    3    0    0 -0.15317869367E+02  0.20654739420E+02  0.34962379583E+02  0.47787269954E+02  0.19999995027E+02 0.  0.
        -12    1    3    3    0    0  0.15317869367E+02 -0.20654739420E+02 -0.34962379583E+02  0.43400730046E+02  0.00000000000E+00 0.  1.
         11    1    4    4    0    0 -0.85385859447E+01  0.18909037126E+02  0.21653414287E+02  0.29988822677E+02  0.51100000000E-03 0. -1.
        -11    1    4    4    0    0 -0.31403363883E+01 -0.25077749143E+01  0.80489000522E+00  0.40985968128E+01  0.51100000000E-03 0.  1.
        -12    1    4    4    0    0 -0.36389470336E+01  0.42534772077E+01  0.12504075291E+02  0.13699850464E+02  0.00000000000E+00 0.  1.
</event>
<event>
 8    1  0.4798632E-010  0.9118800E+02  0.7816164E-02  0.1184000E+00
        -11   -1    0    0    0    0  0.00000000000E+00  0.00000000000E+00  0.45593999997E+02  0.45594000000E+02  0.51100000000E-03 0. -1.
         11   -1    0    0    0    0 -0.00000000000E+00 -0.00000000000E+00 -0.45593999997E+02  0.45594000000E+02  0.51100000000E-03 0.  1.
         23    2    1    2    0    0 -0.35527136788E-14  0.00000000000E+00  0.35527136788E-14  0.91188000000E+02  0.91188000000E+02 0.  0.
    9900012    2    3    3    0    0 -0.24363597364E+02  0.26691185234E+02  0.24033708680E+02  0.47787269607E+02  0.19999993446E+02 0.  0.
        -12    1    3    3    0    0  0.24363597364E+02 -0.26691185234E+02 -0.24033708680E+02  0.43400730393E+02  0.00000000000E+00 0.  1.
         11    1    4    4    0    0 -0.17466011021E+02  0.17290508317E+02  0.24064657554E+02  0.34396670803E+02  0.51100000000E-03 0. -1.
        -11    1    4    4    0    0 -0.46752331340E+00  0.32685019433E+01  0.25117890660E+01  0.41485862141E+01  0.51100000000E-03 0.  1.
         12    1    4    4    0    0 -0.64300630299E+01  0.61321749740E+01 -0.25427379407E+01  0.92420125901E+01  0.00000000000E+00 0. -1.
</event>
<event>
 8    1  0.4798632E-010  0.9118800E+02  0.7816164E-02  0.1184000E+00
        -11   -1    0    0    0    0  0.00000000000E+00  0.00000000000E+00  0.45593999997E+02  0.45594000000E+02  0.51100000000E-03 0.  1.
         11   -1    0    0    0    0 -0.00000000000E+00 -0.00000000000E+00 -0.45593999997E+02  0.45594000000E+02  0.51100000000E-03 0. -1.
         23    2    1    2    0    0  0.00000000000E+00  0.00000000000E+00 -0.17763568394E-14  0.91188000000E+02  0.91188000000E+02 0.  0.
    9900012    2    3    3    0    0  0.28643823175E+02 -0.31048482628E+02 -0.99571193908E+01  0.47787296018E+02  0.20000113863E+02 0.  0.
         12    1    3    3    0    0 -0.28643823175E+02  0.31048482628E+02  0.99571193908E+01  0.43400703982E+02  0.00000000000E+00 0. -1.
         11    1    4    4    0    0  0.78640111772E+01 -0.47071979637E+01  0.27393209765E+01  0.95657861223E+01  0.51100000000E-03 0. -1.
        -11    1    4    4    0    0  0.19096791999E+02 -0.26784951010E+02 -0.89513912060E+01  0.34091765428E+02  0.51100000000E-03 0.  1.
        -12    1    4    4    0    0  0.16830199990E+01  0.44366634544E+00 -0.37450491614E+01  0.41297444672E+01  0.00000000000E+00 0.  1.
</event>
<event>
 8    1  0.4798632E-010  0.9118800E+02  0.7816164E-02  0.1184000E+00
        -11   -1    0    0    0    0  0.00000000000E+00  0.00000000000E+00  0.45593999997E+02  0.45594000000E+02  0.51100000000E-03 0. -1.
         11   -1    0    0    0    0 -0.00000000000E+00 -0.00000000000E+00 -0.45593999997E+02  0.45594000000E+02  0.51100000000E-03 0.  1.
         23    2    1    2    0    0  0.17763568394E-14  0.00000000000E+00  0.71054273576E-14  0.91188000000E+02  0.91188000000E+02 0.  0.
    9900012    2    3    3    0    0 -0.14965440796E+02  0.81674098745E+01 -0.39911807503E+02  0.47787269817E+02  0.19999994402E+02 0.  0.
         12    1    3    3    0    0  0.14965440796E+02 -0.81674098745E+01  0.39911807503E+02  0.43400730183E+02  0.00000000000E+00 0. -1.
         11    1    4    4    0    0 -0.89064423630E+01  0.96945269618E+01 -0.24240475240E+02  0.27584582808E+02  0.51100000000E-03 0. -1.
        -11    1    4    4    0    0 -0.97102295216E+00  0.30706219016E+01 -0.11999047470E+02  0.12423717031E+02  0.51100000000E-03 0.  1.
         12    1    4    4    0    0 -0.50879754806E+01 -0.45977389889E+01 -0.36722847935E+01  0.77789699772E+01  0.00000000000E+00 0. -1.
</event>
<event>
 8    1  0.4798632E-010  0.9118800E+02  0.7816164E-02  0.1184000E+00
        -11   -1    0    0    0    0  0.00000000000E+00  0.00000000000E+00  0.45593999997E+02  0.45594000000E+02  0.51100000000E-03 0. -1.
         11   -1    0    0    0    0 -0.00000000000E+00 -0.00000000000E+00 -0.45593999997E+02  0.45594000000E+02  0.51100000000E-03 0.  1.
         23    2    1    2    0    0  0.00000000000E+00  0.00000000000E+00  0.71054273576E-14  0.91188000000E+02  0.91188000000E+02 0.  0.
    9900012    2    3    3    0    0  0.30737489572E+02  0.66338469845E+01  0.29913592089E+02  0.47787260574E+02  0.19999952262E+02 0.  0.
        -12    1    3    3    0    0 -0.30737489572E+02 -0.66338469845E+01 -0.29913592089E+02  0.43400739426E+02  0.00000000000E+00 0.  1.
         11    1    4    4    0    0  0.25467875662E+02  0.10967947263E+02  0.21355533878E+02  0.34999534074E+02  0.51100000000E-03 0. -1.
        -11    1    4    4    0    0  0.37699237691E+01 -0.58276855675E+01  0.80150602051E+01  0.10602614520E+02  0.51100000000E-03 0.  1.
         12    1    4    4    0    0  0.14996901409E+01  0.14935852888E+01  0.54299800654E+00  0.21851119808E+01  0.00000000000E+00 0. -1.
</event>
<event>
 8    1  0.4798632E-010  0.9118800E+02  0.7816164E-02  0.1184000E+00
        -11   -1    0    0    0    0  0.00000000000E+00  0.00000000000E+00  0.45593999997E+02  0.45594000000E+02  0.51100000000E-03 0. -1.
         11   -1    0    0    0    0 -0.00000000000E+00 -0.00000000000E+00 -0.45593999997E+02  0.45594000000E+02  0.51100000000E-03 0.  1.
         23    2    1    2    0    0  0.17763568394E-14  0.00000000000E+00  0.00000000000E+00  0.91188000000E+02  0.91188000000E+02 0.  0.
    9900012    2    3    3    0    0 -0.13941661262E+02 -0.10115993523E+02  0.39836194728E+02  0.47787243623E+02  0.19999874973E+02 0.  0.
        -12    1    3    3    0    0  0.13941661262E+02  0.10115993523E+02 -0.39836194728E+02  0.43400756377E+02  0.00000000000E+00 0.  1.
         11    1    4    4    0    0  0.21454647654E+01 -0.12107668313E+01  0.10088491880E+01  0.26620954763E+01  0.51100000000E-03 0. -1.
        -11    1    4    4    0    0  0.16127694821E+01 -0.31368459948E+01  0.11732955662E+02  0.12251656093E+02  0.51100000000E-03 0.  1.
         12    1    4    4    0    0 -0.17699895509E+02 -0.57683806972E+01  0.27094389878E+02  0.32873492053E+02  0.00000000000E+00 0. -1.
</event>
<event>
 8    1  0.4798632E-010  0.9118800E+02  0.7816164E-02  0.1184000E+00
        -11   -1    0    0    0    0  0.00000000000E+00  0.00000000000E+00  0.45593999997E+02  0.45594000000E+02  0.51100000000E-03 0. -1.
         11   -1    0    0    0    0 -0.00000000000E+00 -0.00000000000E+00 -0.45593999997E+02  0.45594000000E+02  0.51100000000E-03 0.  1.
         23    2    1    2    0    0  0.00000000000E+00  0.00000000000E+00  0.00000000000E+00  0.91188000000E+02  0.91188000000E+02 0.  0.
    9900012    2    3    3    0    0 -0.26596269496E+02 -0.18930619837E+02 -0.28598838001E+02  0.47787268975E+02  0.19999990567E+02 0.  0.
         12    1    3    3    0    0  0.26596269496E+02  0.18930619837E+02  0.28598838001E+02  0.43400731025E+02  0.00000000000E+00 0. -1.
         11    1    4    4    0    0  0.15913075128E-01 -0.16073891923E+01 -0.49661032491E+00  0.16824313708E+01  0.51100000000E-03 0. -1.
        -11    1    4    4    0    0 -0.57171655413E+01 -0.35905632830E+00 -0.15227929408E+02  0.16269749155E+02  0.51100000000E-03 0.  1.
        -12    1    4    4    0    0 -0.20895017030E+02 -0.16964174316E+02 -0.12874298268E+02  0.29835088449E+02  0.00000000000E+00 0.  1.
</event>
<event>
 8    1  0.4798632E-010  0.9118800E+02  0.7816164E-02  0.1184000E+00
        -11   -1    0    0    0    0  0.00000000000E+00  0.00000000000E+00  0.45593999997E+02  0.45594000000E+02  0.51100000000E-03 0.  1.
         11   -1    0    0    0    0 -0.00000000000E+00 -0.00000000000E+00 -0.45593999997E+02  0.45594000000E+02  0.51100000000E-03 0. -1.
         23    2    1    2    0    0  0.71054273576E-14 -0.35527136788E-14  0.88817841970E-15  0.91188000000E+02  0.91188000000E+02 0.  0.
    9900012    2    3    3    0    0  0.38648233212E+02 -0.19612244211E+02 -0.23015545489E+01  0.47787271818E+02  0.20000003525E+02 0.  0.
         12    1    3    3    0    0 -0.38648233212E+02  0.19612244211E+02  0.23015545489E+01  0.43400728182E+02  0.00000000000E+00 0. -1.
         11    1    4    4    0    0  0.34757384195E+01 -0.34956290740E+01 -0.32249948238E+01  0.58907361220E+01  0.51100000000E-03 0. -1.
        -11    1    4    4    0    0  0.69962988643E+01 -0.94424587782E+01  0.47762723342E+01  0.12685464250E+02  0.51100000000E-03 0.  1.
        -12    1    4    4    0    0  0.28176195928E+02 -0.66741563590E+01 -0.38528320592E+01  0.29211071445E+02  0.00000000000E+00 0.  1.
</event>
<event>
 8    1  0.4798632E-010  0.9118800E+02  0.7816164E-02  0.1184000E+00
        -11   -1    0    0    0    0  0.00000000000E+00  0.00000000000E+00  0.45593999997E+02  0.45594000000E+02  0.51100000000E-03 0. -1.
         11   -1    0    0    0    0 -0.00000000000E+00 -0.00000000000E+00 -0.45593999997E+02  0.45594000000E+02  0.51100000000E-03 0.  1.
         23    2    1    2    0    0  0.00000000000E+00  0.00000000000E+00 -0.71054273576E-14  0.91188000000E+02  0.91188000000E+02 0.  0.
    9900012    2    3    3    0    0  0.12076743886E+02  0.72732421517E+01 -0.41047222921E+02  0.47787282220E+02  0.20000050954E+02 0.  0.
         12    1    3    3    0    0 -0.12076743886E+02 -0.72732421517E+01  0.41047222921E+02  0.43400717780E+02  0.00000000000E+00 0. -1.
         11    1    4    4    0    0  0.17819003916E+01  0.61812605667E+00  0.20834410075E+01  0.28103337027E+01  0.51100000000E-03 0. -1.
        -11    1    4    4    0    0  0.80182657266E+01  0.55004305969E+01 -0.38279651132E+02  0.39495303684E+02  0.51100000000E-03 0.  1.
        -12    1    4    4    0    0  0.22765777674E+01  0.11546854981E+01 -0.48510127967E+01  0.54816448338E+01  0.00000000000E+00 0.  1.
</event>
<event>
 8    1  0.4798632E-010  0.9118800E+02  0.7816164E-02  0.1184000E+00
        -11   -1    0    0    0    0  0.00000000000E+00  0.00000000000E+00  0.45593999997E+02  0.45594000000E+02  0.51100000000E-03 0. -1.
         11   -1    0    0    0    0 -0.00000000000E+00 -0.00000000000E+00 -0.45593999997E+02  0.45594000000E+02  0.51100000000E-03 0.  1.
         23    2    1    2    0    0  0.17763568394E-14  0.00000000000E+00  0.00000000000E+00  0.91188000000E+02  0.91188000000E+02 0.  0.
    9900012    2    3    3    0    0  0.15611107188E+02 -0.20904700318E+01  0.40441888260E+02  0.47787273524E+02  0.20000011304E+02 0.  0.
        -12    1    3    3    0    0 -0.15611107188E+02  0.20904700318E+01 -0.40441888260E+02  0.43400726476E+02  0.00000000000E+00 0.  1.
         11    1    4    4    0    0  0.29829934154E+01  0.30453145262E+00  0.95725199094E+01  0.10031157800E+02  0.51100000000E-03 0. -1.
        -11    1    4    4    0    0  0.11412551028E+02  0.58657492376E+01  0.14376471196E+02  0.19270087166E+02  0.51100000000E-03 0.  1.
        -12    1    4    4    0    0  0.12155627448E+01 -0.82607507221E+01  0.16492897155E+02  0.18486028558E+02  0.00000000000E+00 0.  1.
</event>
<event>
 8    1  0.4798632E-010  0.9118800E+02  0.7816164E-02  0.1184000E+00
        -11   -1    0    0    0    0  0.00000000000E+00  0.00000000000E+00  0.45593999997E+02  0.45594000000E+02  0.51100000000E-03 0. -1.
         11   -1    0    0    0    0 -0.00000000000E+00 -0.00000000000E+00 -0.45593999997E+02  0.45594000000E+02  0.51100000000E-03 0.  1.
         23    2    1    2    0    0  0.71054273576E-14  0.17763568394E-14  0.35527136788E-14  0.91188000000E+02  0.91188000000E+02 0.  0.
    9900012    2    3    3    0    0 -0.32374245800E+02 -0.95339926662E+01 -0.27287992240E+02  0.47787270424E+02  0.19999997171E+02 0.  0.
         12    1    3    3    0    0  0.32374245800E+02  0.95339926662E+01  0.27287992240E+02  0.43400729576E+02  0.00000000000E+00 0. -1.
         11    1    4    4    0    0 -0.59708387880E+01 -0.46750804809E+01 -0.61016992760E+01  0.97333461693E+01  0.51100000000E-03 0. -1.
        -11    1    4    4    0    0 -0.61415269021E+01 -0.80277800459E+01 -0.11690056721E+02  0.15453835497E+02  0.51100000000E-03 0.  1.
        -12    1    4    4    0    0 -0.20261880110E+02  0.31688678606E+01 -0.94962362427E+01  0.22600088758E+02  0.00000000000E+00 0.  1.
</event>
<event>
 8    1  0.4798632E-010  0.9118800E+02  0.7816164E-02  0.1184000E+00
        -11   -1    0    0    0    0  0.00000000000E+00  0.00000000000E+00  0.45593999997E+02  0.45594000000E+02  0.51100000000E-03 0. -1.
         11   -1    0    0    0    0 -0.00000000000E+00 -0.00000000000E+00 -0.45593999997E+02  0.45594000000E+02  0.51100000000E-03 0.  1.
         23    2    1    2    0    0 -0.71054273576E-14 -0.44408920985E-15  0.00000000000E+00  0.91188000000E+02  0.91188000000E+02 0.  0.
    9900012    2    3    3    0    0  0.34383097305E+02 -0.20572845351E+01  0.26404421807E+02  0.47787270848E+02  0.19999999106E+02 0.  0.
        -12    1    3    3    0    0 -0.34383097305E+02  0.20572845351E+01 -0.26404421807E+02  0.43400729152E+02  0.00000000000E+00 0.  1.
         11    1    4    4    0    0  0.91212747393E+01  0.36478406432E+01  0.15913333079E+02  0.18701298462E+02  0.51100000000E-03 0. -1.
        -11    1    4    4    0    0  0.20216958074E+02 -0.61249230042E+01  0.51830073661E+01  0.21750945754E+02  0.51100000000E-03 0.  1.
         12    1    4    4    0    0  0.50448644918E+01  0.41979782585E+00  0.53080813613E+01  0.73350266321E+01  0.00000000000E+00 0. -1.
</event>
<event>
 8    1  0.4798632E-010  0.9118800E+02  0.7816164E-02  0.1184000E+00
        -11   -1    0    0    0    0  0.00000000000E+00  0.00000000000E+00  0.45593999997E+02  0.45594000000E+02  0.51100000000E-03 0. -1.
         11   -1    0    0    0    0 -0.00000000000E+00 -0.00000000000E+00 -0.45593999997E+02  0.45594000000E+02  0.51100000000E-03 0.  1.
         23    2    1    2    0    0 -0.35527136788E-14  0.00000000000E+00  0.00000000000E+00  0.91188000000E+02  0.91188000000E+02 0.  0.
    9900012    2    3    3    0    0  0.30107048643E+02  0.23054898626E+02 -0.21110681836E+02  0.47787267101E+02  0.19999982018E+02 0.  0.
         12    1    3    3    0    0 -0.30107048643E+02 -0.23054898626E+02  0.21110681836E+02  0.43400732899E+02  0.00000000000E+00 0. -1.
         11    1    4    4    0    0  0.31748699367E+01  0.12208503545E+02 -0.70204716061E+01  0.14436563987E+02  0.51100000000E-03 0. -1.
        -11    1    4    4    0    0  0.23841285694E+02  0.92887583528E+01 -0.88570227249E+01  0.27076461865E+02  0.51100000000E-03 0.  1.
        -12    1    4    4    0    0  0.30908930117E+01  0.15576367282E+01 -0.52331875052E+01  0.62742412491E+01  0.00000000000E+00 0.  1.
</event>
<event>
 8    1  0.4798632E-010  0.9118800E+02  0.7816164E-02  0.1184000E+00
        -11   -1    0    0    0    0  0.00000000000E+00  0.00000000000E+00  0.45593999997E+02  0.45594000000E+02  0.51100000000E-03 0.  1.
         11   -1    0    0    0    0 -0.00000000000E+00 -0.00000000000E+00 -0.45593999997E+02  0.45594000000E+02  0.51100000000E-03 0. -1.
         23    2    1    2    0    0 -0.71054273576E-14 -0.88817841970E-15  0.00000000000E+00  0.91188000000E+02  0.91188000000E+02 0.  0.
    9900012    2    3    3    0    0  0.36884311410E+02  0.71273139109E+01 -0.21734126402E+02  0.47787270948E+02  0.19999999562E+02 0.  0.
         12    1    3    3    0    0 -0.36884311410E+02 -0.71273139109E+01  0.21734126402E+02  0.43400729052E+02  0.00000000000E+00 0. -1.
         11    1    4    4    0    0  0.13729292995E+02  0.77713969349E+00 -0.13603169645E+02  0.19342793410E+02  0.51100000000E-03 0. -1.
        -11    1    4    4    0    0  0.83791497210E+01  0.35594177083E+01  0.31638280286E+01  0.96379153620E+01  0.51100000000E-03 0.  1.
        -12    1    4    4    0    0  0.14775868694E+02  0.27907565092E+01 -0.11294784785E+02  0.18806562177E+02  0.00000000000E+00 0.  1.
</event>
<event>
 8    1  0.4798632E-010  0.9118800E+02  0.7816164E-02  0.1184000E+00
        -11   -1    0    0    0    0  0.00000000000E+00  0.00000000000E+00  0.45593999997E+02  0.45594000000E+02  0.51100000000E-03 0. -1.
         11   -1    0    0    0    0 -0.00000000000E+00 -0.00000000000E+00 -0.45593999997E+02  0.45594000000E+02  0.51100000000E-03 0.  1.
         23    2    1    2    0    0  0.35527136788E-14  0.00000000000E+00  0.71054273576E-14  0.91188000000E+02  0.91188000000E+02 0.  0.
    9900012    2    3    3    0    0  0.23739994113E+02  0.10480969942E+02  0.34787717901E+02  0.47787269958E+02  0.19999995046E+02 0.  0.
        -12    1    3    3    0    0 -0.23739994113E+02 -0.10480969942E+02 -0.34787717901E+02  0.43400730042E+02  0.00000000000E+00 0.  1.
         11    1    4    4    0    0  0.13814038500E+02 -0.29135371965E+01  0.21647165260E+02  0.25844073261E+02  0.51100000000E-03 0. -1.
        -11    1    4    4    0    0  0.39100297237E+01  0.80161103788E+01  0.96814111701E+01  0.13163437262E+02  0.51100000000E-03 0.  1.
         12    1    4    4    0    0  0.60159258897E+01  0.53783967597E+01  0.34591414714E+01  0.87797594349E+01  0.00000000000E+00 0. -1.
</event>
<event>
 8    1  0.4798632E-010  0.9118800E+02  0.7816164E-02  0.1184000E+00
        -11   -1    0    0    0    0  0.00000000000E+00  0.00000000000E+00  0.45593999997E+02  0.45594000000E+02  0.51100000000E-03 0. -1.
         11   -1    0    0    0    0 -0.00000000000E+00 -0.00000000000E+00 -0.45593999997E+02  0.45594000000E+02  0.51100000000E-03 0.  1.
         23    2    1    2    0    0  0.00000000000E+00  0.00000000000E+00  0.00000000000E+00  0.91188000000E+02  0.91188000000E+02 0.  0.
    9900012    2    3    3    0    0  0.33360200271E+02  0.85291257568E+01  0.26419200122E+02  0.47787273239E+02  0.20000010005E+02 0.  0.
        -12    1    3    3    0    0 -0.33360200271E+02 -0.85291257568E+01 -0.26419200122E+02  0.43400726761E+02  0.00000000000E+00 0.  1.
         11    1    4    4    0    0  0.69713355665E+01  0.10247454143E+02  0.54076693093E+01  0.13522304671E+02  0.51100000000E-03 0. -1.
        -11    1    4    4    0    0  0.19394700069E+02 -0.55963086428E+00  0.18310125941E+02  0.26678236256E+02  0.51100000000E-03 0.  1.
        -12    1    4    4    0    0  0.69941646355E+01 -0.11586975220E+01  0.27014048718E+01  0.75867323123E+01  0.00000000000E+00 0.  1.
</event>
<event>
 8    1  0.4798632E-010  0.9118800E+02  0.7816164E-02  0.1184000E+00
        -11   -1    0    0    0    0  0.00000000000E+00  0.00000000000E+00  0.45593999997E+02  0.45594000000E+02  0.51100000000E-03 0.  1.
         11   -1    0    0    0    0 -0.00000000000E+00 -0.00000000000E+00 -0.45593999997E+02  0.45594000000E+02  0.51100000000E-03 0. -1.
         23    2    1    2    0    0  0.00000000000E+00  0.00000000000E+00  0.00000000000E+00  0.91188000000E+02  0.91188000000E+02 0.  0.
    9900012    2    3    3    0    0 -0.21950169042E+02  0.36882940617E+02  0.64390640965E+01  0.47787276781E+02  0.20000026155E+02 0.  0.
        -12    1    3    3    0    0  0.21950169042E+02 -0.36882940617E+02 -0.64390640965E+01  0.43400723219E+02  0.00000000000E+00 0.  1.
         11    1    4    4    0    0 -0.47755265248E+01  0.26391945334E+01 -0.38792797223E+01  0.66947601002E+01  0.51100000000E-03 0. -1.
        -11    1    4    4    0    0 -0.78075302335E+01  0.24398814780E+02  0.33956277071E+01  0.25841632665E+02  0.51100000000E-03 0.  1.
        -12    1    4    4    0    0 -0.93671122834E+01  0.98449313036E+01  0.69227161116E+01  0.15250884016E+02  0.00000000000E+00 0.  1.
</event>
<event>
 8    1  0.4798632E-010  0.9118800E+02  0.7816164E-02  0.1184000E+00
        -11   -1    0    0    0    0  0.00000000000E+00  0.00000000000E+00  0.45593999997E+02  0.45594000000E+02  0.51100000000E-03 0. -1.
         11   -1    0    0    0    0 -0.00000000000E+00 -0.00000000000E+00 -0.45593999997E+02  0.45594000000E+02  0.51100000000E-03 0.  1.
         23    2    1    2    0    0  0.88817841970E-15  0.35527136788E-14  0.00000000000E+00  0.91188000000E+02  0.91188000000E+02 0.  0.
    9900012    2    3    3    0    0  0.66316501472E+01 -0.28251161962E+02  0.32272536731E+02  0.47787267714E+02  0.19999984816E+02 0.  0.
        -12    1    3    3    0    0 -0.66316501472E+01  0.28251161962E+02 -0.32272536731E+02  0.43400732286E+02  0.00000000000E+00 0.  1.
         11    1    4    4    0    0  0.50615255906E+01 -0.19113562034E+02  0.97797938116E+01  0.22058822775E+02  0.51100000000E-03 0. -1.
        -11    1    4    4    0    0 -0.13577317361E+01 -0.94378631610E+01  0.17672293476E+02  0.20080504314E+02  0.51100000000E-03 0.  1.
        -12    1    4    4    0    0  0.29278562928E+01  0.30026323346E+00  0.48204494432E+01  0.56479406260E+01  0.00000000000E+00 0.  1.
</event>
<event>
 8    1  0.4798632E-010  0.9118800E+02  0.7816164E-02  0.1184000E+00
        -11   -1    0    0    0    0  0.00000000000E+00  0.00000000000E+00  0.45593999997E+02  0.45594000000E+02  0.51100000000E-03 0. -1.
         11   -1    0    0    0    0 -0.00000000000E+00 -0.00000000000E+00 -0.45593999997E+02  0.45594000000E+02  0.51100000000E-03 0.  1.
         23    2    1    2    0    0 -0.35527136788E-14 -0.71054273576E-14 -0.17763568394E-14  0.91188000000E+02  0.91188000000E+02 0.  0.
    9900012    2    3    3    0    0 -0.18279066069E+02 -0.37155638622E+02 -0.12998471208E+02  0.47787239736E+02  0.19999857251E+02 0.  0.
         12    1    3    3    0    0  0.18279066069E+02  0.37155638622E+02  0.12998471208E+02  0.43400760264E+02  0.00000000000E+00 0. -1.
         11    1    4    4    0    0  0.27535488736E+00 -0.58409175130E+01  0.28162470211E+01  0.64902530962E+01  0.51100000000E-03 0. -1.
        -11    1    4    4    0    0 -0.15522010627E+02 -0.17734924160E+02 -0.61559001902E+01  0.24358888650E+02  0.51100000000E-03 0.  1.
        -12    1    4    4    0    0 -0.30324103290E+01 -0.13579796949E+02 -0.96588180388E+01  0.16938097989E+02  0.00000000000E+00 0.  1.
</event>
<event>
 8    1  0.4798632E-010  0.9118800E+02  0.7816164E-02  0.1184000E+00
        -11   -1    0    0    0    0  0.00000000000E+00  0.00000000000E+00  0.45593999997E+02  0.45594000000E+02  0.51100000000E-03 0. -1.
         11   -1    0    0    0    0 -0.00000000000E+00 -0.00000000000E+00 -0.45593999997E+02  0.45594000000E+02  0.51100000000E-03 0.  1.
         23    2    1    2    0    0  0.00000000000E+00  0.00000000000E+00  0.00000000000E+00  0.91188000000E+02  0.91188000000E+02 0.  0.
    9900012    2    3    3    0    0  0.97508568011E+01 -0.32087207082E+02 -0.27549134881E+02  0.47787275359E+02  0.20000019673E+02 0.  0.
         12    1    3    3    0    0 -0.97508568011E+01  0.32087207082E+02  0.27549134881E+02  0.43400724641E+02  0.00000000000E+00 0. -1.
         11    1    4    4    0    0  0.15802348525E+01 -0.91870749059E+01 -0.18308320409E+02  0.20544928425E+02  0.51100000000E-03 0. -1.
        -11    1    4    4    0    0  0.70376927791E+01 -0.78855100354E+01 -0.39008207268E+01  0.11266179067E+02  0.51100000000E-03 0.  1.
         12    1    4    4    0    0  0.11329291696E+01 -0.15014622141E+02 -0.53399937448E+01  0.15976167867E+02  0.00000000000E+00 0. -1.
</event>
<event>
 8    1  0.4798632E-010  0.9118800E+02  0.7816164E-02  0.1184000E+00
        -11   -1    0    0    0    0  0.00000000000E+00  0.00000000000E+00  0.45593999997E+02  0.45594000000E+02  0.51100000000E-03 0. -1.
         11   -1    0    0    0    0 -0.00000000000E+00 -0.00000000000E+00 -0.45593999997E+02  0.45594000000E+02  0.51100000000E-03 0.  1.
         23    2    1    2    0    0  0.27755575616E-15  0.27755575616E-15  0.00000000000E+00  0.91188000000E+02  0.91188000000E+02 0.  0.
    9900012    2    3    3    0    0  0.40334729759E+00 -0.42337991644E+00 -0.43396788256E+02  0.47787272235E+02  0.20000005429E+02 0.  0.
         12    1    3    3    0    0 -0.40334729759E+00  0.42337991644E+00  0.43396788256E+02  0.43400727765E+02  0.00000000000E+00 0. -1.
         11    1    4    4    0    0  0.36448787504E+01 -0.49765529974E+01 -0.19158071070E+02  0.20126671564E+02  0.51100000000E-03 0. -1.
        -11    1    4    4    0    0 -0.33828681052E+01  0.57693835717E+01 -0.25219863618E+02  0.26091590687E+02  0.51100000000E-03 0.  1.
        -12    1    4    4    0    0  0.14133665239E+00 -0.12162104907E+01  0.98114643276E+00  0.15690099839E+01  0.00000000000E+00 0.  1.
</event>
<event>
 8    1  0.4798632E-010  0.9118800E+02  0.7816164E-02  0.1184000E+00
        -11   -1    0    0    0    0  0.00000000000E+00  0.00000000000E+00  0.45593999997E+02  0.45594000000E+02  0.51100000000E-03 0. -1.
         11   -1    0    0    0    0 -0.00000000000E+00 -0.00000000000E+00 -0.45593999997E+02  0.45594000000E+02  0.51100000000E-03 0.  1.
         23    2    1    2    0    0  0.35527136788E-14  0.00000000000E+00  0.35527136788E-14  0.91188000000E+02  0.91188000000E+02 0.  0.
    9900012    2    3    3    0    0  0.16258196598E+02 -0.30316853366E+02  0.26460966701E+02  0.47787270589E+02  0.19999997924E+02 0.  0.
        -12    1    3    3    0    0 -0.16258196598E+02  0.30316853366E+02 -0.26460966701E+02  0.43400729411E+02  0.00000000000E+00 0.  1.
         11    1    4    4    0    0 -0.11073441212E+01 -0.16714778689E+02  0.91534823857E+01  0.19089166500E+02  0.51100000000E-03 0. -1.
        -11    1    4    4    0    0  0.88384043689E+01 -0.87072149784E+01  0.12979519557E+02  0.17955525965E+02  0.51100000000E-03 0.  1.
         12    1    4    4    0    0  0.85271363507E+01 -0.48948596992E+01  0.43279647580E+01  0.10742578125E+02  0.00000000000E+00 0. -1.
</event>
<event>
 8    1  0.4798632E-010  0.9118800E+02  0.7816164E-02  0.1184000E+00
        -11   -1    0    0    0    0  0.00000000000E+00  0.00000000000E+00  0.45593999997E+02  0.45594000000E+02  0.51100000000E-03 0.  1.
         11   -1    0    0    0    0 -0.00000000000E+00 -0.00000000000E+00 -0.45593999997E+02  0.45594000000E+02  0.51100000000E-03 0. -1.
         23    2    1    2    0    0  0.00000000000E+00  0.00000000000E+00  0.00000000000E+00  0.91188000000E+02  0.91188000000E+02 0.  0.
    9900012    2    3    3    0    0 -0.37093930515E+02 -0.23204752596E+01 -0.22411584375E+02  0.47787269584E+02  0.19999993340E+02 0.  0.
         12    1    3    3    0    0  0.37093930515E+02  0.23204752596E+01  0.22411584375E+02  0.43400730416E+02  0.00000000000E+00 0. -1.
         11    1    4    4    0    0 -0.26646205678E+01  0.28299881420E+01 -0.39303640843E+01  0.55278203435E+01  0.51100000000E-03 0. -1.
        -11    1    4    4    0    0 -0.29978748575E+02 -0.38943666074E+01 -0.21173776745E+02  0.36908268441E+02  0.51100000000E-03 0.  1.
        -12    1    4    4    0    0 -0.44505613718E+01 -0.12560967942E+01  0.26925564549E+01  0.53511807990E+01  0.00000000000E+00 0.  1.
</event>
<event>
 8    1  0.4798632E-010  0.9118800E+02  0.7816164E-02  0.1184000E+00
        -11   -1    0    0    0    0  0.00000000000E+00  0.00000000000E+00  0.45593999997E+02  0.45594000000E+02  0.51100000000E-03 0. -1.
         11   -1    0    0    0    0 -0.00000000000E+00 -0.00000000000E+00 -0.45593999997E+02  0.45594000000E+02  0.51100000000E-03 0.  1.
         23    2    1    2    0    0  0.44408920985E-15 -0.17763568394E-14 -0.71054273576E-14  0.91188000000E+02  0.91188000000E+02 0.  0.
    9900012    2    3    3    0    0  0.34751509039E+01 -0.13927786209E+02 -0.40958075883E+02  0.47787264032E+02  0.19999968030E+02 0.  0.
         12    1    3    3    0    0 -0.34751509039E+01  0.13927786209E+02  0.40958075883E+02  0.43400735968E+02  0.00000000000E+00 0. -1.
         11    1    4    4    0    0  0.10121849799E+01 -0.24322748821E+01 -0.21274933817E+01  0.33862527795E+01  0.51100000000E-03 0. -1.
        -11    1    4    4    0    0  0.77047389207E+01 -0.12041820361E+02 -0.18395420928E+02  0.23297209078E+02  0.51100000000E-03 0.  1.
        -12    1    4    4    0    0 -0.52417729968E+01  0.54630903452E+00 -0.20435161574E+02  0.21103802175E+02  0.00000000000E+00 0.  1.
</event>
<event>
 8    1  0.4798632E-010  0.9118800E+02  0.7816164E-02  0.1184000E+00
        -11   -1    0    0    0    0  0.00000000000E+00  0.00000000000E+00  0.45593999997E+02  0.45594000000E+02  0.51100000000E-03 0. -1.
         11   -1    0    0    0    0 -0.00000000000E+00 -0.00000000000E+00 -0.45593999997E+02  0.45594000000E+02  0.51100000000E-03 0.  1.
         23    2    1    2    0    0  0.00000000000E+00 -0.88817841970E-15  0.71054273576E-14  0.91188000000E+02  0.91188000000E+02 0.  0.
    9900012    2    3    3    0    0  0.17611663401E+02 -0.40120586488E+01  0.39463349863E+02  0.47787270919E+02  0.19999999428E+02 0.  0.
        -12    1    3    3    0    0 -0.17611663401E+02  0.40120586488E+01 -0.39463349863E+02  0.43400729081E+02  0.00000000000E+00 0.  1.
         11    1    4    4    0    0  0.11235243794E+02 -0.42871065613E+01  0.11457901333E+02  0.16610041812E+02  0.51100000000E-03 0. -1.
        -11    1    4    4    0    0  0.41073535085E+01  0.63983241611E+00  0.28520646700E+02  0.28821988599E+02  0.51100000000E-03 0.  1.
        -12    1    4    4    0    0  0.22690660989E+01 -0.36478450365E+00 -0.51519816994E+00  0.23552405078E+01  0.00000000000E+00 0.  1.
</event>
<event>
 8    1  0.4798632E-010  0.9118800E+02  0.7816164E-02  0.1184000E+00
        -11   -1    0    0    0    0  0.00000000000E+00  0.00000000000E+00  0.45593999997E+02  0.45594000000E+02  0.51100000000E-03 0. -1.
         11   -1    0    0    0    0 -0.00000000000E+00 -0.00000000000E+00 -0.45593999997E+02  0.45594000000E+02  0.51100000000E-03 0.  1.
         23    2    1    2    0    0  0.00000000000E+00  0.00000000000E+00  0.00000000000E+00  0.91188000000E+02  0.91188000000E+02 0.  0.
    9900012    2    3    3    0    0  0.27476328515E+02 -0.18604959497E+02 -0.27973738806E+02  0.47787271788E+02  0.20000003388E+02 0.  0.
         12    1    3    3    0    0 -0.27476328515E+02  0.18604959497E+02  0.27973738806E+02  0.43400728212E+02  0.00000000000E+00 0. -1.
         11    1    4    4    0    0  0.13390004084E+02 -0.10911155821E+02 -0.22575442148E+02  0.28425272543E+02  0.51100000000E-03 0. -1.
        -11    1    4    4    0    0  0.85897264660E+01 -0.64474835806E+01  0.10573704575E+01  0.10792195227E+02  0.51100000000E-03 0.  1.
         12    1    4    4    0    0  0.54965979657E+01 -0.12463200950E+01 -0.64556671156E+01  0.85698040166E+01  0.00000000000E+00 0. -1.
</event>
<event>
 8    1  0.4798632E-010  0.9118800E+02  0.7816164E-02  0.1184000E+00
        -11   -1    0    0    0    0  0.00000000000E+00  0.00000000000E+00  0.45593999997E+02  0.45594000000E+02  0.51100000000E-03 0. -1.
         11   -1    0    0    0    0 -0.00000000000E+00 -0.00000000000E+00 -0.45593999997E+02  0.45594000000E+02  0.51100000000E-03 0.  1.
         23    2    1    2    0    0  0.00000000000E+00  0.00000000000E+00  0.00000000000E+00  0.91188000000E+02  0.91188000000E+02 0.  0.
    9900012    2    3    3    0    0  0.14552209608E+02  0.46667953052E+01 -0.40621081084E+02  0.47787331672E+02  0.20000276422E+02 0.  0.
         12    1    3    3    0    0 -0.14552209608E+02 -0.46667953052E+01  0.40621081084E+02  0.43400668328E+02  0.00000000000E+00 0. -1.
         11    1    4    4    0    0  0.97331423423E+01  0.42786878855E+00 -0.74538562112E+01  0.12266910949E+02  0.51100000000E-03 0. -1.
        -11    1    4    4    0    0  0.52190975183E+01  0.53629143642E+01 -0.33464410890E+02  0.34290911709E+02  0.51100000000E-03 0.  1.
        -12    1    4    4    0    0 -0.40003025275E+00 -0.11239878475E+01  0.29718601696E+00  0.12295090130E+01  0.00000000000E+00 0.  1.
</event>
<event>
 8    1  0.4798632E-010  0.9118800E+02  0.7816164E-02  0.1184000E+00
        -11   -1    0    0    0    0  0.00000000000E+00  0.00000000000E+00  0.45593999997E+02  0.45594000000E+02  0.51100000000E-03 0. -1.
         11   -1    0    0    0    0 -0.00000000000E+00 -0.00000000000E+00 -0.45593999997E+02  0.45594000000E+02  0.51100000000E-03 0.  1.
         23    2    1    2    0    0  0.00000000000E+00  0.00000000000E+00  0.17763568394E-14  0.91188000000E+02  0.91188000000E+02 0.  0.
    9900012    2    3    3    0    0 -0.11138396397E+02 -0.39518979783E+02  0.14064491989E+02  0.47787267607E+02  0.19999984326E+02 0.  0.
        -12    1    3    3    0    0  0.11138396397E+02  0.39518979783E+02 -0.14064491989E+02  0.43400732393E+02  0.00000000000E+00 0.  1.
         11    1    4    4    0    0 -0.44906817188E+01 -0.10438131174E+02 -0.43995315530E+01  0.12185100855E+02  0.51100000000E-03 0.  1.
        -11    1    4    4    0    0 -0.36324703353E+01 -0.10337881887E+02  0.99326026301E+01  0.14789294706E+02  0.51100000000E-03 0. -1.
        -12    1    4    4    0    0 -0.30152443426E+01 -0.18742966722E+02  0.85314209123E+01  0.20812872045E+02  0.00000000000E+00 0.  1.
</event>
<event>
 8    1  0.4798632E-010  0.9118800E+02  0.7816164E-02  0.1184000E+00
        -11   -1    0    0    0    0  0.00000000000E+00  0.00000000000E+00  0.45593999997E+02  0.45594000000E+02  0.51100000000E-03 0. -1.
         11   -1    0    0    0    0 -0.00000000000E+00 -0.00000000000E+00 -0.45593999997E+02  0.45594000000E+02  0.51100000000E-03 0.  1.
         23    2    1    2    0    0  0.35527136788E-14  0.00000000000E+00  0.00000000000E+00  0.91188000000E+02  0.91188000000E+02 0.  0.
    9900012    2    3    3    0    0  0.30082102215E+02  0.20058504280E+02  0.24007222265E+02  0.47787272028E+02  0.20000004485E+02 0.  0.
        -12    1    3    3    0    0 -0.30082102215E+02 -0.20058504280E+02 -0.24007222265E+02  0.43400727972E+02  0.00000000000E+00 0.  1.
         11    1    4    4    0    0  0.14048733066E+02  0.16096766367E+02  0.68360431338E+01  0.22432215098E+02  0.51100000000E-03 0. -1.
        -11    1    4    4    0    0  0.39116842480E+01  0.25394887234E+01  0.10399797751E+02  0.11397634410E+02  0.51100000000E-03 0.  1.
         12    1    4    4    0    0  0.12121684901E+02  0.14222491897E+01  0.67713813804E+01  0.13957422520E+02  0.00000000000E+00 0. -1.
</event>
<event>
 8    1  0.4798632E-010  0.9118800E+02  0.7816164E-02  0.1184000E+00
        -11   -1    0    0    0    0  0.00000000000E+00  0.00000000000E+00  0.45593999997E+02  0.45594000000E+02  0.51100000000E-03 0. -1.
         11   -1    0    0    0    0 -0.00000000000E+00 -0.00000000000E+00 -0.45593999997E+02  0.45594000000E+02  0.51100000000E-03 0.  1.
         23    2    1    2    0    0  0.00000000000E+00  0.11102230246E-15  0.00000000000E+00  0.91188000000E+02  0.91188000000E+02 0.  0.
    9900012    2    3    3    0    0  0.27374928294E+02 -0.85591170348E+00  0.33667551304E+02  0.47787270803E+02  0.19999998901E+02 0.  0.
        -12    1    3    3    0    0 -0.27374928294E+02  0.85591170348E+00 -0.33667551304E+02  0.43400729197E+02  0.00000000000E+00 0.  1.
         11    1    4    4    0    0  0.11370050257E+02  0.34061433715E+01  0.34629878767E+01  0.12364147395E+02  0.51100000000E-03 0. -1.
        -11    1    4    4    0    0  0.98322244658E+01 -0.63912144355E+01  0.22070053252E+02  0.24992148982E+02  0.51100000000E-03 0.  1.
        -12    1    4    4    0    0  0.61726535721E+01  0.21291593606E+01  0.81345101756E+01  0.10430974427E+02  0.00000000000E+00 0.  1.
</event>
<event>
 8    1  0.4798632E-010  0.9118800E+02  0.7816164E-02  0.1184000E+00
        -11   -1    0    0    0    0  0.00000000000E+00  0.00000000000E+00  0.45593999997E+02  0.45594000000E+02  0.51100000000E-03 0. -1.
         11   -1    0    0    0    0 -0.00000000000E+00 -0.00000000000E+00 -0.45593999997E+02  0.45594000000E+02  0.51100000000E-03 0.  1.
         23    2    1    2    0    0  0.35527136788E-14 -0.44408920985E-15  0.00000000000E+00  0.91188000000E+02  0.91188000000E+02 0.  0.
    9900012    2    3    3    0    0  0.23219995031E+02  0.38775649806E+01  0.36461202475E+02  0.47787274599E+02  0.20000016206E+02 0.  0.
        -12    1    3    3    0    0 -0.23219995031E+02 -0.38775649806E+01 -0.36461202475E+02  0.43400725401E+02  0.00000000000E+00 0.  1.
         11    1    4    4    0    0  0.46124663428E+01  0.33925909093E+01  0.41323863319E+01  0.70612418100E+01  0.51100000000E-03 0. -1.
        -11    1    4    4    0    0  0.76084001399E+00  0.48985617500E+01  0.21830918374E+01  0.54167033311E+01  0.51100000000E-03 0.  1.
         12    1    4    4    0    0  0.17846688674E+02 -0.44135876787E+01  0.30145724306E+02  0.35309329458E+02  0.00000000000E+00 0. -1.
</event>
<event>
 8    1  0.4798632E-010  0.9118800E+02  0.7816164E-02  0.1184000E+00
        -11   -1    0    0    0    0  0.00000000000E+00  0.00000000000E+00  0.45593999997E+02  0.45594000000E+02  0.51100000000E-03 0. -1.
         11   -1    0    0    0    0 -0.00000000000E+00 -0.00000000000E+00 -0.45593999997E+02  0.45594000000E+02  0.51100000000E-03 0.  1.
         23    2    1    2    0    0  0.00000000000E+00  0.00000000000E+00 -0.71054273576E-14  0.91188000000E+02  0.91188000000E+02 0.  0.
    9900012    2    3    3    0    0  0.21585208829E+02  0.16921836804E+02 -0.33635602796E+02  0.47787267559E+02  0.19999984108E+02 0.  0.
         12    1    3    3    0    0 -0.21585208829E+02 -0.16921836804E+02  0.33635602796E+02  0.43400732441E+02  0.00000000000E+00 0. -1.
         11    1    4    4    0    0  0.33264014230E+00  0.71942757461E+01 -0.74983778150E+01  0.10396822740E+02  0.51100000000E-03 0. -1.
        -11    1    4    4    0    0  0.57841482451E+01  0.95695517077E+01 -0.94973858652E+01  0.14670822381E+02  0.51100000000E-03 0.  1.
         12    1    4    4    0    0  0.15468420441E+02  0.15800934998E+00 -0.16639839116E+02  0.22719622437E+02  0.00000000000E+00 0. -1.
</event>
<event>
 8    1  0.4798632E-010  0.9118800E+02  0.7816164E-02  0.1184000E+00
        -11   -1    0    0    0    0  0.00000000000E+00  0.00000000000E+00  0.45593999997E+02  0.45594000000E+02  0.51100000000E-03 0.  1.
         11   -1    0    0    0    0 -0.00000000000E+00 -0.00000000000E+00 -0.45593999997E+02  0.45594000000E+02  0.51100000000E-03 0. -1.
         23    2    1    2    0    0  0.00000000000E+00  0.00000000000E+00 -0.17763568394E-14  0.91188000000E+02  0.91188000000E+02 0.  0.
    9900012    2    3    3    0    0  0.39431425415E+02 -0.15273925370E+02 -0.97720629049E+01  0.47787270514E+02  0.19999997584E+02 0.  0.
        -12    1    3    3    0    0 -0.39431425415E+02  0.15273925370E+02  0.97720629049E+01  0.43400729486E+02  0.00000000000E+00 0.  1.
         11    1    4    4    0    0  0.31877614457E+02 -0.61222598304E+01 -0.77935093542E+01  0.33382677502E+02  0.51100000000E-03 0. -1.
        -11    1    4    4    0    0  0.53927226161E+01 -0.64762293113E+01  0.24696200974E+01  0.87819147681E+01  0.51100000000E-03 0.  1.
        -12    1    4    4    0    0  0.21610883416E+01 -0.26754362286E+01 -0.44481736481E+01  0.56226782442E+01  0.00000000000E+00 0.  1.
</event>
<event>
 8    1  0.4798632E-010  0.9118800E+02  0.7816164E-02  0.1184000E+00
        -11   -1    0    0    0    0  0.00000000000E+00  0.00000000000E+00  0.45593999997E+02  0.45594000000E+02  0.51100000000E-03 0. -1.
         11   -1    0    0    0    0 -0.00000000000E+00 -0.00000000000E+00 -0.45593999997E+02  0.45594000000E+02  0.51100000000E-03 0.  1.
         23    2    1    2    0    0  0.00000000000E+00  0.00000000000E+00  0.00000000000E+00  0.91188000000E+02  0.91188000000E+02 0.  0.
    9900012    2    3    3    0    0 -0.19917479012E+02  0.26532058671E+02  0.27981547920E+02  0.47787272685E+02  0.20000007480E+02 0.  0.
        -12    1    3    3    0    0  0.19917479012E+02 -0.26532058671E+02 -0.27981547920E+02  0.43400727315E+02  0.00000000000E+00 0.  1.
         11    1    4    4    0    0 -0.64675514560E+01  0.12219098675E+02  0.11649766361E+01  0.13874176195E+02  0.51100000000E-03 0. -1.
        -11    1    4    4    0    0  0.63595202398E+00  0.18336187781E+01  0.25576990013E+01  0.32106723973E+01  0.51100000000E-03 0.  1.
         12    1    4    4    0    0 -0.14085879579E+02  0.12479341218E+02  0.24258872283E+02  0.30702424093E+02  0.00000000000E+00 0. -1.
</event>
<event>
 8    1  0.4798632E-010  0.9118800E+02  0.7816164E-02  0.1184000E+00
        -11   -1    0    0    0    0  0.00000000000E+00  0.00000000000E+00  0.45593999997E+02  0.45594000000E+02  0.51100000000E-03 0. -1.
         11   -1    0    0    0    0 -0.00000000000E+00 -0.00000000000E+00 -0.45593999997E+02  0.45594000000E+02  0.51100000000E-03 0.  1.
         23    2    1    2    0    0  0.00000000000E+00 -0.71054273576E-14 -0.17763568394E-14  0.91188000000E+02  0.91188000000E+02 0.  0.
    9900012    2    3    3    0    0 -0.15793162223E+02 -0.39698853468E+02 -0.76289052285E+01  0.47787272648E+02  0.20000007311E+02 0.  0.
         12    1    3    3    0    0  0.15793162223E+02  0.39698853468E+02  0.76289052285E+01  0.43400727352E+02  0.00000000000E+00 0. -1.
         11    1    4    4    0    0 -0.10755097813E+02 -0.27638704271E+02  0.37396246993E+01  0.29892388595E+02  0.51100000000E-03 0. -1.
        -11    1    4    4    0    0  0.14411923031E+00 -0.52871897888E+01 -0.41885282816E+01  0.67467707566E+01  0.51100000000E-03 0.  1.
         12    1    4    4    0    0 -0.51821836408E+01 -0.67729594079E+01 -0.71800016462E+01  0.11148113296E+02  0.00000000000E+00 0. -1.
</event>
<event>
 8    1  0.4798632E-010  0.9118800E+02  0.7816164E-02  0.1184000E+00
        -11   -1    0    0    0    0  0.00000000000E+00  0.00000000000E+00  0.45593999997E+02  0.45594000000E+02  0.51100000000E-03 0. -1.
         11   -1    0    0    0    0 -0.00000000000E+00 -0.00000000000E+00 -0.45593999997E+02  0.45594000000E+02  0.51100000000E-03 0.  1.
         23    2    1    2    0    0 -0.17763568394E-14 -0.35527136788E-14  0.00000000000E+00  0.91188000000E+02  0.91188000000E+02 0.  0.
    9900012    2    3    3    0    0 -0.11442790652E+02 -0.29823626615E+02 -0.29380915948E+02  0.47787258252E+02  0.19999941673E+02 0.  0.
         12    1    3    3    0    0  0.11442790652E+02  0.29823626615E+02  0.29380915948E+02  0.43400741748E+02  0.00000000000E+00 0. -1.
         11    1    4    4    0    0 -0.74076789877E+01 -0.13047992642E+02 -0.21020472632E+02  0.25826035118E+02  0.51100000000E-03 0. -1.
        -11    1    4    4    0    0 -0.79564440315E+00 -0.35496129247E+01 -0.74778175279E+01  0.83156814016E+01  0.51100000000E-03 0.  1.
         12    1    4    4    0    0 -0.32394672607E+01 -0.13226021048E+02 -0.88262578846E+00  0.13645541732E+02  0.00000000000E+00 0. -1.
</event>
<event>
 8    1  0.4798632E-010  0.9118800E+02  0.7816164E-02  0.1184000E+00
        -11   -1    0    0    0    0  0.00000000000E+00  0.00000000000E+00  0.45593999997E+02  0.45594000000E+02  0.51100000000E-03 0. -1.
         11   -1    0    0    0    0 -0.00000000000E+00 -0.00000000000E+00 -0.45593999997E+02  0.45594000000E+02  0.51100000000E-03 0.  1.
         23    2    1    2    0    0  0.00000000000E+00  0.00000000000E+00  0.00000000000E+00  0.91188000000E+02  0.91188000000E+02 0.  0.
    9900012    2    3    3    0    0  0.28145078402E+02 -0.29866592479E+01 -0.32902245071E+02  0.47787270716E+02  0.19999998502E+02 0.  0.
         12    1    3    3    0    0 -0.28145078402E+02  0.29866592479E+01  0.32902245071E+02  0.43400729284E+02  0.00000000000E+00 0. -1.
         11    1    4    4    0    0  0.67521185286E+01 -0.66560773722E+01 -0.73468244872E+01  0.11994594654E+02  0.51100000000E-03 0. -1.
        -11    1    4    4    0    0  0.88688182501E+01  0.30445565153E+01 -0.19976830572E+02  0.22068054321E+02  0.51100000000E-03 0.  1.
        -12    1    4    4    0    0  0.12524141623E+02  0.62486160893E+00 -0.55785900117E+01  0.13724621741E+02  0.00000000000E+00 0.  1.
</event>
<event>
 8    1  0.4798632E-010  0.9118800E+02  0.7816164E-02  0.1184000E+00
        -11   -1    0    0    0    0  0.00000000000E+00  0.00000000000E+00  0.45593999997E+02  0.45594000000E+02  0.51100000000E-03 0. -1.
         11   -1    0    0    0    0 -0.00000000000E+00 -0.00000000000E+00 -0.45593999997E+02  0.45594000000E+02  0.51100000000E-03 0.  1.
         23    2    1    2    0    0 -0.88817841970E-15  0.00000000000E+00  0.00000000000E+00  0.91188000000E+02  0.91188000000E+02 0.  0.
    9900012    2    3    3    0    0 -0.56173786609E+01 -0.18795674602E+02 -0.38714222007E+02  0.47787270601E+02  0.19999997980E+02 0.  0.
         12    1    3    3    0    0  0.56173786609E+01  0.18795674602E+02  0.38714222007E+02  0.43400729399E+02  0.00000000000E+00 0. -1.
         11    1    4    4    0    0 -0.12021015709E+01  0.45689832663E+00  0.45566733650E+00  0.13643449895E+01  0.51100000000E-03 0. -1.
        -11    1    4    4    0    0  0.34348184892E+01  0.53016138809E-01 -0.99960608322E+01  0.10569863821E+02  0.51100000000E-03 0.  1.
        -12    1    4    4    0    0 -0.78500955792E+01 -0.19305589067E+02 -0.29173828511E+02  0.35853061791E+02  0.00000000000E+00 0.  1.
</event>
<event>
 8    1  0.4798632E-010  0.9118800E+02  0.7816164E-02  0.1184000E+00
        -11   -1    0    0    0    0  0.00000000000E+00  0.00000000000E+00  0.45593999997E+02  0.45594000000E+02  0.51100000000E-03 0.  1.
         11   -1    0    0    0    0 -0.00000000000E+00 -0.00000000000E+00 -0.45593999997E+02  0.45594000000E+02  0.51100000000E-03 0. -1.
         23    2    1    2    0    0  0.00000000000E+00  0.00000000000E+00  0.00000000000E+00  0.91188000000E+02  0.91188000000E+02 0.  0.
    9900012    2    3    3    0    0  0.29628516855E+02 -0.24213085611E+02  0.20481728302E+02  0.47787265904E+02  0.19999976561E+02 0.  0.
        -12    1    3    3    0    0 -0.29628516855E+02  0.24213085611E+02 -0.20481728302E+02  0.43400734096E+02  0.00000000000E+00 0.  1.
         11    1    4    4    0    0  0.73627562481E+01 -0.10453349848E+02  0.74835481490E+01  0.14815066512E+02  0.51100000000E-03 0. -1.
        -11    1    4    4    0    0 -0.22048753406E+01 -0.23342226520E+01  0.21716484402E+01  0.38763549715E+01  0.51100000000E-03 0.  1.
        -12    1    4    4    0    0  0.24470635948E+02 -0.11425513111E+02  0.10826531713E+02  0.29095844420E+02  0.00000000000E+00 0.  1.
</event>
<event>
 8    1  0.4798632E-010  0.9118800E+02  0.7816164E-02  0.1184000E+00
        -11   -1    0    0    0    0  0.00000000000E+00  0.00000000000E+00  0.45593999997E+02  0.45594000000E+02  0.51100000000E-03 0. -1.
         11   -1    0    0    0    0 -0.00000000000E+00 -0.00000000000E+00 -0.45593999997E+02  0.45594000000E+02  0.51100000000E-03 0.  1.
         23    2    1    2    0    0  0.71054273576E-14  0.00000000000E+00  0.00000000000E+00  0.91188000000E+02  0.91188000000E+02 0.  0.
    9900012    2    3    3    0    0  0.32793164917E+02  0.22274250538E+02 -0.17666072455E+02  0.47787262468E+02  0.19999960896E+02 0.  0.
         12    1    3    3    0    0 -0.32793164917E+02 -0.22274250538E+02  0.17666072455E+02  0.43400737532E+02  0.00000000000E+00 0. -1.
         11    1    4    4    0    0  0.10804250079E+02  0.18977111377E+02 -0.10326506014E+02  0.24155730225E+02  0.51100000000E-03 0. -1.
        -11    1    4    4    0    0  0.18973386863E+02  0.39003289807E+01 -0.66504765405E+01  0.20480010100E+02  0.51100000000E-03 0.  1.
         12    1    4    4    0    0  0.30155279755E+01 -0.60318981947E+00 -0.68908990123E+00  0.31515221435E+01  0.00000000000E+00 0. -1.
</event>
<event>
 8    1  0.4798632E-010  0.9118800E+02  0.7816164E-02  0.1184000E+00
        -11   -1    0    0    0    0  0.00000000000E+00  0.00000000000E+00  0.45593999997E+02  0.45594000000E+02  0.51100000000E-03 0. -1.
         11   -1    0    0    0    0 -0.00000000000E+00 -0.00000000000E+00 -0.45593999997E+02  0.45594000000E+02  0.51100000000E-03 0.  1.
         23    2    1    2    0    0  0.00000000000E+00  0.00000000000E+00  0.71054273576E-14  0.91188000000E+02  0.91188000000E+02 0.  0.
    9900012    2    3    3    0    0 -0.24791309203E+02  0.21753801416E+01 -0.35556738221E+02  0.47787275079E+02  0.20000018395E+02 0.  0.
         12    1    3    3    0    0  0.24791309203E+02 -0.21753801416E+01  0.35556738221E+02  0.43400724921E+02  0.00000000000E+00 0. -1.
         11    1    4    4    0    0 -0.88225929452E+01 -0.38531350793E+01 -0.15866477044E+01  0.97571639022E+01  0.51100000000E-03 0. -1.
        -11    1    4    4    0    0 -0.50587348463E+01  0.24061136613E+01 -0.11143591016E+02  0.12472361533E+02  0.51100000000E-03 0.  1.
         12    1    4    4    0    0 -0.10909981412E+02  0.36224015597E+01 -0.22826499500E+02  0.25557749644E+02  0.00000000000E+00 0. -1.
</event>
<event>
 8    1  0.4798632E-010  0.9118800E+02  0.7816164E-02  0.1184000E+00
        -11   -1    0    0    0    0  0.00000000000E+00  0.00000000000E+00  0.45593999997E+02  0.45594000000E+02  0.51100000000E-03 0. -1.
         11   -1    0    0    0    0 -0.00000000000E+00 -0.00000000000E+00 -0.45593999997E+02  0.45594000000E+02  0.51100000000E-03 0.  1.
         23    2    1    2    0    0 -0.44408920985E-15  0.00000000000E+00  0.71054273576E-14  0.91188000000E+02  0.91188000000E+02 0.  0.
    9900012    2    3    3    0    0  0.36584217835E+01 -0.82155299776E+01  0.42458741080E+02  0.47787266402E+02  0.19999978831E+02 0.  0.
        -12    1    3    3    0    0 -0.36584217835E+01  0.82155299776E+01 -0.42458741080E+02  0.43400733598E+02  0.00000000000E+00 0.  1.
         11    1    4    4    0    0 -0.42216376771E+01  0.72693078915E-01  0.22050699061E+02  0.22451299256E+02  0.51100000000E-03 0. -1.
        -11    1    4    4    0    0  0.38122414953E+01  0.17398275861E+01  0.58795502936E+01  0.72200621302E+01  0.51100000000E-03 0.  1.
         12    1    4    4    0    0  0.40678179653E+01 -0.10028050643E+02  0.14528491726E+02  0.18115905015E+02  0.00000000000E+00 0. -1.
</event>
<event>
 8    1  0.4798632E-010  0.9118800E+02  0.7816164E-02  0.1184000E+00
        -11   -1    0    0    0    0  0.00000000000E+00  0.00000000000E+00  0.45593999997E+02  0.45594000000E+02  0.51100000000E-03 0. -1.
         11   -1    0    0    0    0 -0.00000000000E+00 -0.00000000000E+00 -0.45593999997E+02  0.45594000000E+02  0.51100000000E-03 0.  1.
         23    2    1    2    0    0 -0.35527136788E-14  0.35527136788E-14  0.00000000000E+00  0.91188000000E+02  0.91188000000E+02 0.  0.
    9900012    2    3    3    0    0 -0.21720261876E+02  0.18695445586E+02 -0.32593462944E+02  0.47787270878E+02  0.19999999242E+02 0.  0.
         12    1    3    3    0    0  0.21720261876E+02 -0.18695445586E+02  0.32593462944E+02  0.43400729122E+02  0.00000000000E+00 0. -1.
         11    1    4    4    0    0 -0.86058199735E+01 -0.32008864421E+00 -0.47168245113E+01  0.98189117466E+01  0.51100000000E-03 0. -1.
        -11    1    4    4    0    0 -0.10170251064E+02  0.19726246047E+02 -0.21456837110E+02  0.30869963538E+02  0.51100000000E-03 0.  1.
         12    1    4    4    0    0 -0.29441908381E+01 -0.71071181659E+00 -0.64198013227E+01  0.70983955934E+01  0.00000000000E+00 0. -1.
</event>
<event>
 8    1  0.4798632E-010  0.9118800E+02  0.7816164E-02  0.1184000E+00
        -11   -1    0    0    0    0  0.00000000000E+00  0.00000000000E+00  0.45593999997E+02  0.45594000000E+02  0.51100000000E-03 0. -1.
         11   -1    0    0    0    0 -0.00000000000E+00 -0.00000000000E+00 -0.45593999997E+02  0.45594000000E+02  0.51100000000E-03 0.  1.
         23    2    1    2    0    0  0.22204460493E-15  0.35527136788E-14 -0.71054273576E-14  0.91188000000E+02  0.91188000000E+02 0.  0.
    9900012    2    3    3    0    0  0.11348979916E+01  0.22056961325E+02 -0.37360740655E+02  0.47787280206E+02  0.20000041773E+02 0.  0.
         12    1    3    3    0    0 -0.11348979916E+01 -0.22056961325E+02  0.37360740655E+02  0.43400719794E+02  0.00000000000E+00 0. -1.
         11    1    4    4    0    0 -0.28492754553E+01  0.44849649728E+01 -0.12340824279E+00  0.53149328578E+01  0.51100000000E-03 0. -1.
        -11    1    4    4    0    0  0.71690027776E+01  0.12768409786E+02 -0.27564252136E+02  0.31212415565E+02  0.51100000000E-03 0.  1.
         12    1    4    4    0    0 -0.31848293307E+01  0.48035865665E+01 -0.96730802754E+01  0.11259931784E+02  0.00000000000E+00 0. -1.
</event>
<event>
 8    1  0.4798632E-010  0.9118800E+02  0.7816164E-02  0.1184000E+00
        -11   -1    0    0    0    0  0.00000000000E+00  0.00000000000E+00  0.45593999997E+02  0.45594000000E+02  0.51100000000E-03 0.  1.
         11   -1    0    0    0    0 -0.00000000000E+00 -0.00000000000E+00 -0.45593999997E+02  0.45594000000E+02  0.51100000000E-03 0. -1.
         23    2    1    2    0    0  0.00000000000E+00  0.00000000000E+00 -0.17763568394E-14  0.91188000000E+02  0.91188000000E+02 0.  0.
    9900012    2    3    3    0    0 -0.25660803918E+02 -0.34093479112E+02  0.79234360638E+01  0.47787274029E+02  0.20000013609E+02 0.  0.
        -12    1    3    3    0    0  0.25660803918E+02  0.34093479112E+02 -0.79234360638E+01  0.43400725971E+02  0.00000000000E+00 0.  1.
         11    1    4    4    0    0 -0.13906436996E+02 -0.73797438974E+01 -0.31255974556E+01  0.16050513064E+02  0.51100000000E-03 0. -1.
        -11    1    4    4    0    0 -0.10951370951E+02 -0.21358424702E+02  0.70865639443E+01  0.25026670179E+02  0.51100000000E-03 0.  1.
         12    1    4    4    0    0 -0.80299597131E+00 -0.53553105132E+01  0.39624695751E+01  0.67100907860E+01  0.00000000000E+00 0. -1.
</event>
<event>
 8    1  0.4798632E-010  0.9118800E+02  0.7816164E-02  0.1184000E+00
        -11   -1    0    0    0    0  0.00000000000E+00  0.00000000000E+00  0.45593999997E+02  0.45594000000E+02  0.51100000000E-03 0. -1.
         11   -1    0    0    0    0 -0.00000000000E+00 -0.00000000000E+00 -0.45593999997E+02  0.45594000000E+02  0.51100000000E-03 0.  1.
         23    2    1    2    0    0  0.13322676296E-14  0.00000000000E+00  0.00000000000E+00  0.91188000000E+02  0.91188000000E+02 0.  0.
    9900012    2    3    3    0    0  0.20960881734E+01 -0.11889423849E+02 -0.41687780374E+02  0.47787273997E+02  0.20000013460E+02 0.  0.
         12    1    3    3    0    0 -0.20960881734E+01  0.11889423849E+02  0.41687780374E+02  0.43400726003E+02  0.00000000000E+00 0. -1.
         11    1    4    4    0    0 -0.35223960746E+00 -0.20551928929E+01 -0.20662070406E+01  0.29354901403E+01  0.51100000000E-03 0.  1.
        -11    1    4    4    0    0 -0.72290338550E+01 -0.37154465804E+01 -0.88345904370E+01  0.12004726662E+02  0.51100000000E-03 0. -1.
        -12    1    4    4    0    0  0.96773616359E+01 -0.61187843755E+01 -0.30786982897E+02  0.32847057195E+02  0.00000000000E+00 0.  1.
</event>
<event>
 8    1  0.4798632E-010  0.9118800E+02  0.7816164E-02  0.1184000E+00
        -11   -1    0    0    0    0  0.00000000000E+00  0.00000000000E+00  0.45593999997E+02  0.45594000000E+02  0.51100000000E-03 0. -1.
         11   -1    0    0    0    0 -0.00000000000E+00 -0.00000000000E+00 -0.45593999997E+02  0.45594000000E+02  0.51100000000E-03 0.  1.
         23    2    1    2    0    0  0.35527136788E-14  0.44408920985E-15  0.00000000000E+00  0.91188000000E+02  0.91188000000E+02 0.  0.
    9900012    2    3    3    0    0  0.24455918423E+02 -0.31114511224E+01 -0.35719046382E+02  0.47787270185E+02  0.19999996083E+02 0.  0.
         12    1    3    3    0    0 -0.24455918423E+02  0.31114511224E+01  0.35719046382E+02  0.43400729815E+02  0.00000000000E+00 0. -1.
         11    1    4    4    0    0  0.10418841633E+02  0.44434313726E+01 -0.17250265628E+02  0.20636569672E+02  0.51100000000E-03 0. -1.
        -11    1    4    4    0    0  0.91435869089E+00 -0.59974073031E+01 -0.91582822919E+01  0.10985403087E+02  0.51100000000E-03 0.  1.
        -12    1    4    4    0    0  0.13122718099E+02 -0.15574751918E+01 -0.93104984626E+01  0.16165297427E+02  0.00000000000E+00 0.  1.
</event>
<event>
 8    1  0.4798632E-010  0.9118800E+02  0.7816164E-02  0.1184000E+00
        -11   -1    0    0    0    0  0.00000000000E+00  0.00000000000E+00  0.45593999997E+02  0.45594000000E+02  0.51100000000E-03 0. -1.
         11   -1    0    0    0    0 -0.00000000000E+00 -0.00000000000E+00 -0.45593999997E+02  0.45594000000E+02  0.51100000000E-03 0.  1.
         23    2    1    2    0    0  0.00000000000E+00  0.00000000000E+00  0.00000000000E+00  0.91188000000E+02  0.91188000000E+02 0.  0.
    9900012    2    3    3    0    0 -0.10029990823E+02  0.23877162830E+02  0.34826769347E+02  0.47787268625E+02  0.19999988970E+02 0.  0.
        -12    1    3    3    0    0  0.10029990823E+02 -0.23877162830E+02 -0.34826769347E+02  0.43400731375E+02  0.00000000000E+00 0.  1.
         11    1    4    4    0    0 -0.11084935895E+02  0.21129411155E+02  0.16397145952E+02  0.28951583984E+02  0.51100000000E-03 0. -1.
        -11    1    4    4    0    0  0.18918750180E+01  0.20711990176E+01  0.13862721796E+02  0.14143695144E+02  0.51100000000E-03 0.  1.
         12    1    4    4    0    0 -0.83692994559E+00  0.67655265761E+00  0.45669015986E+01  0.46919894974E+01  0.00000000000E+00 0. -1.
</event>
<event>
 8    1  0.4798632E-010  0.9118800E+02  0.7816164E-02  0.1184000E+00
        -11   -1    0    0    0    0  0.00000000000E+00  0.00000000000E+00  0.45593999997E+02  0.45594000000E+02  0.51100000000E-03 0. -1.
         11   -1    0    0    0    0 -0.00000000000E+00 -0.00000000000E+00 -0.45593999997E+02  0.45594000000E+02  0.51100000000E-03 0.  1.
         23    2    1    2    0    0  0.00000000000E+00  0.00000000000E+00 -0.35527136788E-14  0.91188000000E+02  0.91188000000E+02 0.  0.
    9900012    2    3    3    0    0  0.22362094850E+02 -0.20970486855E+02  0.30721327344E+02  0.47787256241E+02  0.19999932506E+02 0.  0.
        -12    1    3    3    0    0 -0.22362094850E+02  0.20970486855E+02 -0.30721327344E+02  0.43400743759E+02  0.00000000000E+00 0.  1.
         11    1    4    4    0    0  0.13577748218E+02 -0.23104951881E+01  0.16113298037E+02  0.21197452880E+02  0.51100000000E-03 0. -1.
        -11    1    4    4    0    0 -0.44075975559E+00 -0.82536571107E+01  0.62765750808E+01  0.10378464235E+02  0.51100000000E-03 0.  1.
         12    1    4    4    0    0  0.92251063878E+01 -0.10406334557E+02  0.83314542259E+01  0.16211339127E+02  0.00000000000E+00 0. -1.
</event>
<event>
 8    1  0.4798632E-010  0.9118800E+02  0.7816164E-02  0.1184000E+00
        -11   -1    0    0    0    0  0.00000000000E+00  0.00000000000E+00  0.45593999997E+02  0.45594000000E+02  0.51100000000E-03 0. -1.
         11   -1    0    0    0    0 -0.00000000000E+00 -0.00000000000E+00 -0.45593999997E+02  0.45594000000E+02  0.51100000000E-03 0.  1.
         23    2    1    2    0    0  0.00000000000E+00  0.71054273576E-14  0.00000000000E+00  0.91188000000E+02  0.91188000000E+02 0.  0.
    9900012    2    3    3    0    0  0.46913621210E+01 -0.29218877719E+02 -0.31746993586E+02  0.47787270796E+02  0.19999998865E+02 0.  0.
         12    1    3    3    0    0 -0.46913621210E+01  0.29218877719E+02  0.31746993586E+02  0.43400729204E+02  0.00000000000E+00 0. -1.
         11    1    4    4    0    0  0.19179434677E+01  0.18478297709E+01 -0.43125223083E+01  0.50686123277E+01  0.51100000000E-03 0. -1.
        -11    1    4    4    0    0  0.33082360197E+01 -0.27348701940E+01 -0.48985274577E+01  0.65130263361E+01  0.51100000000E-03 0.  1.
         12    1    4    4    0    0 -0.53481736642E+00 -0.28331837296E+02 -0.22535943820E+02  0.36205632132E+02  0.00000000000E+00 0. -1.
</event>
<event>
 8    1  0.4798632E-010  0.9118800E+02  0.7816164E-02  0.1184000E+00
        -11   -1    0    0    0    0  0.00000000000E+00  0.00000000000E+00  0.45593999997E+02  0.45594000000E+02  0.51100000000E-03 0. -1.
         11   -1    0    0    0    0 -0.00000000000E+00 -0.00000000000E+00 -0.45593999997E+02  0.45594000000E+02  0.51100000000E-03 0.  1.
         23    2    1    2    0    0 -0.35527136788E-14 -0.88817841970E-15  0.71054273576E-14  0.91188000000E+02  0.91188000000E+02 0.  0.
    9900012    2    3    3    0    0  0.20168037582E+02 -0.53457128190E+01 -0.38056496308E+02  0.47787270781E+02  0.19999998799E+02 0.  0.
         12    1    3    3    0    0 -0.20168037582E+02  0.53457128190E+01  0.38056496308E+02  0.43400729219E+02  0.00000000000E+00 0. -1.
         11    1    4    4    0    0  0.25808687508E+01  0.51990317649E+01 -0.25004321689E+01  0.63200455769E+01  0.51100000000E-03 0. -1.
        -11    1    4    4    0    0  0.12766011853E+02 -0.59588611936E+01 -0.28358906306E+02  0.31665543616E+02  0.51100000000E-03 0.  1.
         12    1    4    4    0    0  0.48211569781E+01 -0.45858833903E+01 -0.71971578331E+01  0.98016815879E+01  0.00000000000E+00 0. -1.
</event>
<event>
 8    1  0.4798632E-010  0.9118800E+02  0.7816164E-02  0.1184000E+00
        -11   -1    0    0    0    0  0.00000000000E+00  0.00000000000E+00  0.45593999997E+02  0.45594000000E+02  0.51100000000E-03 0. -1.
         11   -1    0    0    0    0 -0.00000000000E+00 -0.00000000000E+00 -0.45593999997E+02  0.45594000000E+02  0.51100000000E-03 0.  1.
         23    2    1    2    0    0  0.11102230246E-15  0.35527136788E-14  0.00000000000E+00  0.91188000000E+02  0.91188000000E+02 0.  0.
    9900012    2    3    3    0    0 -0.69113214041E+00  0.16678100858E+02 -0.40062280764E+02  0.47787273602E+02  0.20000011661E+02 0.  0.
         12    1    3    3    0    0  0.69113214041E+00 -0.16678100858E+02  0.40062280764E+02  0.43400726398E+02  0.00000000000E+00 0. -1.
         11    1    4    4    0    0  0.29385450897E+01  0.49907536698E+01 -0.43163512185E+00  0.58076655014E+01  0.51100000000E-03 0. -1.
        -11    1    4    4    0    0 -0.53199805910E+01  0.65953835739E+01 -0.23620458269E+02  0.25094368433E+02  0.51100000000E-03 0.  1.
         12    1    4    4    0    0  0.16903033609E+01  0.50919636147E+01 -0.16010187373E+02  0.16885239667E+02  0.00000000000E+00 0. -1.
</event>
<event>
 8    1  0.4798632E-010  0.9118800E+02  0.7816164E-02  0.1184000E+00
        -11   -1    0    0    0    0  0.00000000000E+00  0.00000000000E+00  0.45593999997E+02  0.45594000000E+02  0.51100000000E-03 0.  1.
         11   -1    0    0    0    0 -0.00000000000E+00 -0.00000000000E+00 -0.45593999997E+02  0.45594000000E+02  0.51100000000E-03 0. -1.
         23    2    1    2    0    0  0.00000000000E+00  0.00000000000E+00  0.00000000000E+00  0.91188000000E+02  0.91188000000E+02 0.  0.
    9900012    2    3    3    0    0  0.14704107910E+02 -0.26896836909E+02  0.30724202866E+02  0.47787225043E+02  0.19999790260E+02 0.  0.
        -12    1    3    3    0    0 -0.14704107910E+02  0.26896836909E+02 -0.30724202866E+02  0.43400774957E+02  0.00000000000E+00 0.  1.
         11    1    4    4    0    0  0.11006455847E+02 -0.13493925638E+02  0.24835608597E+02  0.30332087862E+02  0.51100000000E-03 0. -1.
        -11    1    4    4    0    0 -0.23334970146E+01 -0.80016278192E+01  0.30684976058E+01  0.88818316744E+01  0.51100000000E-03 0.  1.
         12    1    4    4    0    0  0.60311490780E+01 -0.54012834511E+01  0.28200966635E+01  0.85733055067E+01  0.00000000000E+00 0. -1.
</event>
<event>
 8    1  0.4798632E-010  0.9118800E+02  0.7816164E-02  0.1184000E+00
        -11   -1    0    0    0    0  0.00000000000E+00  0.00000000000E+00  0.45593999997E+02  0.45594000000E+02  0.51100000000E-03 0.  1.
         11   -1    0    0    0    0 -0.00000000000E+00 -0.00000000000E+00 -0.45593999997E+02  0.45594000000E+02  0.51100000000E-03 0. -1.
         23    2    1    2    0    0 -0.71054273576E-14  0.00000000000E+00  0.17763568394E-14  0.91188000000E+02  0.91188000000E+02 0.  0.
    9900012    2    3    3    0    0 -0.35747070461E+02  0.21700303545E+02  0.11613219635E+02  0.47787273153E+02  0.20000009615E+02 0.  0.
        -12    1    3    3    0    0  0.35747070461E+02 -0.21700303545E+02 -0.11613219635E+02  0.43400726847E+02  0.00000000000E+00 0.  1.
         11    1    4    4    0    0 -0.33512394674E+02  0.16072781790E+02  0.14829809073E+02  0.40016723362E+02  0.51100000000E-03 0. -1.
        -11    1    4    4    0    0  0.89152537073E+00  0.19500830696E+01 -0.16175332594E+01  0.26858993971E+01  0.51100000000E-03 0.  1.
        -12    1    4    4    0    0 -0.31262011584E+01  0.36774386860E+01 -0.15990561780E+01  0.50846503943E+01  0.00000000000E+00 0.  1.
</event>
<event>
 8    1  0.4798632E-010  0.9118800E+02  0.7816164E-02  0.1184000E+00
        -11   -1    0    0    0    0  0.00000000000E+00  0.00000000000E+00  0.45593999997E+02  0.45594000000E+02  0.51100000000E-03 0. -1.
         11   -1    0    0    0    0 -0.00000000000E+00 -0.00000000000E+00 -0.45593999997E+02  0.45594000000E+02  0.51100000000E-03 0.  1.
         23    2    1    2    0    0  0.00000000000E+00  0.55511151231E-16 -0.71054273576E-14  0.91188000000E+02  0.91188000000E+02 0.  0.
    9900012    2    3    3    0    0 -0.91014310228E+01 -0.25999090099E+00  0.42434889016E+02  0.47787269042E+02  0.19999990869E+02 0.  0.
        -12    1    3    3    0    0  0.91014310228E+01  0.25999090099E+00 -0.42434889016E+02  0.43400730958E+02  0.00000000000E+00 0.  1.
         11    1    4    4    0    0 -0.65620327680E+01 -0.78899252773E+01  0.15116363331E+02  0.18270622199E+02  0.51100000000E-03 0. -1.
        -11    1    4    4    0    0 -0.37786733007E+01  0.68672793070E+01  0.13414051961E+02  0.15536237873E+02  0.51100000000E-03 0.  1.
         12    1    4    4    0    0  0.12392750458E+01  0.76265506935E+00  0.13904473725E+02  0.13980408969E+02  0.00000000000E+00 0. -1.
</event>
<event>
 8    1  0.4798632E-010  0.9118800E+02  0.7816164E-02  0.1184000E+00
        -11   -1    0    0    0    0  0.00000000000E+00  0.00000000000E+00  0.45593999997E+02  0.45594000000E+02  0.51100000000E-03 0. -1.
         11   -1    0    0    0    0 -0.00000000000E+00 -0.00000000000E+00 -0.45593999997E+02  0.45594000000E+02  0.51100000000E-03 0.  1.
         23    2    1    2    0    0  0.00000000000E+00  0.00000000000E+00  0.88817841970E-15  0.91188000000E+02  0.91188000000E+02 0.  0.
    9900012    2    3    3    0    0  0.22259589520E+02 -0.36407177821E+02 -0.79152550622E+01  0.47787272066E+02  0.20000004659E+02 0.  0.
         12    1    3    3    0    0 -0.22259589520E+02  0.36407177821E+02  0.79152550622E+01  0.43400727934E+02  0.00000000000E+00 0. -1.
         11    1    4    4    0    0  0.19155029777E+02 -0.22561619677E+02 -0.92714894228E+01  0.31014550853E+02  0.51100000000E-03 0. -1.
        -11    1    4    4    0    0  0.33799042966E+01 -0.14052863461E+02 -0.90829135777E+00  0.14482117178E+02  0.51100000000E-03 0.  1.
         12    1    4    4    0    0 -0.27534455406E+00  0.20730531736E+00  0.22645257183E+01  0.22906040354E+01  0.00000000000E+00 0. -1.
</event>
<event>
 8    1  0.4798632E-010  0.9118800E+02  0.7816164E-02  0.1184000E+00
        -11   -1    0    0    0    0  0.00000000000E+00  0.00000000000E+00  0.45593999997E+02  0.45594000000E+02  0.51100000000E-03 0. -1.
         11   -1    0    0    0    0 -0.00000000000E+00 -0.00000000000E+00 -0.45593999997E+02  0.45594000000E+02  0.51100000000E-03 0.  1.
         23    2    1    2    0    0 -0.88817841970E-15  0.00000000000E+00  0.71054273576E-14  0.91188000000E+02  0.91188000000E+02 0.  0.
    9900012    2    3    3    0    0 -0.68757019070E+01 -0.20444422040E+02  0.37661308057E+02  0.47787265055E+02  0.19999972691E+02 0.  0.
        -12    1    3    3    0    0  0.68757019070E+01  0.20444422040E+02 -0.37661308057E+02  0.43400734945E+02  0.00000000000E+00 0.  1.
         11    1    4    4    0    0  0.25481615053E-01 -0.13215258416E+02  0.14967413642E+02  0.19966651590E+02  0.51100000000E-03 0. -1.
        -11    1    4    4    0    0 -0.45865336895E+01  0.30448309143E+01  0.89161853064E+01  0.10478818982E+02  0.51100000000E-03 0.  1.
        -12    1    4    4    0    0 -0.23146498325E+01 -0.10273994538E+02  0.13777709108E+02  0.17341794483E+02  0.00000000000E+00 0.  1.
</event>
<event>
 8    1  0.4798632E-010  0.9118800E+02  0.7816164E-02  0.1184000E+00
        -11   -1    0    0    0    0  0.00000000000E+00  0.00000000000E+00  0.45593999997E+02  0.45594000000E+02  0.51100000000E-03 0.  1.
         11   -1    0    0    0    0 -0.00000000000E+00 -0.00000000000E+00 -0.45593999997E+02  0.45594000000E+02  0.51100000000E-03 0. -1.
         23    2    1    2    0    0  0.00000000000E+00  0.00000000000E+00 -0.15543122345E-14  0.91188000000E+02  0.91188000000E+02 0.  0.
    9900012    2    3    3    0    0 -0.20141882911E+02 -0.38404513953E+02 -0.17381933436E+01  0.47787268954E+02  0.19999990471E+02 0.  0.
        -12    1    3    3    0    0  0.20141882911E+02  0.38404513953E+02  0.17381933436E+01  0.43400731046E+02  0.00000000000E+00 0.  1.
         11    1    4    4    0    0 -0.12252156486E+02 -0.14364536033E+02 -0.94849280959E+01  0.21128632119E+02  0.51100000000E-03 0. -1.
        -11    1    4    4    0    0 -0.64454662577E+01 -0.14651145390E+02  0.50500827596E+01  0.16784023137E+02  0.51100000000E-03 0.  1.
         12    1    4    4    0    0 -0.14442601677E+01 -0.93888325303E+01  0.26966519927E+01  0.98746136980E+01  0.00000000000E+00 0. -1.
</event>
<event>
 8    1  0.4798632E-010  0.9118800E+02  0.7816164E-02  0.1184000E+00
        -11   -1    0    0    0    0  0.00000000000E+00  0.00000000000E+00  0.45593999997E+02  0.45594000000E+02  0.51100000000E-03 0. -1.
         11   -1    0    0    0    0 -0.00000000000E+00 -0.00000000000E+00 -0.45593999997E+02  0.45594000000E+02  0.51100000000E-03 0.  1.
         23    2    1    2    0    0  0.00000000000E+00  0.17763568394E-14  0.00000000000E+00  0.91188000000E+02  0.91188000000E+02 0.  0.
    9900012    2    3    3    0    0 -0.15251157729E+02 -0.14577769457E+02 -0.37927750995E+02  0.47787268785E+02  0.19999989700E+02 0.  0.
         12    1    3    3    0    0  0.15251157729E+02  0.14577769457E+02  0.37927750995E+02  0.43400731215E+02  0.00000000000E+00 0. -1.
         11    1    4    4    0    0 -0.26132011019E+01 -0.85969843221E+01 -0.29632701296E+02  0.30965043934E+02  0.51100000000E-03 0. -1.
        -11    1    4    4    0    0 -0.76824591186E+01 -0.52758160569E+01 -0.69895451974E+01  0.11649384340E+02  0.51100000000E-03 0.  1.
         12    1    4    4    0    0 -0.49554975083E+01 -0.70496907786E+00 -0.13055045013E+01  0.51728405116E+01  0.00000000000E+00 0. -1.
</event>
<event>
 8    1  0.4798632E-010  0.9118800E+02  0.7816164E-02  0.1184000E+00
        -11   -1    0    0    0    0  0.00000000000E+00  0.00000000000E+00  0.45593999997E+02  0.45594000000E+02  0.51100000000E-03 0.  1.
         11   -1    0    0    0    0 -0.00000000000E+00 -0.00000000000E+00 -0.45593999997E+02  0.45594000000E+02  0.51100000000E-03 0. -1.
         23    2    1    2    0    0 -0.71054273576E-14  0.00000000000E+00  0.00000000000E+00  0.91188000000E+02  0.91188000000E+02 0.  0.
    9900012    2    3    3    0    0  0.34512217001E+02 -0.12229961195E+02  0.23301451327E+02  0.47787277574E+02  0.20000029771E+02 0.  0.
        -12    1    3    3    0    0 -0.34512217001E+02  0.12229961195E+02 -0.23301451327E+02  0.43400722426E+02  0.00000000000E+00 0.  1.
         11    1    4    4    0    0  0.21825940837E+02 -0.13773841483E+02  0.16848887891E+02  0.30821671370E+02  0.51100000000E-03 0. -1.
        -11    1    4    4    0    0  0.11682926989E+02  0.30889431687E+01  0.80558376774E+01  0.14523390578E+02  0.51100000000E-03 0.  1.
        -12    1    4    4    0    0  0.10033491738E+01 -0.15450628811E+01 -0.16032742410E+01  0.24422156258E+01  0.00000000000E+00 0.  1.
</event>
<event>
 8    1  0.4798632E-010  0.9118800E+02  0.7816164E-02  0.1184000E+00
        -11   -1    0    0    0    0  0.00000000000E+00  0.00000000000E+00  0.45593999997E+02  0.45594000000E+02  0.51100000000E-03 0. -1.
         11   -1    0    0    0    0 -0.00000000000E+00 -0.00000000000E+00 -0.45593999997E+02  0.45594000000E+02  0.51100000000E-03 0.  1.
         23    2    1    2    0    0 -0.35527136788E-14  0.00000000000E+00  0.00000000000E+00  0.91188000000E+02  0.91188000000E+02 0.  0.
    9900012    2    3    3    0    0  0.18871749337E+02 -0.32061990187E+02 -0.22349689588E+02  0.47787276936E+02  0.20000026862E+02 0.  0.
         12    1    3    3    0    0 -0.18871749337E+02  0.32061990187E+02  0.22349689588E+02  0.43400723064E+02  0.00000000000E+00 0. -1.
         11    1    4    4    0    0  0.49598382064E+01 -0.41465910635E+01  0.43921089648E-01  0.64649935657E+01  0.51100000000E-03 0. -1.
        -11    1    4    4    0    0  0.16946284711E+02 -0.20810331115E+02 -0.15649465907E+02  0.31066899267E+02  0.51100000000E-03 0.  1.
        -12    1    4    4    0    0 -0.30343735799E+01 -0.71050680087E+01 -0.67441447705E+01  0.10255384104E+02  0.00000000000E+00 0.  1.
</event>
<event>
 8    1  0.4798632E-010  0.9118800E+02  0.7816164E-02  0.1184000E+00
        -11   -1    0    0    0    0  0.00000000000E+00  0.00000000000E+00  0.45593999997E+02  0.45594000000E+02  0.51100000000E-03 0. -1.
         11   -1    0    0    0    0 -0.00000000000E+00 -0.00000000000E+00 -0.45593999997E+02  0.45594000000E+02  0.51100000000E-03 0.  1.
         23    2    1    2    0    0  0.00000000000E+00  0.11102230246E-15  0.00000000000E+00  0.91188000000E+02  0.91188000000E+02 0.  0.
    9900012    2    3    3    0    0 -0.22735541897E+02  0.72623287807E+00 -0.36962010934E+02  0.47787279593E+02  0.20000038975E+02 0.  0.
         12    1    3    3    0    0  0.22735541897E+02 -0.72623287807E+00  0.36962010934E+02  0.43400720407E+02  0.00000000000E+00 0. -1.
         11    1    4    4    0    0 -0.70866082964E+00  0.15244790792E+01 -0.73989283836E+00  0.18367575528E+01  0.51100000000E-03 0. -1.
        -11    1    4    4    0    0 -0.14655822390E+02  0.90131141412E+00 -0.79778375220E+01  0.16710816377E+02  0.51100000000E-03 0.  1.
        -12    1    4    4    0    0 -0.73710586776E+01 -0.16995576153E+01 -0.28244280574E+02  0.29239705663E+02  0.00000000000E+00 0.  1.
</event>
<event>
 8    1  0.4798632E-010  0.9118800E+02  0.7816164E-02  0.1184000E+00
        -11   -1    0    0    0    0  0.00000000000E+00  0.00000000000E+00  0.45593999997E+02  0.45594000000E+02  0.51100000000E-03 0.  1.
         11   -1    0    0    0    0 -0.00000000000E+00 -0.00000000000E+00 -0.45593999997E+02  0.45594000000E+02  0.51100000000E-03 0. -1.
         23    2    1    2    0    0  0.71054273576E-14  0.00000000000E+00 -0.12212453271E-14  0.91188000000E+02  0.91188000000E+02 0.  0.
    9900012    2    3    3    0    0 -0.37574633630E+02 -0.21719599841E+02  0.17308737884E+00  0.47787261885E+02  0.19999958240E+02 0.  0.
        -12    1    3    3    0    0  0.37574633630E+02  0.21719599841E+02 -0.17308737884E+00  0.43400738115E+02  0.00000000000E+00 0.  1.
         11    1    4    4    0    0 -0.14498025337E+02 -0.10839000950E+02 -0.74781823913E+01  0.19585706329E+02  0.51100000000E-03 0. -1.
        -11    1    4    4    0    0 -0.20614884738E+02 -0.63992267139E+01  0.81313964942E+01  0.23066061313E+02  0.51100000000E-03 0.  1.
         12    1    4    4    0    0 -0.24617235546E+01 -0.44813721769E+01 -0.48012672409E+00  0.51354942428E+01  0.00000000000E+00 0. -1.
</event>
<event>
 8    1  0.4798632E-010  0.9118800E+02  0.7816164E-02  0.1184000E+00
        -11   -1    0    0    0    0  0.00000000000E+00  0.00000000000E+00  0.45593999997E+02  0.45594000000E+02  0.51100000000E-03 0.  1.
         11   -1    0    0    0    0 -0.00000000000E+00 -0.00000000000E+00 -0.45593999997E+02  0.45594000000E+02  0.51100000000E-03 0. -1.
         23    2    1    2    0    0  0.00000000000E+00  0.00000000000E+00  0.17763568394E-14  0.91188000000E+02  0.91188000000E+02 0.  0.
    9900012    2    3    3    0    0 -0.18801776080E+02 -0.36211006546E+02 -0.14794574782E+02  0.47787271644E+02  0.20000002732E+02 0.  0.
         12    1    3    3    0    0  0.18801776080E+02  0.36211006546E+02  0.14794574782E+02  0.43400728356E+02  0.00000000000E+00 0. -1.
         11    1    4    4    0    0 -0.13963080335E+01 -0.35430730083E+01  0.45014921788E+00  0.38347981754E+01  0.51100000000E-03 0. -1.
        -11    1    4    4    0    0 -0.73247450900E+01 -0.50316582055E+01  0.29495888299E+01  0.93632018806E+01  0.51100000000E-03 0.  1.
        -12    1    4    4    0    0 -0.10080722957E+02 -0.27636275333E+02 -0.18194312830E+02  0.34589271587E+02  0.00000000000E+00 0.  1.
</event>
<event>
 8    1  0.4798632E-010  0.9118800E+02  0.7816164E-02  0.1184000E+00
        -11   -1    0    0    0    0  0.00000000000E+00  0.00000000000E+00  0.45593999997E+02  0.45594000000E+02  0.51100000000E-03 0.  1.
         11   -1    0    0    0    0 -0.00000000000E+00 -0.00000000000E+00 -0.45593999997E+02  0.45594000000E+02  0.51100000000E-03 0. -1.
         23    2    1    2    0    0  0.00000000000E+00  0.17763568394E-14  0.17763568394E-14  0.91188000000E+02  0.91188000000E+02 0.  0.
    9900012    2    3    3    0    0 -0.39659920250E+02  0.14527731197E+02  0.99828936992E+01  0.47787280944E+02  0.20000045138E+02 0.  0.
        -12    1    3    3    0    0  0.39659920250E+02 -0.14527731197E+02 -0.99828936992E+01  0.43400719056E+02  0.00000000000E+00 0.  1.
         11    1    4    4    0    0 -0.24099817423E+02  0.52137228336E+01  0.11863782604E+02  0.27362994053E+02  0.51100000000E-03 0.  1.
        -11    1    4    4    0    0 -0.64650663818E+01  0.44263448273E+00 -0.38946827798E+01  0.75605266234E+01  0.51100000000E-03 0. -1.
         12    1    4    4    0    0 -0.90950364451E+01  0.88713738805E+01  0.20137938751E+01  0.12863760268E+02  0.00000000000E+00 0. -1.
</event>
<event>
 8    1  0.4798632E-010  0.9118800E+02  0.7816164E-02  0.1184000E+00
        -11   -1    0    0    0    0  0.00000000000E+00  0.00000000000E+00  0.45593999997E+02  0.45594000000E+02  0.51100000000E-03 0. -1.
         11   -1    0    0    0    0 -0.00000000000E+00 -0.00000000000E+00 -0.45593999997E+02  0.45594000000E+02  0.51100000000E-03 0.  1.
         23    2    1    2    0    0  0.00000000000E+00  0.00000000000E+00  0.00000000000E+00  0.91188000000E+02  0.91188000000E+02 0.  0.
    9900012    2    3    3    0    0  0.31233140754E+02  0.19549786135E+02 -0.22932936110E+02  0.47787276759E+02  0.20000026053E+02 0.  0.
         12    1    3    3    0    0 -0.31233140754E+02 -0.19549786135E+02  0.22932936110E+02  0.43400723241E+02  0.00000000000E+00 0. -1.
         11    1    4    4    0    0  0.17086538106E+02  0.38830394536E+01 -0.36657574670E+01  0.17901551830E+02  0.51100000000E-03 0. -1.
        -11    1    4    4    0    0  0.10718624653E+02  0.98010880460E+01 -0.17731102037E+02  0.22920345133E+02  0.51100000000E-03 0.  1.
         12    1    4    4    0    0  0.34279779951E+01  0.58656586350E+01 -0.15360766066E+01  0.69653797957E+01  0.00000000000E+00 0. -1.
</event>
<event>
 8    1  0.4798632E-010  0.9118800E+02  0.7816164E-02  0.1184000E+00
        -11   -1    0    0    0    0  0.00000000000E+00  0.00000000000E+00  0.45593999997E+02  0.45594000000E+02  0.51100000000E-03 0. -1.
         11   -1    0    0    0    0 -0.00000000000E+00 -0.00000000000E+00 -0.45593999997E+02  0.45594000000E+02  0.51100000000E-03 0.  1.
         23    2    1    2    0    0  0.00000000000E+00  0.00000000000E+00  0.00000000000E+00  0.91188000000E+02  0.91188000000E+02 0.  0.
    9900012    2    3    3    0    0  0.17948093547E+02 -0.32714565760E+02 -0.22164078407E+02  0.47787271360E+02  0.20000001440E+02 0.  0.
         12    1    3    3    0    0 -0.17948093547E+02  0.32714565760E+02  0.22164078407E+02  0.43400728640E+02  0.00000000000E+00 0. -1.
         11    1    4    4    0    0  0.92453697153E+01 -0.72501598589E+01 -0.41460224108E+00  0.11756426942E+02  0.51100000000E-03 0. -1.
        -11    1    4    4    0    0  0.83168090766E+01 -0.13616370611E+02 -0.16845301381E+02  0.23202134399E+02  0.51100000000E-03 0.  1.
         12    1    4    4    0    0  0.38591475550E+00 -0.11848035290E+02 -0.49041747857E+01  0.12828710019E+02  0.00000000000E+00 0. -1.
</event>
<event>
 8    1  0.4798632E-010  0.9118800E+02  0.7816164E-02  0.1184000E+00
        -11   -1    0    0    0    0  0.00000000000E+00  0.00000000000E+00  0.45593999997E+02  0.45594000000E+02  0.51100000000E-03 0. -1.
         11   -1    0    0    0    0 -0.00000000000E+00 -0.00000000000E+00 -0.45593999997E+02  0.45594000000E+02  0.51100000000E-03 0.  1.
         23    2    1    2    0    0  0.00000000000E+00  0.00000000000E+00  0.00000000000E+00  0.91188000000E+02  0.91188000000E+02 0.  0.
    9900012    2    3    3    0    0  0.40862841350E+01 -0.37820693715E+02 -0.20893069890E+02  0.47787274654E+02  0.20000016457E+02 0.  0.
         12    1    3    3    0    0 -0.40862841350E+01  0.37820693715E+02  0.20893069890E+02  0.43400725346E+02  0.00000000000E+00 0. -1.
         11    1    4    4    0    0  0.85612882108E+01 -0.22396478481E+02 -0.62885509916E+01  0.24787976481E+02  0.51100000000E-03 0. -1.
        -11    1    4    4    0    0 -0.41431111654E+01 -0.15642426315E+02 -0.11457675350E+02  0.19827485868E+02  0.51100000000E-03 0.  1.
         12    1    4    4    0    0 -0.33189291041E+00  0.21821108110E+00 -0.31468435486E+01  0.31718123052E+01  0.00000000000E+00 0. -1.
</event>
<event>
 8    1  0.4798632E-010  0.9118800E+02  0.7816164E-02  0.1184000E+00
        -11   -1    0    0    0    0  0.00000000000E+00  0.00000000000E+00  0.45593999997E+02  0.45594000000E+02  0.51100000000E-03 0. -1.
         11   -1    0    0    0    0 -0.00000000000E+00 -0.00000000000E+00 -0.45593999997E+02  0.45594000000E+02  0.51100000000E-03 0.  1.
         23    2    1    2    0    0  0.00000000000E+00  0.00000000000E+00  0.00000000000E+00  0.91188000000E+02  0.91188000000E+02 0.  0.
    9900012    2    3    3    0    0  0.18538181349E+02  0.26317631018E+02 -0.29109129465E+02  0.47787270878E+02  0.19999999240E+02 0.  0.
         12    1    3    3    0    0 -0.18538181349E+02 -0.26317631018E+02  0.29109129465E+02  0.43400729122E+02  0.00000000000E+00 0. -1.
         11    1    4    4    0    0  0.11679764249E+02  0.26468835411E+02 -0.17072668632E+02  0.33593037305E+02  0.51100000000E-03 0. -1.
        -11    1    4    4    0    0  0.44775876913E+01  0.10763203176E+01 -0.92275272452E+01  0.10312832602E+02  0.51100000000E-03 0.  1.
         12    1    4    4    0    0  0.23808294094E+01 -0.12275247103E+01 -0.28089335884E+01  0.38814009707E+01  0.00000000000E+00 0. -1.
</event>
<event>
 8    1  0.4798632E-010  0.9118800E+02  0.7816164E-02  0.1184000E+00
        -11   -1    0    0    0    0  0.00000000000E+00  0.00000000000E+00  0.45593999997E+02  0.45594000000E+02  0.51100000000E-03 0. -1.
         11   -1    0    0    0    0 -0.00000000000E+00 -0.00000000000E+00 -0.45593999997E+02  0.45594000000E+02  0.51100000000E-03 0.  1.
         23    2    1    2    0    0  0.00000000000E+00  0.00000000000E+00  0.00000000000E+00  0.91188000000E+02  0.91188000000E+02 0.  0.
    9900012    2    3    3    0    0 -0.19212245086E+02 -0.31939195735E+02  0.22235137203E+02  0.47787263694E+02  0.19999966487E+02 0.  0.
        -12    1    3    3    0    0  0.19212245086E+02  0.31939195735E+02 -0.22235137203E+02  0.43400736306E+02  0.00000000000E+00 0.  1.
         11    1    4    4    0    0 -0.23549432205E+01 -0.12152674019E+02  0.11194515156E+02  0.16689829634E+02  0.51100000000E-03 0. -1.
        -11    1    4    4    0    0 -0.13154646086E+02 -0.76079366730E+01  0.16627473508E+01  0.15286927196E+02  0.51100000000E-03 0.  1.
         12    1    4    4    0    0 -0.37026557793E+01 -0.12178585044E+02  0.93778746959E+01  0.15810506864E+02  0.00000000000E+00 0. -1.
</event>
<event>
 8    1  0.4798632E-010  0.9118800E+02  0.7816164E-02  0.1184000E+00
        -11   -1    0    0    0    0  0.00000000000E+00  0.00000000000E+00  0.45593999997E+02  0.45594000000E+02  0.51100000000E-03 0. -1.
         11   -1    0    0    0    0 -0.00000000000E+00 -0.00000000000E+00 -0.45593999997E+02  0.45594000000E+02  0.51100000000E-03 0.  1.
         23    2    1    2    0    0  0.00000000000E+00  0.00000000000E+00  0.71054273576E-14  0.91188000000E+02  0.91188000000E+02 0.  0.
    9900012    2    3    3    0    0  0.91975958040E+01  0.53589737441E+01 -0.42075043503E+02  0.47787266666E+02  0.19999980036E+02 0.  0.
         12    1    3    3    0    0 -0.91975958040E+01 -0.53589737441E+01  0.42075043503E+02  0.43400733334E+02  0.00000000000E+00 0. -1.
         11    1    4    4    0    0 -0.54585334372E+01 -0.20729722197E+01 -0.14479479722E+02  0.15612435249E+02  0.51100000000E-03 0. -1.
        -11    1    4    4    0    0  0.76404670798E+01  0.41258960746E+01 -0.12758875189E+02  0.15433361655E+02  0.51100000000E-03 0.  1.
         12    1    4    4    0    0  0.70156621614E+01  0.33060498892E+01 -0.14836688592E+02  0.16741469763E+02  0.00000000000E+00 0. -1.
</event>
<event>
 8    1  0.4798632E-010  0.9118800E+02  0.7816164E-02  0.1184000E+00
        -11   -1    0    0    0    0  0.00000000000E+00  0.00000000000E+00  0.45593999997E+02  0.45594000000E+02  0.51100000000E-03 0. -1.
         11   -1    0    0    0    0 -0.00000000000E+00 -0.00000000000E+00 -0.45593999997E+02  0.45594000000E+02  0.51100000000E-03 0.  1.
         23    2    1    2    0    0  0.13322676296E-14  0.00000000000E+00 -0.71054273576E-14  0.91188000000E+02  0.91188000000E+02 0.  0.
    9900012    2    3    3    0    0 -0.18924443104E+01  0.57338918511E+01  0.42978650841E+02  0.47787270867E+02  0.19999999189E+02 0.  0.
        -12    1    3    3    0    0  0.18924443104E+01 -0.57338918511E+01 -0.42978650841E+02  0.43400729133E+02  0.00000000000E+00 0.  1.
         11    1    4    4    0    0  0.61122864180E+01  0.55807162891E+01  0.14931918359E+02  0.17072393673E+02  0.51100000000E-03 0. -1.
        -11    1    4    4    0    0 -0.73270186599E+01 -0.80402100743E-01  0.87847401743E+01  0.11439551002E+02  0.51100000000E-03 0.  1.
         12    1    4    4    0    0 -0.67771206855E+00  0.23357766273E+00  0.19261992307E+02  0.19275326192E+02  0.00000000000E+00 0. -1.
</event>
<event>
 8    1  0.4798632E-010  0.9118800E+02  0.7816164E-02  0.1184000E+00
        -11   -1    0    0    0    0  0.00000000000E+00  0.00000000000E+00  0.45593999997E+02  0.45594000000E+02  0.51100000000E-03 0.  1.
         11   -1    0    0    0    0 -0.00000000000E+00 -0.00000000000E+00 -0.45593999997E+02  0.45594000000E+02  0.51100000000E-03 0. -1.
         23    2    1    2    0    0 -0.71054273576E-14 -0.13322676296E-14 -0.17763568394E-14  0.91188000000E+02  0.91188000000E+02 0.  0.
    9900012    2    3    3    0    0  0.41446329676E+02 -0.30999223854E+01  0.12498619441E+02  0.47787271316E+02  0.20000001237E+02 0.  0.
        -12    1    3    3    0    0 -0.41446329676E+02  0.30999223854E+01 -0.12498619441E+02  0.43400728684E+02  0.00000000000E+00 0.  1.
         11    1    4    4    0    0  0.15248214771E+02  0.63216413044E+01  0.23803267171E+01  0.16677444590E+02  0.51100000000E-03 0. -1.
        -11    1    4    4    0    0  0.22034866123E+02 -0.10460223982E+02  0.10953916168E+02  0.26738359906E+02  0.51100000000E-03 0.  1.
        -12    1    4    4    0    0  0.41632487813E+01  0.10386602918E+01 -0.83562344393E+00  0.43714668198E+01  0.00000000000E+00 0.  1.
</event>
<event>
 8    1  0.4798632E-010  0.9118800E+02  0.7816164E-02  0.1184000E+00
        -11   -1    0    0    0    0  0.00000000000E+00  0.00000000000E+00  0.45593999997E+02  0.45594000000E+02  0.51100000000E-03 0. -1.
         11   -1    0    0    0    0 -0.00000000000E+00 -0.00000000000E+00 -0.45593999997E+02  0.45594000000E+02  0.51100000000E-03 0.  1.
         23    2    1    2    0    0  0.71054273576E-14  0.00000000000E+00  0.00000000000E+00  0.91188000000E+02  0.91188000000E+02 0.  0.
    9900012    2    3    3    0    0  0.33640055971E+02 -0.81917319554E+01 -0.26169933787E+02  0.47787271059E+02  0.20000000066E+02 0.  0.
         12    1    3    3    0    0 -0.33640055971E+02  0.81917319554E+01  0.26169933787E+02  0.43400728941E+02  0.00000000000E+00 0. -1.
         11    1    4    4    0    0  0.48481559982E+01 -0.85232013744E+01 -0.27038000484E+01  0.10171534457E+02  0.51100000000E-03 0. -1.
        -11    1    4    4    0    0  0.21586573055E+02 -0.17739093336E+01 -0.15266444716E+02  0.26498891017E+02  0.51100000000E-03 0.  1.
         12    1    4    4    0    0  0.72053269184E+01  0.21053787525E+01 -0.81996890228E+01  0.11116845585E+02  0.00000000000E+00 0. -1.
</event>
<event>
 8    1  0.4798632E-010  0.9118800E+02  0.7816164E-02  0.1184000E+00
        -11   -1    0    0    0    0  0.00000000000E+00  0.00000000000E+00  0.45593999997E+02  0.45594000000E+02  0.51100000000E-03 0. -1.
         11   -1    0    0    0    0 -0.00000000000E+00 -0.00000000000E+00 -0.45593999997E+02  0.45594000000E+02  0.51100000000E-03 0.  1.
         23    2    1    2    0    0  0.00000000000E+00  0.00000000000E+00  0.00000000000E+00  0.91188000000E+02  0.91188000000E+02 0.  0.
    9900012    2    3    3    0    0 -0.18135250450E+01 -0.11624820544E+02 -0.41775564942E+02  0.47787272448E+02  0.20000006401E+02 0.  0.
         12    1    3    3    0    0  0.18135250450E+01  0.11624820544E+02  0.41775564942E+02  0.43400727552E+02  0.00000000000E+00 0. -1.
         11    1    4    4    0    0 -0.40100050773E+01  0.19899076384E+01 -0.44220267047E+01  0.62923917208E+01  0.51100000000E-03 0. -1.
        -11    1    4    4    0    0  0.12551871222E+01 -0.13443905839E+02 -0.38008430576E+02  0.40335528930E+02  0.51100000000E-03 0.  1.
        -12    1    4    4    0    0  0.94129291005E+00 -0.17082234357E+00  0.65489233884E+00  0.11593517978E+01  0.00000000000E+00 0.  1.
</event>
<event>
 8    1  0.4798632E-010  0.9118800E+02  0.7816164E-02  0.1184000E+00
        -11   -1    0    0    0    0  0.00000000000E+00  0.00000000000E+00  0.45593999997E+02  0.45594000000E+02  0.51100000000E-03 0.  1.
         11   -1    0    0    0    0 -0.00000000000E+00 -0.00000000000E+00 -0.45593999997E+02  0.45594000000E+02  0.51100000000E-03 0. -1.
         23    2    1    2    0    0  0.00000000000E+00  0.00000000000E+00  0.17763568394E-14  0.91188000000E+02  0.91188000000E+02 0.  0.
    9900012    2    3    3    0    0  0.26357280193E+02  0.32714834190E+02 -0.10892949161E+02  0.47787274929E+02  0.20000017712E+02 0.  0.
         12    1    3    3    0    0 -0.26357280193E+02 -0.32714834190E+02  0.10892949161E+02  0.43400725071E+02  0.00000000000E+00 0. -1.
         11    1    4    4    0    0 -0.38411342388E+00  0.17860921117E+01  0.15293945767E+01  0.23825860292E+01  0.51100000000E-03 0. -1.
        -11    1    4    4    0    0  0.56030887101E+01  0.15552460203E+02 -0.15905131985E+00  0.16531754869E+02  0.51100000000E-03 0.  1.
        -12    1    4    4    0    0  0.21138304907E+02  0.15376281876E+02 -0.12263292418E+02  0.28872934031E+02  0.00000000000E+00 0.  1.
</event>
<event>
 8    1  0.4798632E-010  0.9118800E+02  0.7816164E-02  0.1184000E+00
        -11   -1    0    0    0    0  0.00000000000E+00  0.00000000000E+00  0.45593999997E+02  0.45594000000E+02  0.51100000000E-03 0. -1.
         11   -1    0    0    0    0 -0.00000000000E+00 -0.00000000000E+00 -0.45593999997E+02  0.45594000000E+02  0.51100000000E-03 0.  1.
         23    2    1    2    0    0  0.00000000000E+00  0.35527136788E-14  0.00000000000E+00  0.91188000000E+02  0.91188000000E+02 0.  0.
    9900012    2    3    3    0    0 -0.80602136391E+01  0.22935596278E+02  0.35952945875E+02  0.47787274918E+02  0.20000017662E+02 0.  0.
        -12    1    3    3    0    0  0.80602136391E+01 -0.22935596278E+02 -0.35952945875E+02  0.43400725082E+02  0.00000000000E+00 0.  1.
         11    1    4    4    0    0  0.11723261334E+01 -0.10273958453E+01  0.13382722936E+02  0.13473201707E+02  0.51100000000E-03 0. -1.
        -11    1    4    4    0    0 -0.43134767824E+01  0.15080279549E+02  0.14106477575E+02  0.21095346005E+02  0.51100000000E-03 0.  1.
         12    1    4    4    0    0 -0.49190629901E+01  0.88827125740E+01  0.84637453645E+01  0.13218727207E+02  0.00000000000E+00 0. -1.
</event>
<event>
 8    1  0.4798632E-010  0.9118800E+02  0.7816164E-02  0.1184000E+00
        -11   -1    0    0    0    0  0.00000000000E+00  0.00000000000E+00  0.45593999997E+02  0.45594000000E+02  0.51100000000E-03 0. -1.
         11   -1    0    0    0    0 -0.00000000000E+00 -0.00000000000E+00 -0.45593999997E+02  0.45594000000E+02  0.51100000000E-03 0.  1.
         23    2    1    2    0    0  0.00000000000E+00  0.17763568394E-14  0.00000000000E+00  0.91188000000E+02  0.91188000000E+02 0.  0.
    9900012    2    3    3    0    0 -0.11224326776E+02  0.90458484002E+01 -0.40936661250E+02  0.47787272826E+02  0.20000008125E+02 0.  0.
         12    1    3    3    0    0  0.11224326776E+02 -0.90458484002E+01  0.40936661250E+02  0.43400727174E+02  0.00000000000E+00 0. -1.
         11    1    4    4    0    0 -0.10164023328E+02 -0.42702503668E+01 -0.15581272366E+02  0.19087128051E+02  0.51100000000E-03 0. -1.
        -11    1    4    4    0    0  0.14682470839E+00  0.73104947619E+01 -0.14306457139E+02  0.16066723602E+02  0.51100000000E-03 0.  1.
         12    1    4    4    0    0 -0.12071281561E+01  0.60056040051E+01 -0.11048931745E+02  0.12633421174E+02  0.00000000000E+00 0. -1.
</event>
<event>
 8    1  0.4798632E-010  0.9118800E+02  0.7816164E-02  0.1184000E+00
        -11   -1    0    0    0    0  0.00000000000E+00  0.00000000000E+00  0.45593999997E+02  0.45594000000E+02  0.51100000000E-03 0. -1.
         11   -1    0    0    0    0 -0.00000000000E+00 -0.00000000000E+00 -0.45593999997E+02  0.45594000000E+02  0.51100000000E-03 0.  1.
         23    2    1    2    0    0  0.00000000000E+00  0.00000000000E+00 -0.35527136788E-14  0.91188000000E+02  0.91188000000E+02 0.  0.
    9900012    2    3    3    0    0 -0.30873640833E+02  0.14111308494E+01  0.30470481237E+02  0.47787271718E+02  0.20000003073E+02 0.  0.
        -12    1    3    3    0    0  0.30873640833E+02 -0.14111308494E+01 -0.30470481237E+02  0.43400728282E+02  0.00000000000E+00 0.  1.
         11    1    4    4    0    0 -0.27563105087E+02  0.73127801047E+01  0.28841523242E+02  0.40559030783E+02  0.51100000000E-03 0. -1.
        -11    1    4    4    0    0 -0.45890491244E+00 -0.26928819392E+01  0.38389949971E+00  0.27585477963E+01  0.51100000000E-03 0.  1.
         12    1    4    4    0    0 -0.28516308341E+01 -0.32087673161E+01  0.12450584953E+01  0.44696931393E+01  0.00000000000E+00 0. -1.
</event>
<event>
 8    1  0.4798632E-010  0.9118800E+02  0.7816164E-02  0.1184000E+00
        -11   -1    0    0    0    0  0.00000000000E+00  0.00000000000E+00  0.45593999997E+02  0.45594000000E+02  0.51100000000E-03 0. -1.
         11   -1    0    0    0    0 -0.00000000000E+00 -0.00000000000E+00 -0.45593999997E+02  0.45594000000E+02  0.51100000000E-03 0.  1.
         23    2    1    2    0    0 -0.35527136788E-14  0.17763568394E-14  0.35527136788E-14  0.91188000000E+02  0.91188000000E+02 0.  0.
    9900012    2    3    3    0    0  0.28908777197E+02  0.15095989676E+02  0.28635934136E+02  0.47787273886E+02  0.20000012958E+02 0.  0.
        -12    1    3    3    0    0 -0.28908777197E+02 -0.15095989676E+02 -0.28635934136E+02  0.43400726114E+02  0.00000000000E+00 0.  1.
         11    1    4    4    0    0  0.16788309757E+02  0.55485198133E+01  0.56174406205E+01  0.18552332899E+02  0.51100000000E-03 0. -1.
        -11    1    4    4    0    0 -0.10201783441E+01 -0.75696697625E+00  0.11033548745E+01  0.16826036661E+01  0.51100000000E-03 0.  1.
         12    1    4    4    0    0  0.13140645785E+02  0.10304436839E+02  0.21915138641E+02  0.27552337321E+02  0.00000000000E+00 0. -1.
</event>
<event>
 8    1  0.4798632E-010  0.9118800E+02  0.7816164E-02  0.1184000E+00
        -11   -1    0    0    0    0  0.00000000000E+00  0.00000000000E+00  0.45593999997E+02  0.45594000000E+02  0.51100000000E-03 0. -1.
         11   -1    0    0    0    0 -0.00000000000E+00 -0.00000000000E+00 -0.45593999997E+02  0.45594000000E+02  0.51100000000E-03 0.  1.
         23    2    1    2    0    0  0.00000000000E+00  0.00000000000E+00 -0.17763568394E-14  0.91188000000E+02  0.91188000000E+02 0.  0.
    9900012    2    3    3    0    0  0.83764733031E+01 -0.41248665803E+02 -0.10583266996E+02  0.47787271022E+02  0.19999999896E+02 0.  0.
         12    1    3    3    0    0 -0.83764733031E+01  0.41248665803E+02  0.10583266996E+02  0.43400728978E+02  0.00000000000E+00 0. -1.
         11    1    4    4    0    0 -0.45173320256E+01 -0.15981616427E+02 -0.29397944583E+01  0.16865964069E+02  0.51100000000E-03 0. -1.
        -11    1    4    4    0    0  0.10672247508E+02 -0.11938845692E+02 -0.67552770829E+01  0.17380065363E+02  0.51100000000E-03 0.  1.
        -12    1    4    4    0    0  0.22215578212E+01 -0.13328203684E+02 -0.88819545448E+00  0.13541241589E+02  0.00000000000E+00 0.  1.
</event>
<event>
 8    1  0.4798632E-010  0.9118800E+02  0.7816164E-02  0.1184000E+00
        -11   -1    0    0    0    0  0.00000000000E+00  0.00000000000E+00  0.45593999997E+02  0.45594000000E+02  0.51100000000E-03 0.  1.
         11   -1    0    0    0    0 -0.00000000000E+00 -0.00000000000E+00 -0.45593999997E+02  0.45594000000E+02  0.51100000000E-03 0. -1.
         23    2    1    2    0    0  0.88817841970E-15  0.00000000000E+00  0.00000000000E+00  0.91188000000E+02  0.91188000000E+02 0.  0.
    9900012    2    3    3    0    0 -0.47819925441E+01  0.41848765427E+02 -0.10461201567E+02  0.47787270067E+02  0.19999995546E+02 0.  0.
        -12    1    3    3    0    0  0.47819925441E+01 -0.41848765427E+02  0.10461201567E+02  0.43400729933E+02  0.00000000000E+00 0.  1.
         11    1    4    4    0    0 -0.84794666952E+01  0.29624706282E+02 -0.57749500042E+01  0.31350831338E+02  0.51100000000E-03 0. -1.
        -11    1    4    4    0    0 -0.51443528015E+00  0.90041283909E+01 -0.61743470764E+01  0.10929846011E+02  0.51100000000E-03 0.  1.
         12    1    4    4    0    0  0.42119094313E+01  0.32199307536E+01  0.14880955137E+01  0.55065927190E+01  0.00000000000E+00 0. -1.
</event>
<event>
 8    1  0.4798632E-010  0.9118800E+02  0.7816164E-02  0.1184000E+00
        -11   -1    0    0    0    0  0.00000000000E+00  0.00000000000E+00  0.45593999997E+02  0.45594000000E+02  0.51100000000E-03 0. -1.
         11   -1    0    0    0    0 -0.00000000000E+00 -0.00000000000E+00 -0.45593999997E+02  0.45594000000E+02  0.51100000000E-03 0.  1.
         23    2    1    2    0    0  0.00000000000E+00  0.00000000000E+00  0.00000000000E+00  0.91188000000E+02  0.91188000000E+02 0.  0.
    9900012    2    3    3    0    0  0.18072137767E+02  0.57891803921E+01 -0.39032132205E+02  0.47787261325E+02  0.19999955683E+02 0.  0.
         12    1    3    3    0    0 -0.18072137767E+02 -0.57891803921E+01  0.39032132205E+02  0.43400738675E+02  0.00000000000E+00 0. -1.
         11    1    4    4    0    0  0.15225214082E+01  0.11767684495E+01 -0.22699758868E+02  0.22781174429E+02  0.51100000000E-03 0. -1.
        -11    1    4    4    0    0  0.14937170881E+02  0.26370831626E+01 -0.16546992192E+02  0.22447187628E+02  0.51100000000E-03 0.  1.
        -12    1    4    4    0    0  0.16124454778E+01  0.19753287800E+01  0.21461885532E+00  0.25588992675E+01  0.00000000000E+00 0.  1.
</event>
<event>
 8    1  0.4798632E-010  0.9118800E+02  0.7816164E-02  0.1184000E+00
        -11   -1    0    0    0    0  0.00000000000E+00  0.00000000000E+00  0.45593999997E+02  0.45594000000E+02  0.51100000000E-03 0. -1.
         11   -1    0    0    0    0 -0.00000000000E+00 -0.00000000000E+00 -0.45593999997E+02  0.45594000000E+02  0.51100000000E-03 0.  1.
         23    2    1    2    0    0  0.00000000000E+00  0.35527136788E-14  0.00000000000E+00  0.91188000000E+02  0.91188000000E+02 0.  0.
    9900012    2    3    3    0    0  0.13408437036E+01 -0.25234195097E+02  0.35285424210E+02  0.47787266991E+02  0.19999981519E+02 0.  0.
        -12    1    3    3    0    0 -0.13408437036E+01  0.25234195097E+02 -0.35285424210E+02  0.43400733009E+02  0.00000000000E+00 0.  1.
         11    1    4    4    0    0  0.19638133241E+01 -0.54392054810E+01 -0.75415949323E+00  0.58318329742E+01  0.51100000000E-03 0. -1.
        -11    1    4    4    0    0 -0.12717771539E+01 -0.51439242636E+00  0.39896686050E+00  0.14287027383E+01  0.51100000000E-03 0.  1.
         12    1    4    4    0    0  0.64880753346E+00 -0.19280597190E+02  0.35640616843E+02  0.40526731279E+02  0.00000000000E+00 0. -1.
</event>
<event>
 8    1  0.4798632E-010  0.9118800E+02  0.7816164E-02  0.1184000E+00
        -11   -1    0    0    0    0  0.00000000000E+00  0.00000000000E+00  0.45593999997E+02  0.45594000000E+02  0.51100000000E-03 0. -1.
         11   -1    0    0    0    0 -0.00000000000E+00 -0.00000000000E+00 -0.45593999997E+02  0.45594000000E+02  0.51100000000E-03 0.  1.
         23    2    1    2    0    0  0.71054273576E-14  0.00000000000E+00  0.00000000000E+00  0.91188000000E+02  0.91188000000E+02 0.  0.
    9900012    2    3    3    0    0  0.41686665889E+02  0.10742893720E+02  0.55168009921E+01  0.47787274527E+02  0.20000015876E+02 0.  0.
        -12    1    3    3    0    0 -0.41686665889E+02 -0.10742893720E+02 -0.55168009921E+01  0.43400725473E+02  0.00000000000E+00 0.  1.
         11    1    4    4    0    0  0.38776721119E+02  0.11100351766E+02  0.91527068380E+01  0.41359689950E+02  0.51100000000E-03 0. -1.
        -11    1    4    4    0    0  0.34311812672E+01 -0.14864230804E+01 -0.35893480308E+01  0.51832304608E+01  0.51100000000E-03 0.  1.
         12    1    4    4    0    0 -0.52123649682E+00  0.11289650346E+01 -0.46557815156E-01  0.12443541156E+01  0.00000000000E+00 0. -1.
</event>
<event>
 8    1  0.4798632E-010  0.9118800E+02  0.7816164E-02  0.1184000E+00
        -11   -1    0    0    0    0  0.00000000000E+00  0.00000000000E+00  0.45593999997E+02  0.45594000000E+02  0.51100000000E-03 0. -1.
         11   -1    0    0    0    0 -0.00000000000E+00 -0.00000000000E+00 -0.45593999997E+02  0.45594000000E+02  0.51100000000E-03 0.  1.
         23    2    1    2    0    0  0.00000000000E+00  0.88817841970E-15  0.00000000000E+00  0.91188000000E+02  0.91188000000E+02 0.  0.
    9900012    2    3    3    0    0 -0.34812511931E+02 -0.21269613563E+01  0.25829978042E+02  0.47787277457E+02  0.20000029238E+02 0.  0.
        -12    1    3    3    0    0  0.34812511931E+02  0.21269613563E+01 -0.25829978042E+02  0.43400722543E+02  0.00000000000E+00 0.  1.
         11    1    4    4    0    0 -0.23691554117E+02 -0.68827236356E+01  0.13887310441E+02  0.28311111117E+02  0.51100000000E-03 0. -1.
        -11    1    4    4    0    0 -0.83139785816E+01  0.42289329856E+01  0.25660266827E+01  0.96742238577E+01  0.51100000000E-03 0.  1.
         12    1    4    4    0    0 -0.28069792323E+01  0.52682929371E+00  0.93766409181E+01  0.98019424821E+01  0.00000000000E+00 0. -1.
</event>
<event>
 8    1  0.4798632E-010  0.9118800E+02  0.7816164E-02  0.1184000E+00
        -11   -1    0    0    0    0  0.00000000000E+00  0.00000000000E+00  0.45593999997E+02  0.45594000000E+02  0.51100000000E-03 0.  1.
         11   -1    0    0    0    0 -0.00000000000E+00 -0.00000000000E+00 -0.45593999997E+02  0.45594000000E+02  0.51100000000E-03 0. -1.
         23    2    1    2    0    0  0.71054273576E-14  0.00000000000E+00  0.00000000000E+00  0.91188000000E+02  0.91188000000E+02 0.  0.
    9900012    2    3    3    0    0  0.37655762768E+02 -0.20515473725E+02 -0.66919417441E+01  0.47787271710E+02  0.20000003032E+02 0.  0.
        -12    1    3    3    0    0 -0.37655762768E+02  0.20515473725E+02  0.66919417441E+01  0.43400728290E+02  0.00000000000E+00 0.  1.
         11    1    4    4    0    0  0.61648071455E+01 -0.31211482719E+01 -0.14974335874E+01  0.70702702414E+01  0.51100000000E-03 0. -1.
        -11    1    4    4    0    0  0.12657097276E+02 -0.69416690090E+01 -0.11295444096E+02  0.18329646414E+02  0.51100000000E-03 0.  1.
        -12    1    4    4    0    0  0.18833858347E+02 -0.10452656444E+02  0.61009359394E+01  0.22387355054E+02  0.00000000000E+00 0.  1.
</event>
<event>
 8    1  0.4798632E-010  0.9118800E+02  0.7816164E-02  0.1184000E+00
        -11   -1    0    0    0    0  0.00000000000E+00  0.00000000000E+00  0.45593999997E+02  0.45594000000E+02  0.51100000000E-03 0. -1.
         11   -1    0    0    0    0 -0.00000000000E+00 -0.00000000000E+00 -0.45593999997E+02  0.45594000000E+02  0.51100000000E-03 0.  1.
         23    2    1    2    0    0  0.00000000000E+00 -0.88817841970E-15  0.00000000000E+00  0.91188000000E+02  0.91188000000E+02 0.  0.
    9900012    2    3    3    0    0  0.76870622563E+01 -0.71014449627E+01  0.42120089650E+02  0.47787269605E+02  0.19999993437E+02 0.  0.
        -12    1    3    3    0    0 -0.76870622563E+01  0.71014449627E+01 -0.42120089650E+02  0.43400730395E+02  0.00000000000E+00 0.  1.
         11    1    4    4    0    0  0.33537921083E+01 -0.89844455093E+00  0.24976433564E+02  0.25216608772E+02  0.51100000000E-03 0. -1.
        -11    1    4    4    0    0  0.34632279660E+01 -0.99522224711E+01  0.10396778334E+02  0.14803164528E+02  0.51100000000E-03 0.  1.
         12    1    4    4    0    0  0.87004218203E+00  0.37492220594E+01  0.67468777520E+01  0.77674963051E+01  0.00000000000E+00 0. -1.
</event>
<event>
 8    1  0.4798632E-010  0.9118800E+02  0.7816164E-02  0.1184000E+00
        -11   -1    0    0    0    0  0.00000000000E+00  0.00000000000E+00  0.45593999997E+02  0.45594000000E+02  0.51100000000E-03 0. -1.
         11   -1    0    0    0    0 -0.00000000000E+00 -0.00000000000E+00 -0.45593999997E+02  0.45594000000E+02  0.51100000000E-03 0.  1.
         23    2    1    2    0    0  0.35527136788E-14  0.00000000000E+00 -0.35527136788E-14  0.91188000000E+02  0.91188000000E+02 0.  0.
    9900012    2    3    3    0    0  0.30263062637E+02 -0.23184617832E+02  0.20742302255E+02  0.47787279188E+02  0.20000037128E+02 0.  0.
        -12    1    3    3    0    0 -0.30263062637E+02  0.23184617832E+02 -0.20742302255E+02  0.43400720812E+02  0.00000000000E+00 0.  1.
         11    1    4    4    0    0  0.18420430395E+02 -0.17610762332E+02  0.18989127884E+02  0.31781097903E+02  0.51100000000E-03 0. -1.
        -11    1    4    4    0    0  0.58235880740E+00 -0.36711415199E+01 -0.16833044393E+01  0.40804333025E+01  0.51100000000E-03 0.  1.
         12    1    4    4    0    0  0.11260273435E+02 -0.19027139801E+01  0.34364788099E+01  0.11925747982E+02  0.00000000000E+00 0. -1.
</event>
<event>
 8    1  0.4798632E-010  0.9118800E+02  0.7816164E-02  0.1184000E+00
        -11   -1    0    0    0    0  0.00000000000E+00  0.00000000000E+00  0.45593999997E+02  0.45594000000E+02  0.51100000000E-03 0. -1.
         11   -1    0    0    0    0 -0.00000000000E+00 -0.00000000000E+00 -0.45593999997E+02  0.45594000000E+02  0.51100000000E-03 0.  1.
         23    2    1    2    0    0  0.17763568394E-14 -0.71054273576E-14  0.00000000000E+00  0.91188000000E+02  0.91188000000E+02 0.  0.
    9900012    2    3    3    0    0  0.15702516036E+02 -0.28847868125E+02  0.28369962968E+02  0.47787270697E+02  0.19999998415E+02 0.  0.
        -12    1    3    3    0    0 -0.15702516036E+02  0.28847868125E+02 -0.28369962968E+02  0.43400729303E+02  0.00000000000E+00 0.  1.
         11    1    4    4    0    0 -0.18633748479E+01 -0.11273454506E+02  0.63929281203E+01  0.13093222389E+02  0.51100000000E-03 0. -1.
        -11    1    4    4    0    0  0.14614188485E+02 -0.11624060004E+02  0.20792961003E+02  0.27947101881E+02  0.51100000000E-03 0.  1.
        -12    1    4    4    0    0  0.29517023991E+01 -0.59503536162E+01  0.11840738449E+01  0.67469464264E+01  0.00000000000E+00 0.  1.
</event>
<event>
 8    1  0.4798632E-010  0.9118800E+02  0.7816164E-02  0.1184000E+00
        -11   -1    0    0    0    0  0.00000000000E+00  0.00000000000E+00  0.45593999997E+02  0.45594000000E+02  0.51100000000E-03 0. -1.
         11   -1    0    0    0    0 -0.00000000000E+00 -0.00000000000E+00 -0.45593999997E+02  0.45594000000E+02  0.51100000000E-03 0.  1.
         23    2    1    2    0    0  0.17763568394E-14  0.00000000000E+00  0.00000000000E+00  0.91188000000E+02  0.91188000000E+02 0.  0.
    9900012    2    3    3    0    0  0.61580018710E+01 -0.22130126059E+02 -0.36823357318E+02  0.47787272926E+02  0.20000008578E+02 0.  0.
         12    1    3    3    0    0 -0.61580018710E+01  0.22130126059E+02  0.36823357318E+02  0.43400727074E+02  0.00000000000E+00 0. -1.
         11    1    4    4    0    0  0.40213496707E+01 -0.86746673376E-01 -0.10792778960E+00  0.40237329469E+01  0.51100000000E-03 0. -1.
        -11    1    4    4    0    0 -0.10055519912E+01 -0.19877901288E+02 -0.32162305563E+02  0.37822691520E+02  0.51100000000E-03 0.  1.
        -12    1    4    4    0    0  0.31422041915E+01 -0.21654780970E+01 -0.45531239651E+01  0.59408484588E+01  0.00000000000E+00 0.  1.
</event>
<event>
 8    1  0.4798632E-010  0.9118800E+02  0.7816164E-02  0.1184000E+00
        -11   -1    0    0    0    0  0.00000000000E+00  0.00000000000E+00  0.45593999997E+02  0.45594000000E+02  0.51100000000E-03 0. -1.
         11   -1    0    0    0    0 -0.00000000000E+00 -0.00000000000E+00 -0.45593999997E+02  0.45594000000E+02  0.51100000000E-03 0.  1.
         23    2    1    2    0    0  0.00000000000E+00  0.00000000000E+00  0.00000000000E+00  0.91188000000E+02  0.91188000000E+02 0.  0.
    9900012    2    3    3    0    0  0.30575226776E+02  0.11654925263E+02 -0.28512128169E+02  0.47787271573E+02  0.20000002409E+02 0.  0.
         12    1    3    3    0    0 -0.30575226776E+02 -0.11654925263E+02  0.28512128169E+02  0.43400728427E+02  0.00000000000E+00 0. -1.
         11    1    4    4    0    0 -0.16962006729E+01  0.71767345917E+00  0.84305219772E+00  0.20255589811E+01  0.51100000000E-03 0. -1.
        -11    1    4    4    0    0  0.11535491904E+02  0.75865113239E+01 -0.88003400966E+01  0.16372804085E+02  0.51100000000E-03 0.  1.
         12    1    4    4    0    0  0.20735935544E+02  0.33507404802E+01 -0.20554840270E+02  0.29388908507E+02  0.00000000000E+00 0. -1.
</event>
<event>
 8    1  0.5036479E-010  0.9118800E+02  0.7816164E-02  0.1184000E+00
        -11   -1    0    0    0    0  0.00000000000E+00  0.00000000000E+00  0.45593999997E+02  0.45594000000E+02  0.51100000000E-03 0. -1.
         11   -1    0    0    0    0 -0.00000000000E+00 -0.00000000000E+00 -0.45593999997E+02  0.45594000000E+02  0.51100000000E-03 0.  1.
         23    2    1    2    0    0  0.00000000000E+00  0.00000000000E+00 -0.71054273576E-14  0.91188000000E+02  0.91188000000E+02 0.  0.
    9900012    2    3    3    0    0  0.20301333139E+02 -0.56099098398E+01 -0.37947441948E+02  0.47787267679E+02  0.19999984654E+02 0.  0.
         12    1    3    3    0    0 -0.20301333139E+02  0.56099098398E+01  0.37947441948E+02  0.43400732321E+02  0.00000000000E+00 0. -1.
         11    1    4    4    0    0  0.96165807132E+01 -0.53354169873E+01 -0.77330569050E+01  0.13444161127E+02  0.51100000000E-03 0.  1.
        -11    1    4    4    0    0  0.36737357257E+01  0.58686755986E+01 -0.14586101120E+02  0.16145960288E+02  0.51100000000E-03 0. -1.
        -12    1    4    4    0    0  0.70110166997E+01 -0.61431684512E+01 -0.15628283923E+02  0.18197146264E+02  0.00000000000E+00 0.  1.
</event>
<event>
 8    1  0.4798632E-010  0.9118800E+02  0.7816164E-02  0.1184000E+00
        -11   -1    0    0    0    0  0.00000000000E+00  0.00000000000E+00  0.45593999997E+02  0.45594000000E+02  0.51100000000E-03 0. -1.
         11   -1    0    0    0    0 -0.00000000000E+00 -0.00000000000E+00 -0.45593999997E+02  0.45594000000E+02  0.51100000000E-03 0.  1.
         23    2    1    2    0    0 -0.35527136788E-14  0.00000000000E+00  0.00000000000E+00  0.91188000000E+02  0.91188000000E+02 0.  0.
    9900012    2    3    3    0    0  0.29324116151E+02  0.21955883902E+02  0.23273631528E+02  0.47787233297E+02  0.19999827893E+02 0.  0.
        -12    1    3    3    0    0 -0.29324116151E+02 -0.21955883902E+02 -0.23273631528E+02  0.43400766703E+02  0.00000000000E+00 0.  1.
         11    1    4    4    0    0  0.34537154517E+01  0.46641406461E+01  0.17778496235E+01  0.60698523814E+01  0.51100000000E-03 0. -1.
        -11    1    4    4    0    0  0.94633537111E+01  0.14240972667E+02  0.17685729578E+02  0.24599703188E+02  0.51100000000E-03 0.  1.
        -12    1    4    4    0    0  0.16407046988E+02  0.30507705885E+01  0.38100523264E+01  0.17117677727E+02  0.00000000000E+00 0.  1.
</event>
<event>
 8    1  0.4798632E-010  0.9118800E+02  0.7816164E-02  0.1184000E+00
        -11   -1    0    0    0    0  0.00000000000E+00  0.00000000000E+00  0.45593999997E+02  0.45594000000E+02  0.51100000000E-03 0.  1.
         11   -1    0    0    0    0 -0.00000000000E+00 -0.00000000000E+00 -0.45593999997E+02  0.45594000000E+02  0.51100000000E-03 0. -1.
         23    2    1    2    0    0  0.00000000000E+00  0.00000000000E+00  0.00000000000E+00  0.91188000000E+02  0.91188000000E+02 0.  0.
    9900012    2    3    3    0    0 -0.22284018233E+02  0.37035839529E+02 -0.39233598173E+01  0.47787266936E+02  0.19999981266E+02 0.  0.
         12    1    3    3    0    0  0.22284018233E+02 -0.37035839529E+02  0.39233598173E+01  0.43400733064E+02  0.00000000000E+00 0. -1.
         11    1    4    4    0    0 -0.24506264723E+01  0.99650426386E+01  0.57660392127E+01  0.11770932561E+02  0.51100000000E-03 0. -1.
        -11    1    4    4    0    0 -0.20136555446E+02  0.23724614952E+02 -0.75100795534E+01  0.32011552837E+02  0.51100000000E-03 0.  1.
        -12    1    4    4    0    0  0.30316368480E+00  0.33461819386E+01 -0.21793194765E+01  0.40047815379E+01  0.00000000000E+00 0.  1.
</event>
<event>
 8    1  0.4798632E-010  0.9118800E+02  0.7816164E-02  0.1184000E+00
        -11   -1    0    0    0    0  0.00000000000E+00  0.00000000000E+00  0.45593999997E+02  0.45594000000E+02  0.51100000000E-03 0. -1.
         11   -1    0    0    0    0 -0.00000000000E+00 -0.00000000000E+00 -0.45593999997E+02  0.45594000000E+02  0.51100000000E-03 0.  1.
         23    2    1    2    0    0  0.00000000000E+00  0.17763568394E-14  0.00000000000E+00  0.91188000000E+02  0.91188000000E+02 0.  0.
    9900012    2    3    3    0    0 -0.24885910272E+01 -0.12400755333E+02 -0.41516877891E+02  0.47787274569E+02  0.20000016071E+02 0.  0.
         12    1    3    3    0    0  0.24885910272E+01  0.12400755333E+02  0.41516877891E+02  0.43400725431E+02  0.00000000000E+00 0. -1.
         11    1    4    4    0    0 -0.37426496864E+01  0.36896615807E+01 -0.12088640542E+02  0.13181663767E+02  0.51100000000E-03 0. -1.
        -11    1    4    4    0    0 -0.17277763398E+01 -0.47291342900E+01 -0.15957644933E+02  0.16733091594E+02  0.51100000000E-03 0.  1.
         12    1    4    4    0    0  0.29818349991E+01 -0.11361282624E+02 -0.13470592416E+02  0.17872519208E+02  0.00000000000E+00 0. -1.
</event>
<event>
 8    1  0.4798632E-010  0.9118800E+02  0.7816164E-02  0.1184000E+00
        -11   -1    0    0    0    0  0.00000000000E+00  0.00000000000E+00  0.45593999997E+02  0.45594000000E+02  0.51100000000E-03 0.  1.
         11   -1    0    0    0    0 -0.00000000000E+00 -0.00000000000E+00 -0.45593999997E+02  0.45594000000E+02  0.51100000000E-03 0. -1.
         23    2    1    2    0    0  0.00000000000E+00  0.00000000000E+00  0.22204460493E-15  0.91188000000E+02  0.91188000000E+02 0.  0.
    9900012    2    3    3    0    0 -0.43016252931E+02  0.55577017566E+01  0.15287160554E+01  0.47787273764E+02  0.20000012401E+02 0.  0.
         12    1    3    3    0    0  0.43016252931E+02 -0.55577017566E+01 -0.15287160554E+01  0.43400726236E+02  0.00000000000E+00 0. -1.
         11    1    4    4    0    0 -0.36133056501E+01  0.45257682711E+00 -0.32220540546E+01  0.48623488252E+01  0.51100000000E-03 0. -1.
        -11    1    4    4    0    0 -0.10280575331E+02  0.75391061768E+01 -0.20699414875E+01  0.12915611062E+02  0.51100000000E-03 0.  1.
        -12    1    4    4    0    0 -0.29122371949E+02 -0.24339812473E+01  0.68207115975E+01  0.30009313877E+02  0.00000000000E+00 0.  1.
</event>
<event>
 8    1  0.4798632E-010  0.9118800E+02  0.7816164E-02  0.1184000E+00
        -11   -1    0    0    0    0  0.00000000000E+00  0.00000000000E+00  0.45593999997E+02  0.45594000000E+02  0.51100000000E-03 0. -1.
         11   -1    0    0    0    0 -0.00000000000E+00 -0.00000000000E+00 -0.45593999997E+02  0.45594000000E+02  0.51100000000E-03 0.  1.
         23    2    1    2    0    0  0.35527136788E-14  0.00000000000E+00  0.00000000000E+00  0.91188000000E+02  0.91188000000E+02 0.  0.
    9900012    2    3    3    0    0 -0.19298492746E+02  0.55104698530E+01 -0.38481504365E+02  0.47787270992E+02  0.19999999759E+02 0.  0.
         12    1    3    3    0    0  0.19298492746E+02 -0.55104698530E+01  0.38481504365E+02  0.43400729008E+02  0.00000000000E+00 0. -1.
         11    1    4    4    0    0 -0.40466350985E+01 -0.38359144570E+01 -0.17690507763E+02  0.18548411267E+02  0.51100000000E-03 0. -1.
        -11    1    4    4    0    0 -0.12052661279E+02  0.58908703156E+01 -0.80257221654E+01  0.15632696937E+02  0.51100000000E-03 0.  1.
        -12    1    4    4    0    0 -0.31991963685E+01  0.34555139944E+01 -0.12765274437E+02  0.13606162788E+02  0.00000000000E+00 0.  1.
</event>
<event>
 8    1  0.4798632E-010  0.9118800E+02  0.7816164E-02  0.1184000E+00
        -11   -1    0    0    0    0  0.00000000000E+00  0.00000000000E+00  0.45593999997E+02  0.45594000000E+02  0.51100000000E-03 0. -1.
         11   -1    0    0    0    0 -0.00000000000E+00 -0.00000000000E+00 -0.45593999997E+02  0.45594000000E+02  0.51100000000E-03 0.  1.
         23    2    1    2    0    0  0.00000000000E+00  0.00000000000E+00  0.00000000000E+00  0.91188000000E+02  0.91188000000E+02 0.  0.
    9900012    2    3    3    0    0 -0.99168214594E+01  0.90220184479E+01  0.41278122880E+02  0.47787267366E+02  0.19999983227E+02 0.  0.
        -12    1    3    3    0    0  0.99168214594E+01 -0.90220184479E+01 -0.41278122880E+02  0.43400732634E+02  0.00000000000E+00 0.  1.
         11    1    4    4    0    0 -0.12713265324E+02 -0.49787402472E+00  0.19771084620E+02  0.23511077837E+02  0.51100000000E-03 0. -1.
        -11    1    4    4    0    0  0.37406390891E+01  0.48964484428E+01  0.15182325236E+02  0.16385072108E+02  0.51100000000E-03 0.  1.
         12    1    4    4    0    0 -0.94419522426E+00  0.46234440299E+01  0.63247130240E+01  0.78911174212E+01  0.00000000000E+00 0. -1.
</event>
<event>
 8    1  0.4798632E-010  0.9118800E+02  0.7816164E-02  0.1184000E+00
        -11   -1    0    0    0    0  0.00000000000E+00  0.00000000000E+00  0.45593999997E+02  0.45594000000E+02  0.51100000000E-03 0. -1.
         11   -1    0    0    0    0 -0.00000000000E+00 -0.00000000000E+00 -0.45593999997E+02  0.45594000000E+02  0.51100000000E-03 0.  1.
         23    2    1    2    0    0 -0.17763568394E-14  0.00000000000E+00  0.00000000000E+00  0.91188000000E+02  0.91188000000E+02 0.  0.
    9900012    2    3    3    0    0  0.12320297195E+02  0.19023425947E+02 -0.37012739501E+02  0.47787270247E+02  0.19999996364E+02 0.  0.
         12    1    3    3    0    0 -0.12320297195E+02 -0.19023425947E+02  0.37012739501E+02  0.43400729753E+02  0.00000000000E+00 0. -1.
         11    1    4    4    0    0  0.86222647233E+01  0.21963837409E+02 -0.26513994847E+02  0.35492894017E+02  0.51100000000E-03 0. -1.
        -11    1    4    4    0    0  0.59568073895E+00 -0.72221268465E+00 -0.71740391265E+01  0.72348645014E+01  0.51100000000E-03 0.  1.
         12    1    4    4    0    0  0.31023517323E+01 -0.22181987773E+01 -0.33247055278E+01  0.50595117288E+01  0.00000000000E+00 0. -1.
</event>
<event>
 8    1  0.4798632E-010  0.9118800E+02  0.7816164E-02  0.1184000E+00
        -11   -1    0    0    0    0  0.00000000000E+00  0.00000000000E+00  0.45593999997E+02  0.45594000000E+02  0.51100000000E-03 0. -1.
         11   -1    0    0    0    0 -0.00000000000E+00 -0.00000000000E+00 -0.45593999997E+02  0.45594000000E+02  0.51100000000E-03 0.  1.
         23    2    1    2    0    0  0.00000000000E+00 -0.17763568394E-14  0.00000000000E+00  0.91188000000E+02  0.91188000000E+02 0.  0.
    9900012    2    3    3    0    0 -0.98041021473E+01 -0.13377634384E+02  0.40106632347E+02  0.47787268683E+02  0.19999989232E+02 0.  0.
        -12    1    3    3    0    0  0.98041021473E+01  0.13377634384E+02 -0.40106632347E+02  0.43400731317E+02  0.00000000000E+00 0.  1.
         11    1    4    4    0    0 -0.24190408029E+01  0.20284659399E+01  0.19794802650E+02  0.20044965570E+02  0.51100000000E-03 0. -1.
        -11    1    4    4    0    0  0.21106001010E+00 -0.81503278528E+01  0.67283050129E+01  0.10570831521E+02  0.51100000000E-03 0.  1.
         12    1    4    4    0    0 -0.75961213544E+01 -0.72557724712E+01  0.13583524685E+02  0.17171471592E+02  0.00000000000E+00 0. -1.
</event>
<event>
 8    1  0.4798632E-010  0.9118800E+02  0.7816164E-02  0.1184000E+00
        -11   -1    0    0    0    0  0.00000000000E+00  0.00000000000E+00  0.45593999997E+02  0.45594000000E+02  0.51100000000E-03 0. -1.
         11   -1    0    0    0    0 -0.00000000000E+00 -0.00000000000E+00 -0.45593999997E+02  0.45594000000E+02  0.51100000000E-03 0.  1.
         23    2    1    2    0    0  0.17763568394E-14  0.17763568394E-14  0.00000000000E+00  0.91188000000E+02  0.91188000000E+02 0.  0.
    9900012    2    3    3    0    0  0.12154380388E+02  0.15406197172E+02 -0.38711017760E+02  0.47787276850E+02  0.20000026470E+02 0.  0.
         12    1    3    3    0    0 -0.12154380388E+02 -0.15406197172E+02  0.38711017760E+02  0.43400723150E+02  0.00000000000E+00 0. -1.
         11    1    4    4    0    0  0.47494687062E+01 -0.10712854842E+01 -0.15572315086E+02  0.16315701118E+02  0.51100000000E-03 0. -1.
        -11    1    4    4    0    0 -0.78140737687E+00  0.66080526552E+01 -0.23703645219E+01  0.70636807410E+01  0.51100000000E-03 0.  1.
        -12    1    4    4    0    0  0.81863190584E+01  0.98694300005E+01 -0.20768338153E+02  0.24407894991E+02  0.00000000000E+00 0.  1.
</event>
<event>
 8    1  0.4798632E-010  0.9118800E+02  0.7816164E-02  0.1184000E+00
        -11   -1    0    0    0    0  0.00000000000E+00  0.00000000000E+00  0.45593999997E+02  0.45594000000E+02  0.51100000000E-03 0. -1.
         11   -1    0    0    0    0 -0.00000000000E+00 -0.00000000000E+00 -0.45593999997E+02  0.45594000000E+02  0.51100000000E-03 0.  1.
         23    2    1    2    0    0 -0.17763568394E-14  0.00000000000E+00  0.00000000000E+00  0.91188000000E+02  0.91188000000E+02 0.  0.
    9900012    2    3    3    0    0 -0.89168828422E+01  0.14390729599E+02  0.39962726118E+02  0.47787269859E+02  0.19999994596E+02 0.  0.
        -12    1    3    3    0    0  0.89168828422E+01 -0.14390729599E+02 -0.39962726118E+02  0.43400730141E+02  0.00000000000E+00 0.  1.
         11    1    4    4    0    0 -0.39502558835E+01  0.15636601246E+02  0.27389729524E+02  0.31785296974E+02  0.51100000000E-03 0. -1.
        -11    1    4    4    0    0 -0.21368323286E+00 -0.27222153764E+01  0.10064981104E+02  0.10428804436E+02  0.51100000000E-03 0.  1.
         12    1    4    4    0    0 -0.47529437259E+01  0.14763437291E+01  0.25080154897E+01  0.55731684493E+01  0.00000000000E+00 0. -1.
</event>
<event>
 8    1  0.4798632E-010  0.9118800E+02  0.7816164E-02  0.1184000E+00
        -11   -1    0    0    0    0  0.00000000000E+00  0.00000000000E+00  0.45593999997E+02  0.45594000000E+02  0.51100000000E-03 0. -1.
         11   -1    0    0    0    0 -0.00000000000E+00 -0.00000000000E+00 -0.45593999997E+02  0.45594000000E+02  0.51100000000E-03 0.  1.
         23    2    1    2    0    0  0.17763568394E-14 -0.17763568394E-14 -0.71054273576E-14  0.91188000000E+02  0.91188000000E+02 0.  0.
    9900012    2    3    3    0    0 -0.11325072216E+02  0.88952330616E+01  0.40941922800E+02  0.47787268734E+02  0.19999989464E+02 0.  0.
        -12    1    3    3    0    0  0.11325072216E+02 -0.88952330616E+01 -0.40941922800E+02  0.43400731266E+02  0.00000000000E+00 0.  1.
         11    1    4    4    0    0 -0.43557282706E+00  0.26537634639E+01  0.52588359146E+01  0.59065675013E+01  0.51100000000E-03 0. -1.
        -11    1    4    4    0    0  0.41511721273E+01 -0.15907560314E+01  0.11631327226E+02  0.12451927886E+02  0.51100000000E-03 0.  1.
        -12    1    4    4    0    0 -0.15040671516E+02  0.78322256291E+01  0.24051759659E+02  0.29428773346E+02  0.00000000000E+00 0.  1.
</event>
<event>
 8    1  0.4798632E-010  0.9118800E+02  0.7816164E-02  0.1184000E+00
        -11   -1    0    0    0    0  0.00000000000E+00  0.00000000000E+00  0.45593999997E+02  0.45594000000E+02  0.51100000000E-03 0. -1.
         11   -1    0    0    0    0 -0.00000000000E+00 -0.00000000000E+00 -0.45593999997E+02  0.45594000000E+02  0.51100000000E-03 0.  1.
         23    2    1    2    0    0  0.00000000000E+00 -0.71054273576E-14  0.00000000000E+00  0.91188000000E+02  0.91188000000E+02 0.  0.
    9900012    2    3    3    0    0 -0.23103584701E+02 -0.32423107095E+02  0.17279751024E+02  0.47787270799E+02  0.19999998879E+02 0.  0.
        -12    1    3    3    0    0  0.23103584701E+02  0.32423107095E+02 -0.17279751024E+02  0.43400729201E+02  0.00000000000E+00 0.  1.
         11    1    4    4    0    0 -0.15848060204E+02 -0.83110118302E+01  0.75581095421E+01  0.19425729072E+02  0.51100000000E-03 0. -1.
        -11    1    4    4    0    0 -0.35044889318E+01 -0.10621145995E+02 -0.22333588879E+00  0.11186601990E+02  0.51100000000E-03 0.  1.
         12    1    4    4    0    0 -0.37510355656E+01 -0.13490949271E+02  0.99449773707E+01  0.17174939736E+02  0.00000000000E+00 0. -1.
</event>
<event>
 8    1  0.4798632E-010  0.9118800E+02  0.7816164E-02  0.1184000E+00
        -11   -1    0    0    0    0  0.00000000000E+00  0.00000000000E+00  0.45593999997E+02  0.45594000000E+02  0.51100000000E-03 0. -1.
         11   -1    0    0    0    0 -0.00000000000E+00 -0.00000000000E+00 -0.45593999997E+02  0.45594000000E+02  0.51100000000E-03 0.  1.
         23    2    1    2    0    0  0.00000000000E+00  0.00000000000E+00  0.00000000000E+00  0.91188000000E+02  0.91188000000E+02 0.  0.
    9900012    2    3    3    0    0 -0.20403560500E+02  0.28604077422E+01 -0.38198639965E+02  0.47787270643E+02  0.19999998170E+02 0.  0.
         12    1    3    3    0    0  0.20403560500E+02 -0.28604077422E+01  0.38198639965E+02  0.43400729357E+02  0.00000000000E+00 0. -1.
         11    1    4    4    0    0 -0.53212728766E+01 -0.31310631548E+01 -0.76935060269E+01  0.98645596330E+01  0.51100000000E-03 0.  1.
        -11    1    4    4    0    0 -0.15098535824E+02  0.52982290705E+01 -0.13590240541E+02  0.20993609826E+02  0.51100000000E-03 0. -1.
        -12    1    4    4    0    0  0.16248200993E-01  0.69324182653E+00 -0.16914893398E+02  0.16929101184E+02  0.00000000000E+00 0.  1.
</event>
<event>
 8    1  0.4798632E-010  0.9118800E+02  0.7816164E-02  0.1184000E+00
        -11   -1    0    0    0    0  0.00000000000E+00  0.00000000000E+00  0.45593999997E+02  0.45594000000E+02  0.51100000000E-03 0.  1.
         11   -1    0    0    0    0 -0.00000000000E+00 -0.00000000000E+00 -0.45593999997E+02  0.45594000000E+02  0.51100000000E-03 0. -1.
         23    2    1    2    0    0  0.00000000000E+00  0.00000000000E+00  0.00000000000E+00  0.91188000000E+02  0.91188000000E+02 0.  0.
    9900012    2    3    3    0    0 -0.27387408261E+02  0.28288912973E+02  0.18256254864E+02  0.47787267632E+02  0.19999984441E+02 0.  0.
        -12    1    3    3    0    0  0.27387408261E+02 -0.28288912973E+02 -0.18256254864E+02  0.43400732368E+02  0.00000000000E+00 0.  1.
         11    1    4    4    0    0 -0.27292231054E+01  0.15894169776E+02  0.93914584342E+01  0.18662068037E+02  0.51100000000E-03 0.  1.
        -11    1    4    4    0    0 -0.17858122415E+02  0.93284995277E+01  0.51682226485E+01  0.20800095317E+02  0.51100000000E-03 0. -1.
         12    1    4    4    0    0 -0.68000627405E+01  0.30662436694E+01  0.36965737812E+01  0.83251042778E+01  0.00000000000E+00 0. -1.
</event>
<event>
 8    1  0.4798632E-010  0.9118800E+02  0.7816164E-02  0.1184000E+00
        -11   -1    0    0    0    0  0.00000000000E+00  0.00000000000E+00  0.45593999997E+02  0.45594000000E+02  0.51100000000E-03 0.  1.
         11   -1    0    0    0    0 -0.00000000000E+00 -0.00000000000E+00 -0.45593999997E+02  0.45594000000E+02  0.51100000000E-03 0. -1.
         23    2    1    2    0    0  0.00000000000E+00 -0.35527136788E-14  0.35527136788E-14  0.91188000000E+02  0.91188000000E+02 0.  0.
    9900012    2    3    3    0    0 -0.12339322888E+02 -0.31602625731E+02  0.27067290603E+02  0.47787273473E+02  0.20000011075E+02 0.  0.
         12    1    3    3    0    0  0.12339322888E+02  0.31602625731E+02 -0.27067290603E+02  0.43400726527E+02  0.00000000000E+00 0. -1.
         11    1    4    4    0    0  0.21225351577E+01 -0.21933173703E+01  0.63706820541E+01  0.70640913554E+01  0.51100000000E-03 0. -1.
        -11    1    4    4    0    0 -0.11665472206E+02 -0.14470403422E+02  0.58729690348E+01  0.19492757181E+02  0.51100000000E-03 0.  1.
         12    1    4    4    0    0 -0.27963858392E+01 -0.14938904939E+02  0.14823639514E+02  0.21230424937E+02  0.00000000000E+00 0. -1.
</event>
<event>
 8    1  0.4798632E-010  0.9118800E+02  0.7816164E-02  0.1184000E+00
        -11   -1    0    0    0    0  0.00000000000E+00  0.00000000000E+00  0.45593999997E+02  0.45594000000E+02  0.51100000000E-03 0.  1.
         11   -1    0    0    0    0 -0.00000000000E+00 -0.00000000000E+00 -0.45593999997E+02  0.45594000000E+02  0.51100000000E-03 0. -1.
         23    2    1    2    0    0 -0.71054273576E-14  0.00000000000E+00  0.00000000000E+00  0.91188000000E+02  0.91188000000E+02 0.  0.
    9900012    2    3    3    0    0 -0.43191459706E+02  0.41406636027E+01  0.98785341096E+00  0.47787272576E+02  0.20000006981E+02 0.  0.
        -12    1    3    3    0    0  0.43191459706E+02 -0.41406636027E+01 -0.98785341096E+00  0.43400727424E+02  0.00000000000E+00 0.  1.
         11    1    4    4    0    0 -0.18859745271E+02 -0.30109343017E+01 -0.34558908678E+01  0.19408732546E+02  0.51100000000E-03 0. -1.
        -11    1    4    4    0    0 -0.12409400534E+02  0.97972781740E+01  0.22315763247E+01  0.15967461112E+02  0.51100000000E-03 0.  1.
        -12    1    4    4    0    0 -0.11922313901E+02 -0.26456802696E+01  0.22121679541E+01  0.12411078918E+02  0.00000000000E+00 0.  1.
</event>
<event>
 8    1  0.4798632E-010  0.9118800E+02  0.7816164E-02  0.1184000E+00
        -11   -1    0    0    0    0  0.00000000000E+00  0.00000000000E+00  0.45593999997E+02  0.45594000000E+02  0.51100000000E-03 0. -1.
         11   -1    0    0    0    0 -0.00000000000E+00 -0.00000000000E+00 -0.45593999997E+02  0.45594000000E+02  0.51100000000E-03 0.  1.
         23    2    1    2    0    0  0.00000000000E+00  0.00000000000E+00  0.00000000000E+00  0.91188000000E+02  0.91188000000E+02 0.  0.
    9900012    2    3    3    0    0  0.23975821947E+02  0.12033123174E+02 -0.34117256531E+02  0.47787270922E+02  0.19999999440E+02 0.  0.
         12    1    3    3    0    0 -0.23975821947E+02 -0.12033123174E+02  0.34117256531E+02  0.43400729078E+02  0.00000000000E+00 0. -1.
         11    1    4    4    0    0  0.68131898182E+01  0.97183189572E+01 -0.18978199273E+02  0.22383863089E+02  0.51100000000E-03 0. -1.
        -11    1    4    4    0    0  0.50011668999E+01  0.55659744974E+01 -0.79026597511E+01  0.10883187670E+02  0.51100000000E-03 0.  1.
         12    1    4    4    0    0  0.12161465229E+02 -0.32511702802E+01 -0.72363975064E+01  0.14520220163E+02  0.00000000000E+00 0. -1.
</event>
<event>
 8    1  0.4798632E-010  0.9118800E+02  0.7816164E-02  0.1184000E+00
        -11   -1    0    0    0    0  0.00000000000E+00  0.00000000000E+00  0.45593999997E+02  0.45594000000E+02  0.51100000000E-03 0. -1.
         11   -1    0    0    0    0 -0.00000000000E+00 -0.00000000000E+00 -0.45593999997E+02  0.45594000000E+02  0.51100000000E-03 0.  1.
         23    2    1    2    0    0  0.35527136788E-14  0.00000000000E+00  0.00000000000E+00  0.91188000000E+02  0.91188000000E+02 0.  0.
    9900012    2    3    3    0    0  0.23877348140E+02 -0.12969804233E+02 -0.33841978943E+02  0.47787272876E+02  0.20000008353E+02 0.  0.
         12    1    3    3    0    0 -0.23877348140E+02  0.12969804233E+02  0.33841978943E+02  0.43400727124E+02  0.00000000000E+00 0. -1.
         11    1    4    4    0    0  0.18438007317E+02 -0.12390823238E+00 -0.18749970418E+02  0.26297088394E+02  0.51100000000E-03 0. -1.
        -11    1    4    4    0    0  0.24664050563E+01 -0.81606741667E+01 -0.13028868899E+02  0.15570201726E+02  0.51100000000E-03 0.  1.
         12    1    4    4    0    0  0.29729357672E+01 -0.46852218342E+01 -0.20631396258E+01  0.59199827556E+01  0.00000000000E+00 0. -1.
</event>
<event>
 8    1  0.4798632E-010  0.9118800E+02  0.7816164E-02  0.1184000E+00
        -11   -1    0    0    0    0  0.00000000000E+00  0.00000000000E+00  0.45593999997E+02  0.45594000000E+02  0.51100000000E-03 0. -1.
         11   -1    0    0    0    0 -0.00000000000E+00 -0.00000000000E+00 -0.45593999997E+02  0.45594000000E+02  0.51100000000E-03 0.  1.
         23    2    1    2    0    0  0.35527136788E-14  0.88817841970E-15  0.00000000000E+00  0.91188000000E+02  0.91188000000E+02 0.  0.
    9900012    2    3    3    0    0  0.26039179692E+02  0.66347579077E+01  0.34081731566E+02  0.47787270535E+02  0.19999997677E+02 0.  0.
        -12    1    3    3    0    0 -0.26039179692E+02 -0.66347579077E+01 -0.34081731566E+02  0.43400729465E+02  0.00000000000E+00 0.  1.
         11    1    4    4    0    0  0.90395129696E+00 -0.19415945281E+00  0.77770912449E+01  0.78318563785E+01  0.51100000000E-03 0. -1.
        -11    1    4    4    0    0  0.30588665290E+01  0.71074469433E+01  0.92349959552E+01  0.12048137493E+02  0.51100000000E-03 0.  1.
        -12    1    4    4    0    0  0.22076361866E+02 -0.27852958273E+00  0.17069644366E+02  0.27907276663E+02  0.00000000000E+00 0.  1.
</event>
<event>
 8    1  0.4798632E-010  0.9118800E+02  0.7816164E-02  0.1184000E+00
        -11   -1    0    0    0    0  0.00000000000E+00  0.00000000000E+00  0.45593999997E+02  0.45594000000E+02  0.51100000000E-03 0. -1.
         11   -1    0    0    0    0 -0.00000000000E+00 -0.00000000000E+00 -0.45593999997E+02  0.45594000000E+02  0.51100000000E-03 0.  1.
         23    2    1    2    0    0  0.00000000000E+00  0.00000000000E+00  0.35527136788E-14  0.91188000000E+02  0.91188000000E+02 0.  0.
    9900012    2    3    3    0    0 -0.84365015760E+01 -0.30538019428E+02 -0.29662745753E+02  0.47787266423E+02  0.19999978928E+02 0.  0.
         12    1    3    3    0    0  0.84365015760E+01  0.30538019428E+02  0.29662745753E+02  0.43400733577E+02  0.00000000000E+00 0. -1.
         11    1    4    4    0    0  0.34959082660E+01 -0.22881943049E+01 -0.70119176289E+01  0.81623646621E+01  0.51100000000E-03 0. -1.
        -11    1    4    4    0    0 -0.50525701225E+01 -0.17605966223E+02 -0.72984963231E+01  0.19717164105E+02  0.51100000000E-03 0.  1.
         12    1    4    4    0    0 -0.68798397196E+01 -0.10643858899E+02 -0.15352331801E+02  0.19907737656E+02  0.00000000000E+00 0. -1.
</event>
<event>
 8    1  0.4798632E-010  0.9118800E+02  0.7816164E-02  0.1184000E+00
        -11   -1    0    0    0    0  0.00000000000E+00  0.00000000000E+00  0.45593999997E+02  0.45594000000E+02  0.51100000000E-03 0. -1.
         11   -1    0    0    0    0 -0.00000000000E+00 -0.00000000000E+00 -0.45593999997E+02  0.45594000000E+02  0.51100000000E-03 0.  1.
         23    2    1    2    0    0  0.00000000000E+00 -0.71054273576E-14  0.00000000000E+00  0.91188000000E+02  0.91188000000E+02 0.  0.
    9900012    2    3    3    0    0 -0.89318315313E+01  0.25459916714E+02 -0.33994678892E+02  0.47787272281E+02  0.20000005637E+02 0.  0.
         12    1    3    3    0    0  0.89318315313E+01 -0.25459916714E+02  0.33994678892E+02  0.43400727719E+02  0.00000000000E+00 0. -1.
         11    1    4    4    0    0  0.43664318841E+01  0.89654342966E+01 -0.10044881268E+02  0.14154306040E+02  0.51100000000E-03 0. -1.
        -11    1    4    4    0    0 -0.29713918844E+01  0.11826628750E+02 -0.10975638825E+02  0.16406186796E+02  0.51100000000E-03 0.  1.
         12    1    4    4    0    0 -0.10326871531E+02  0.46678536673E+01 -0.12974158800E+02  0.17226779445E+02  0.00000000000E+00 0. -1.
</event>
<event>
 8    1  0.4798632E-010  0.9118800E+02  0.7816164E-02  0.1184000E+00
        -11   -1    0    0    0    0  0.00000000000E+00  0.00000000000E+00  0.45593999997E+02  0.45594000000E+02  0.51100000000E-03 0. -1.
         11   -1    0    0    0    0 -0.00000000000E+00 -0.00000000000E+00 -0.45593999997E+02  0.45594000000E+02  0.51100000000E-03 0.  1.
         23    2    1    2    0    0 -0.35527136788E-14  0.00000000000E+00  0.00000000000E+00  0.91188000000E+02  0.91188000000E+02 0.  0.
    9900012    2    3    3    0    0 -0.31729588071E+02 -0.13080525448E+02  0.26566075366E+02  0.47787271141E+02  0.20000000439E+02 0.  0.
        -12    1    3    3    0    0  0.31729588071E+02  0.13080525448E+02 -0.26566075366E+02  0.43400728859E+02  0.00000000000E+00 0.  1.
         11    1    4    4    0    0 -0.15448854639E+02  0.96116175033E+00  0.10737246717E+02  0.18838243254E+02  0.51100000000E-03 0. -1.
        -11    1    4    4    0    0 -0.21204445290E+01  0.19435102023E+01  0.16602936679E+01  0.33211582666E+01  0.51100000000E-03 0.  1.
         12    1    4    4    0    0 -0.14160288903E+02 -0.15985197401E+02  0.14168534981E+02  0.25627869620E+02  0.00000000000E+00 0. -1.
</event>
<event>
 8    1  0.4798632E-010  0.9118800E+02  0.7816164E-02  0.1184000E+00
        -11   -1    0    0    0    0  0.00000000000E+00  0.00000000000E+00  0.45593999997E+02  0.45594000000E+02  0.51100000000E-03 0. -1.
         11   -1    0    0    0    0 -0.00000000000E+00 -0.00000000000E+00 -0.45593999997E+02  0.45594000000E+02  0.51100000000E-03 0.  1.
         23    2    1    2    0    0  0.00000000000E+00  0.00000000000E+00  0.35527136788E-14  0.91188000000E+02  0.91188000000E+02 0.  0.
    9900012    2    3    3    0    0  0.32940791862E+02 -0.17642200554E+02  0.22074423050E+02  0.47787272335E+02  0.20000005882E+02 0.  0.
        -12    1    3    3    0    0 -0.32940791862E+02  0.17642200554E+02 -0.22074423050E+02  0.43400727665E+02  0.00000000000E+00 0.  1.
         11    1    4    4    0    0  0.16984450716E+02 -0.26103094757E+01  0.17463104319E+02  0.24499903967E+02  0.51100000000E-03 0. -1.
        -11    1    4    4    0    0  0.13588591779E+02 -0.89245222595E+01  0.37123696724E+01  0.16675689279E+02  0.51100000000E-03 0.  1.
        -12    1    4    4    0    0  0.23677493678E+01 -0.61073688186E+01  0.89894905821E+00  0.66116790881E+01  0.00000000000E+00 0.  1.
</event>
<event>
 8    1  0.4798632E-010  0.9118800E+02  0.7816164E-02  0.1184000E+00
        -11   -1    0    0    0    0  0.00000000000E+00  0.00000000000E+00  0.45593999997E+02  0.45594000000E+02  0.51100000000E-03 0. -1.
         11   -1    0    0    0    0 -0.00000000000E+00 -0.00000000000E+00 -0.45593999997E+02  0.45594000000E+02  0.51100000000E-03 0.  1.
         23    2    1    2    0    0 -0.35527136788E-14  0.00000000000E+00  0.00000000000E+00  0.91188000000E+02  0.91188000000E+02 0.  0.
    9900012    2    3    3    0    0  0.21829428224E+02 -0.17350110182E+02  0.33257674300E+02  0.47787272359E+02  0.20000005995E+02 0.  0.
        -12    1    3    3    0    0 -0.21829428224E+02  0.17350110182E+02 -0.33257674300E+02  0.43400727641E+02  0.00000000000E+00 0.  1.
         11    1    4    4    0    0  0.92728564532E+01 -0.54167023226E+01  0.16541318413E+02  0.19721606069E+02  0.51100000000E-03 0. -1.
        -11    1    4    4    0    0  0.77674616148E+00  0.21373569437E+01 -0.10668543746E+01  0.25119330847E+01  0.51100000000E-03 0.  1.
        -12    1    4    4    0    0  0.11779825609E+02 -0.14070764803E+02  0.17783210262E+02  0.25553733206E+02  0.00000000000E+00 0.  1.
</event>
<event>
 8    1  0.4798632E-010  0.9118800E+02  0.7816164E-02  0.1184000E+00
        -11   -1    0    0    0    0  0.00000000000E+00  0.00000000000E+00  0.45593999997E+02  0.45594000000E+02  0.51100000000E-03 0. -1.
         11   -1    0    0    0    0 -0.00000000000E+00 -0.00000000000E+00 -0.45593999997E+02  0.45594000000E+02  0.51100000000E-03 0.  1.
         23    2    1    2    0    0  0.00000000000E+00  0.00000000000E+00  0.00000000000E+00  0.91188000000E+02  0.91188000000E+02 0.  0.
    9900012    2    3    3    0    0 -0.12467822521E+02  0.94162145297E+01 -0.40490882815E+02  0.47787270909E+02  0.19999999383E+02 0.  0.
         12    1    3    3    0    0  0.12467822521E+02 -0.94162145297E+01  0.40490882815E+02  0.43400729091E+02  0.00000000000E+00 0. -1.
         11    1    4    4    0    0 -0.88225043905E+01 -0.24477887927E+01 -0.12417475306E+02  0.15427959908E+02  0.51100000000E-03 0.  1.
        -11    1    4    4    0    0  0.33108056727E+01  0.26008644025E+01 -0.10485731693E+02  0.11299402606E+02  0.51100000000E-03 0. -1.
        -12    1    4    4    0    0 -0.69561238029E+01  0.92631389199E+01 -0.17587675816E+02  0.21059908395E+02  0.00000000000E+00 0.  1.
</event>
<event>
 8    1  0.4798632E-010  0.9118800E+02  0.7816164E-02  0.1184000E+00
        -11   -1    0    0    0    0  0.00000000000E+00  0.00000000000E+00  0.45593999997E+02  0.45594000000E+02  0.51100000000E-03 0. -1.
         11   -1    0    0    0    0 -0.00000000000E+00 -0.00000000000E+00 -0.45593999997E+02  0.45594000000E+02  0.51100000000E-03 0.  1.
         23    2    1    2    0    0  0.00000000000E+00  0.00000000000E+00  0.71054273576E-14  0.91188000000E+02  0.91188000000E+02 0.  0.
    9900012    2    3    3    0    0 -0.10456636090E+02 -0.26960608518E+02 -0.32363670538E+02  0.47787276265E+02  0.20000023805E+02 0.  0.
         12    1    3    3    0    0  0.10456636090E+02  0.26960608518E+02  0.32363670538E+02  0.43400723735E+02  0.00000000000E+00 0. -1.
         11    1    4    4    0    0 -0.10619051560E+02 -0.13344780691E+02 -0.84670748918E+01  0.19040451287E+02  0.51100000000E-03 0. -1.
        -11    1    4    4    0    0 -0.35398430625E+01 -0.28664109665E+01 -0.57912986513E+01  0.73678993659E+01  0.51100000000E-03 0.  1.
         12    1    4    4    0    0  0.37022585322E+01 -0.10749416861E+02 -0.18105296995E+02  0.21378925613E+02  0.00000000000E+00 0. -1.
</event>
<event>
 8    1  0.4798632E-010  0.9118800E+02  0.7816164E-02  0.1184000E+00
        -11   -1    0    0    0    0  0.00000000000E+00  0.00000000000E+00  0.45593999997E+02  0.45594000000E+02  0.51100000000E-03 0. -1.
         11   -1    0    0    0    0 -0.00000000000E+00 -0.00000000000E+00 -0.45593999997E+02  0.45594000000E+02  0.51100000000E-03 0.  1.
         23    2    1    2    0    0  0.00000000000E+00  0.71054273576E-14  0.00000000000E+00  0.91188000000E+02  0.91188000000E+02 0.  0.
    9900012    2    3    3    0    0  0.13277168840E+02  0.25242587846E+02 -0.32713175804E+02  0.47787270459E+02  0.19999997330E+02 0.  0.
         12    1    3    3    0    0 -0.13277168840E+02 -0.25242587846E+02  0.32713175804E+02  0.43400729541E+02  0.00000000000E+00 0. -1.
         11    1    4    4    0    0  0.35787098627E+01 -0.26343948355E+01 -0.44380802349E+01  0.62804264873E+01  0.51100000000E-03 0. -1.
        -11    1    4    4    0    0  0.78270089403E+01  0.18437968402E+02 -0.14605559034E+02  0.24789979886E+02  0.51100000000E-03 0.  1.
         12    1    4    4    0    0  0.18714500367E+01  0.94390142791E+01 -0.13669536534E+02  0.16716864086E+02  0.00000000000E+00 0. -1.
</event>
<event>
 8    1  0.4798632E-010  0.9118800E+02  0.7816164E-02  0.1184000E+00
        -11   -1    0    0    0    0  0.00000000000E+00  0.00000000000E+00  0.45593999997E+02  0.45594000000E+02  0.51100000000E-03 0.  1.
         11   -1    0    0    0    0 -0.00000000000E+00 -0.00000000000E+00 -0.45593999997E+02  0.45594000000E+02  0.51100000000E-03 0. -1.
         23    2    1    2    0    0  0.44408920985E-15  0.00000000000E+00 -0.88817841970E-15  0.91188000000E+02  0.91188000000E+02 0.  0.
    9900012    2    3    3    0    0 -0.26906976584E+01 -0.42932332828E+02  0.57617797053E+01  0.47787272341E+02  0.20000005914E+02 0.  0.
        -12    1    3    3    0    0  0.26906976584E+01  0.42932332828E+02 -0.57617797053E+01  0.43400727659E+02  0.00000000000E+00 0.  1.
         11    1    4    4    0    0 -0.34485615667E+01 -0.33329249793E+02  0.29212629514E+01  0.33634286765E+02  0.51100000000E-03 0. -1.
        -11    1    4    4    0    0  0.46293414888E+01 -0.15612911612E+01  0.16066087951E+01  0.51429198703E+01  0.51100000000E-03 0.  1.
         12    1    4    4    0    0 -0.38714775805E+01 -0.80417918731E+01  0.12339079589E+01  0.90100657066E+01  0.00000000000E+00 0. -1.
</event>
<event>
 8    1  0.4798632E-010  0.9118800E+02  0.7816164E-02  0.1184000E+00
        -11   -1    0    0    0    0  0.00000000000E+00  0.00000000000E+00  0.45593999997E+02  0.45594000000E+02  0.51100000000E-03 0. -1.
         11   -1    0    0    0    0 -0.00000000000E+00 -0.00000000000E+00 -0.45593999997E+02  0.45594000000E+02  0.51100000000E-03 0.  1.
         23    2    1    2    0    0  0.00000000000E+00  0.35527136788E-14  0.00000000000E+00  0.91188000000E+02  0.91188000000E+02 0.  0.
    9900012    2    3    3    0    0  0.44819790157E+01 -0.23928386286E+02  0.35930032026E+02  0.47787274113E+02  0.20000013992E+02 0.  0.
        -12    1    3    3    0    0 -0.44819790157E+01  0.23928386286E+02 -0.35930032026E+02  0.43400725887E+02  0.00000000000E+00 0.  1.
         11    1    4    4    0    0  0.80210969773E+01 -0.27102897301E+01  0.80696356459E+01  0.11696268074E+02  0.51100000000E-03 0. -1.
        -11    1    4    4    0    0 -0.48584466218E+01 -0.12779837337E+02  0.12546658874E+02  0.18556599771E+02  0.51100000000E-03 0.  1.
        -12    1    4    4    0    0  0.13193286602E+01 -0.84382592189E+01  0.15313737506E+02  0.17534406268E+02  0.00000000000E+00 0.  1.
</event>
<event>
 8    1  0.4798632E-010  0.9118800E+02  0.7816164E-02  0.1184000E+00
        -11   -1    0    0    0    0  0.00000000000E+00  0.00000000000E+00  0.45593999997E+02  0.45594000000E+02  0.51100000000E-03 0. -1.
         11   -1    0    0    0    0 -0.00000000000E+00 -0.00000000000E+00 -0.45593999997E+02  0.45594000000E+02  0.51100000000E-03 0.  1.
         23    2    1    2    0    0  0.00000000000E+00  0.88817841970E-15  0.00000000000E+00  0.91188000000E+02  0.91188000000E+02 0.  0.
    9900012    2    3    3    0    0  0.27060761850E+02 -0.44553137590E+01 -0.33637607698E+02  0.47787270695E+02  0.19999998405E+02 0.  0.
         12    1    3    3    0    0 -0.27060761850E+02  0.44553137590E+01  0.33637607698E+02  0.43400729305E+02  0.00000000000E+00 0. -1.
         11    1    4    4    0    0  0.84393532755E+01  0.18197946295E+01 -0.19925553292E+02  0.21715478591E+02  0.51100000000E-03 0. -1.
        -11    1    4    4    0    0  0.12082087847E+02 -0.76107903365E+01 -0.50706432712E+01  0.15152966698E+02  0.51100000000E-03 0.  1.
        -12    1    4    4    0    0  0.65393207272E+01  0.13356819480E+01 -0.86414111351E+01  0.10918825406E+02  0.00000000000E+00 0.  1.
</event>
<event>
 8    1  0.4798632E-010  0.9118800E+02  0.7816164E-02  0.1184000E+00
        -11   -1    0    0    0    0  0.00000000000E+00  0.00000000000E+00  0.45593999997E+02  0.45594000000E+02  0.51100000000E-03 0. -1.
         11   -1    0    0    0    0 -0.00000000000E+00 -0.00000000000E+00 -0.45593999997E+02  0.45594000000E+02  0.51100000000E-03 0.  1.
         23    2    1    2    0    0  0.00000000000E+00  0.35527136788E-14  0.00000000000E+00  0.91188000000E+02  0.91188000000E+02 0.  0.
    9900012    2    3    3    0    0  0.83090723907E+01  0.26943394506E+02  0.32994484398E+02  0.47787271985E+02  0.20000004290E+02 0.  0.
        -12    1    3    3    0    0 -0.83090723907E+01 -0.26943394506E+02 -0.32994484398E+02  0.43400728015E+02  0.00000000000E+00 0.  1.
         11    1    4    4    0    0 -0.31741352944E+01  0.12226751888E+02  0.17628066951E+02  0.21686801085E+02  0.51100000000E-03 0. -1.
        -11    1    4    4    0    0  0.12534520330E+02  0.11397876744E+02  0.14949039982E+02  0.22594238001E+02  0.51100000000E-03 0.  1.
        -12    1    4    4    0    0 -0.10513126446E+01  0.33187658738E+01  0.41737746499E+00  0.35062329002E+01  0.00000000000E+00 0.  1.
</event>
<event>
 8    1  0.4798632E-010  0.9118800E+02  0.7816164E-02  0.1184000E+00
        -11   -1    0    0    0    0  0.00000000000E+00  0.00000000000E+00  0.45593999997E+02  0.45594000000E+02  0.51100000000E-03 0. -1.
         11   -1    0    0    0    0 -0.00000000000E+00 -0.00000000000E+00 -0.45593999997E+02  0.45594000000E+02  0.51100000000E-03 0.  1.
         23    2    1    2    0    0  0.00000000000E+00  0.22204460493E-15  0.00000000000E+00  0.91188000000E+02  0.91188000000E+02 0.  0.
    9900012    2    3    3    0    0  0.48879051654E+01 -0.97953216884E+00  0.43113481952E+02  0.47787269290E+02  0.19999992000E+02 0.  0.
        -12    1    3    3    0    0 -0.48879051654E+01  0.97953216884E+00 -0.43113481952E+02  0.43400730710E+02  0.00000000000E+00 0.  1.
         11    1    4    4    0    0  0.89542040750E+01  0.18997875993E+01  0.19645205889E+02  0.21673049583E+02  0.51100000000E-03 0. -1.
        -11    1    4    4    0    0 -0.60115343199E+01 -0.36901113597E+01  0.22855897871E+02  0.23919605651E+02  0.51100000000E-03 0.  1.
        -12    1    4    4    0    0  0.19452354104E+01  0.81079159152E+00  0.61237819158E+00  0.21946140563E+01  0.00000000000E+00 0.  1.
</event>
<event>
 8    1  0.4798632E-010  0.9118800E+02  0.7816164E-02  0.1184000E+00
        -11   -1    0    0    0    0  0.00000000000E+00  0.00000000000E+00  0.45593999997E+02  0.45594000000E+02  0.51100000000E-03 0. -1.
         11   -1    0    0    0    0 -0.00000000000E+00 -0.00000000000E+00 -0.45593999997E+02  0.45594000000E+02  0.51100000000E-03 0.  1.
         23    2    1    2    0    0  0.00000000000E+00  0.35527136788E-14  0.00000000000E+00  0.91188000000E+02  0.91188000000E+02 0.  0.
    9900012    2    3    3    0    0  0.13457784575E+02  0.25956836847E+02  0.32074194183E+02  0.47787271005E+02  0.19999999822E+02 0.  0.
        -12    1    3    3    0    0 -0.13457784575E+02 -0.25956836847E+02 -0.32074194183E+02  0.43400728995E+02  0.00000000000E+00 0.  1.
         11    1    4    4    0    0  0.96189358124E+01  0.70015180537E+01  0.29496738519E+01  0.12257477608E+02  0.51100000000E-03 0. -1.
        -11    1    4    4    0    0 -0.11005424612E+01  0.10433188325E+02  0.15548293596E+02  0.18756653389E+02  0.51100000000E-03 0.  1.
         12    1    4    4    0    0  0.49393912237E+01  0.85221304676E+01  0.13576226736E+02  0.16773140008E+02  0.00000000000E+00 0. -1.
</event>
<event>
 8    1  0.4798632E-010  0.9118800E+02  0.7816164E-02  0.1184000E+00
        -11   -1    0    0    0    0  0.00000000000E+00  0.00000000000E+00  0.45593999997E+02  0.45594000000E+02  0.51100000000E-03 0. -1.
         11   -1    0    0    0    0 -0.00000000000E+00 -0.00000000000E+00 -0.45593999997E+02  0.45594000000E+02  0.51100000000E-03 0.  1.
         23    2    1    2    0    0  0.88817841970E-15  0.00000000000E+00  0.00000000000E+00  0.91188000000E+02  0.91188000000E+02 0.  0.
    9900012    2    3    3    0    0  0.26431849299E+01  0.34684661939E+02 -0.25954018045E+02  0.47787271284E+02  0.20000001093E+02 0.  0.
         12    1    3    3    0    0 -0.26431849299E+01 -0.34684661939E+02  0.25954018045E+02  0.43400728716E+02  0.00000000000E+00 0. -1.
         11    1    4    4    0    0 -0.13750810558E+01  0.30657236483E+02 -0.14884995119E+02  0.34107478309E+02  0.51100000000E-03 0. -1.
        -11    1    4    4    0    0  0.51486450491E-01  0.37006314017E+01 -0.73654700903E+01  0.82430257514E+01  0.51100000000E-03 0.  1.
         12    1    4    4    0    0  0.39667795352E+01  0.32679405434E+00 -0.37035528359E+01  0.54367672236E+01  0.00000000000E+00 0. -1.
</event>
<event>
 8    1  0.4798632E-010  0.9118800E+02  0.7816164E-02  0.1184000E+00
        -11   -1    0    0    0    0  0.00000000000E+00  0.00000000000E+00  0.45593999997E+02  0.45594000000E+02  0.51100000000E-03 0. -1.
         11   -1    0    0    0    0 -0.00000000000E+00 -0.00000000000E+00 -0.45593999997E+02  0.45594000000E+02  0.51100000000E-03 0.  1.
         23    2    1    2    0    0  0.00000000000E+00  0.00000000000E+00  0.00000000000E+00  0.91188000000E+02  0.91188000000E+02 0.  0.
    9900012    2    3    3    0    0 -0.22197166057E+02  0.89704205283E+01 -0.36200009553E+02  0.47787270547E+02  0.19999997731E+02 0.  0.
         12    1    3    3    0    0  0.22197166057E+02 -0.89704205283E+01  0.36200009553E+02  0.43400729453E+02  0.00000000000E+00 0. -1.
         11    1    4    4    0    0 -0.15477342621E+02  0.12535810877E+02 -0.20724508520E+02  0.28743693963E+02  0.51100000000E-03 0. -1.
        -11    1    4    4    0    0 -0.34476325562E+01 -0.48638926476E+01 -0.14018470568E+02  0.15233553074E+02  0.51100000000E-03 0.  1.
        -12    1    4    4    0    0 -0.32721908798E+01  0.12985022990E+01 -0.14570304653E+01  0.38100235106E+01  0.00000000000E+00 0.  1.
</event>
<event>
 8    1  0.4798632E-010  0.9118800E+02  0.7816164E-02  0.1184000E+00
        -11   -1    0    0    0    0  0.00000000000E+00  0.00000000000E+00  0.45593999997E+02  0.45594000000E+02  0.51100000000E-03 0. -1.
         11   -1    0    0    0    0 -0.00000000000E+00 -0.00000000000E+00 -0.45593999997E+02  0.45594000000E+02  0.51100000000E-03 0.  1.
         23    2    1    2    0    0  0.00000000000E+00  0.00000000000E+00 -0.35527136788E-14  0.91188000000E+02  0.91188000000E+02 0.  0.
    9900012    2    3    3    0    0 -0.28646894988E+02 -0.16865863065E+02  0.27901996136E+02  0.47787270539E+02  0.19999997696E+02 0.  0.
        -12    1    3    3    0    0  0.28646894988E+02  0.16865863065E+02 -0.27901996136E+02  0.43400729461E+02  0.00000000000E+00 0.  1.
         11    1    4    4    0    0 -0.15836340675E+02 -0.11489660129E+02  0.15651210259E+02  0.25055186264E+02  0.51100000000E-03 0. -1.
        -11    1    4    4    0    0  0.22656809025E+01  0.11935802316E+01  0.76483686784E+00  0.26726240695E+01  0.51100000000E-03 0.  1.
        -12    1    4    4    0    0 -0.15076235215E+02 -0.65697831675E+01  0.11485949009E+02  0.20059460206E+02  0.00000000000E+00 0.  1.
</event>
<event>
 8    1  0.4798632E-010  0.9118800E+02  0.7816164E-02  0.1184000E+00
        -11   -1    0    0    0    0  0.00000000000E+00  0.00000000000E+00  0.45593999997E+02  0.45594000000E+02  0.51100000000E-03 0. -1.
         11   -1    0    0    0    0 -0.00000000000E+00 -0.00000000000E+00 -0.45593999997E+02  0.45594000000E+02  0.51100000000E-03 0.  1.
         23    2    1    2    0    0  0.17763568394E-14  0.00000000000E+00  0.00000000000E+00  0.91188000000E+02  0.91188000000E+02 0.  0.
    9900012    2    3    3    0    0 -0.87161478157E+01 -0.32407945083E+02  0.27520488507E+02  0.47787269304E+02  0.19999992066E+02 0.  0.
        -12    1    3    3    0    0  0.87161478157E+01  0.32407945083E+02 -0.27520488507E+02  0.43400730696E+02  0.00000000000E+00 0.  1.
         11    1    4    4    0    0  0.15865448619E+01 -0.15233623034E+02  0.70403036019E+01  0.16856638764E+02  0.51100000000E-03 0.  1.
        -11    1    4    4    0    0  0.28337054091E+00 -0.10452750762E+02  0.73969749436E+01  0.12808416605E+02  0.51100000000E-03 0. -1.
         12    1    4    4    0    0 -0.10586063219E+02 -0.67215712874E+01  0.13083209961E+02  0.18122213936E+02  0.00000000000E+00 0. -1.
</event>
<event>
 8    1  0.4798632E-010  0.9118800E+02  0.7816164E-02  0.1184000E+00
        -11   -1    0    0    0    0  0.00000000000E+00  0.00000000000E+00  0.45593999997E+02  0.45594000000E+02  0.51100000000E-03 0. -1.
         11   -1    0    0    0    0 -0.00000000000E+00 -0.00000000000E+00 -0.45593999997E+02  0.45594000000E+02  0.51100000000E-03 0.  1.
         23    2    1    2    0    0 -0.35527136788E-14  0.00000000000E+00  0.35527136788E-14  0.91188000000E+02  0.91188000000E+02 0.  0.
    9900012    2    3    3    0    0 -0.16818169040E+02 -0.27785765402E+02 -0.28787579619E+02  0.47787259118E+02  0.19999945621E+02 0.  0.
         12    1    3    3    0    0  0.16818169040E+02  0.27785765402E+02  0.28787579619E+02  0.43400740882E+02  0.00000000000E+00 0. -1.
         11    1    4    4    0    0  0.26047816842E+01 -0.87514735248E+00 -0.76712546281E+01  0.81485531440E+01  0.51100000000E-03 0. -1.
        -11    1    4    4    0    0 -0.11653144538E+02 -0.14119734475E+02 -0.90923122550E+01  0.20440959412E+02  0.51100000000E-03 0.  1.
         12    1    4    4    0    0 -0.77698061860E+01 -0.12790883575E+02 -0.12024012736E+02  0.19197746562E+02  0.00000000000E+00 0. -1.
</event>
<event>
 8    1  0.4798632E-010  0.9118800E+02  0.7816164E-02  0.1184000E+00
        -11   -1    0    0    0    0  0.00000000000E+00  0.00000000000E+00  0.45593999997E+02  0.45594000000E+02  0.51100000000E-03 0. -1.
         11   -1    0    0    0    0 -0.00000000000E+00 -0.00000000000E+00 -0.45593999997E+02  0.45594000000E+02  0.51100000000E-03 0.  1.
         23    2    1    2    0    0  0.17763568394E-14  0.17763568394E-14  0.00000000000E+00  0.91188000000E+02  0.91188000000E+02 0.  0.
    9900012    2    3    3    0    0 -0.82265640798E+01  0.44795460819E+01 -0.42377833298E+02  0.47787269076E+02  0.19999991026E+02 0.  0.
         12    1    3    3    0    0  0.82265640798E+01 -0.44795460819E+01  0.42377833298E+02  0.43400730924E+02  0.00000000000E+00 0. -1.
         11    1    4    4    0    0 -0.17149087701E+01 -0.25949245575E+01 -0.86823157621E+01  0.92226434824E+01  0.51100000000E-03 0. -1.
        -11    1    4    4    0    0  0.13547297020E+01 -0.25130951009E+01 -0.21736082755E+00  0.28632473770E+01  0.51100000000E-03 0.  1.
        -12    1    4    4    0    0 -0.78663850117E+01  0.95875657404E+01 -0.33478156709E+02  0.35701378217E+02  0.00000000000E+00 0.  1.
</event>
<event>
 8    1  0.4798632E-010  0.9118800E+02  0.7816164E-02  0.1184000E+00
        -11   -1    0    0    0    0  0.00000000000E+00  0.00000000000E+00  0.45593999997E+02  0.45594000000E+02  0.51100000000E-03 0.  1.
         11   -1    0    0    0    0 -0.00000000000E+00 -0.00000000000E+00 -0.45593999997E+02  0.45594000000E+02  0.51100000000E-03 0. -1.
         23    2    1    2    0    0  0.71054273576E-14  0.00000000000E+00  0.00000000000E+00  0.91188000000E+02  0.91188000000E+02 0.  0.
    9900012    2    3    3    0    0  0.38829713134E+02  0.61156319229E+01 -0.18397715650E+02  0.47787268243E+02  0.19999987228E+02 0.  0.
         12    1    3    3    0    0 -0.38829713134E+02 -0.61156319229E+01  0.18397715650E+02  0.43400731757E+02  0.00000000000E+00 0. -1.
         11    1    4    4    0    0  0.70372946546E+00  0.36908356341E+01 -0.48548900046E+01  0.61390113257E+01  0.51100000000E-03 0. -1.
        -11    1    4    4    0    0  0.21730104926E+02  0.30788785112E+01 -0.12380341265E+02  0.25198210315E+02  0.51100000000E-03 0.  1.
         12    1    4    4    0    0  0.16395878743E+02 -0.65408222241E+00 -0.11624843807E+01  0.16450046603E+02  0.00000000000E+00 0. -1.
</event>
<event>
 8    1  0.4798632E-010  0.9118800E+02  0.7816164E-02  0.1184000E+00
        -11   -1    0    0    0    0  0.00000000000E+00  0.00000000000E+00  0.45593999997E+02  0.45594000000E+02  0.51100000000E-03 0. -1.
         11   -1    0    0    0    0 -0.00000000000E+00 -0.00000000000E+00 -0.45593999997E+02  0.45594000000E+02  0.51100000000E-03 0.  1.
         23    2    1    2    0    0  0.00000000000E+00  0.17763568394E-14  0.71054273576E-14  0.91188000000E+02  0.91188000000E+02 0.  0.
    9900012    2    3    3    0    0 -0.16742665679E+02  0.14869725669E+02  0.37177916549E+02  0.47787273342E+02  0.20000010476E+02 0.  0.
        -12    1    3    3    0    0  0.16742665679E+02 -0.14869725669E+02 -0.37177916549E+02  0.43400726658E+02  0.00000000000E+00 0.  1.
         11    1    4    4    0    0 -0.14797159404E+01 -0.32116033271E+01  0.32625721136E+01  0.48112713759E+01  0.51100000000E-03 0. -1.
        -11    1    4    4    0    0 -0.16408002205E+02  0.17510641990E+02  0.34085525261E+02  0.41685346968E+02  0.51100000000E-03 0.  1.
         12    1    4    4    0    0  0.11450524665E+01  0.57068700646E+00 -0.17018082592E+00  0.12906549981E+01  0.00000000000E+00 0. -1.
</event>
<event>
 8    1  0.4798632E-010  0.9118800E+02  0.7816164E-02  0.1184000E+00
        -11   -1    0    0    0    0  0.00000000000E+00  0.00000000000E+00  0.45593999997E+02  0.45594000000E+02  0.51100000000E-03 0. -1.
         11   -1    0    0    0    0 -0.00000000000E+00 -0.00000000000E+00 -0.45593999997E+02  0.45594000000E+02  0.51100000000E-03 0.  1.
         23    2    1    2    0    0 -0.17763568394E-14  0.00000000000E+00  0.00000000000E+00  0.91188000000E+02  0.91188000000E+02 0.  0.
    9900012    2    3    3    0    0 -0.10699242644E+02 -0.22492544174E+02  0.35542017343E+02  0.47787270359E+02  0.19999996875E+02 0.  0.
        -12    1    3    3    0    0  0.10699242644E+02  0.22492544174E+02 -0.35542017343E+02  0.43400729641E+02  0.00000000000E+00 0.  1.
         11    1    4    4    0    0  0.24010027724E+01 -0.29565290500E+01  0.13215913759E+02  0.13753772395E+02  0.51100000000E-03 0. -1.
        -11    1    4    4    0    0 -0.12420226966E+02 -0.19446299976E+02  0.23332862322E+02  0.32815287368E+02  0.51100000000E-03 0.  1.
        -12    1    4    4    0    0 -0.68001845004E+00 -0.89715148207E-01 -0.10067587381E+01  0.12182105963E+01  0.00000000000E+00 0.  1.
</event>
<event>
 8    1  0.4798632E-010  0.9118800E+02  0.7816164E-02  0.1184000E+00
        -11   -1    0    0    0    0  0.00000000000E+00  0.00000000000E+00  0.45593999997E+02  0.45594000000E+02  0.51100000000E-03 0. -1.
         11   -1    0    0    0    0 -0.00000000000E+00 -0.00000000000E+00 -0.45593999997E+02  0.45594000000E+02  0.51100000000E-03 0.  1.
         23    2    1    2    0    0  0.66613381478E-15 -0.17763568394E-14  0.00000000000E+00  0.91188000000E+02  0.91188000000E+02 0.  0.
    9900012    2    3    3    0    0  0.55616523016E+00  0.51837045283E+01 -0.43086461647E+02  0.47787270862E+02  0.19999999169E+02 0.  0.
         12    1    3    3    0    0 -0.55616523016E+00 -0.51837045283E+01  0.43086461647E+02  0.43400729138E+02  0.00000000000E+00 0. -1.
         11    1    4    4    0    0  0.12034043432E+01  0.79867039743E+01 -0.14781051846E+02  0.16843845057E+02  0.51100000000E-03 0. -1.
        -11    1    4    4    0    0  0.31403984887E+01 -0.64256149648E+01 -0.14283573548E+02  0.15974075996E+02  0.51100000000E-03 0.  1.
        -12    1    4    4    0    0 -0.37876376017E+01  0.36226155187E+01 -0.14021836253E+02  0.14969349809E+02  0.00000000000E+00 0.  1.
</event>
<event>
 8    1  0.4798632E-010  0.9118800E+02  0.7816164E-02  0.1184000E+00
        -11   -1    0    0    0    0  0.00000000000E+00  0.00000000000E+00  0.45593999997E+02  0.45594000000E+02  0.51100000000E-03 0. -1.
         11   -1    0    0    0    0 -0.00000000000E+00 -0.00000000000E+00 -0.45593999997E+02  0.45594000000E+02  0.51100000000E-03 0.  1.
         23    2    1    2    0    0 -0.35527136788E-14  0.00000000000E+00 -0.14210854715E-13  0.91188000000E+02  0.91188000000E+02 0.  0.
    9900012    2    3    3    0    0  0.15478615109E+02  0.31335127637E+01  0.40425450918E+02  0.47787268325E+02  0.19999987603E+02 0.  0.
        -12    1    3    3    0    0 -0.15478615109E+02 -0.31335127637E+01 -0.40425450918E+02  0.43400731675E+02  0.00000000000E+00 0.  1.
         11    1    4    4    0    0  0.37318099063E+01 -0.41812290701E+01  0.31467368799E+01  0.64273660987E+01  0.51100000000E-03 0. -1.
        -11    1    4    4    0    0  0.48368086367E+01  0.51384491399E+00  0.29508168229E+01  0.56891189623E+01  0.51100000000E-03 0.  1.
         12    1    4    4    0    0  0.69099965660E+01  0.68008969198E+01  0.34327897216E+02  0.35670783264E+02  0.00000000000E+00 0. -1.
</event>
<event>
 8    1  0.4798632E-010  0.9118800E+02  0.7816164E-02  0.1184000E+00
        -11   -1    0    0    0    0  0.00000000000E+00  0.00000000000E+00  0.45593999997E+02  0.45594000000E+02  0.51100000000E-03 0. -1.
         11   -1    0    0    0    0 -0.00000000000E+00 -0.00000000000E+00 -0.45593999997E+02  0.45594000000E+02  0.51100000000E-03 0.  1.
         23    2    1    2    0    0  0.71054273576E-14  0.00000000000E+00  0.00000000000E+00  0.91188000000E+02  0.91188000000E+02 0.  0.
    9900012    2    3    3    0    0 -0.26289396814E+02  0.40195189170E+01 -0.34297726078E+02  0.47787274991E+02  0.20000017996E+02 0.  0.
         12    1    3    3    0    0  0.26289396814E+02 -0.40195189170E+01  0.34297726078E+02  0.43400725009E+02  0.00000000000E+00 0. -1.
         11    1    4    4    0    0 -0.58749913595E+01  0.90164438270E+01 -0.13548259653E+02  0.17302228835E+02  0.51100000000E-03 0. -1.
        -11    1    4    4    0    0 -0.20616106133E+02 -0.38107987003E+01 -0.20349225580E+02  0.29217066944E+02  0.51100000000E-03 0.  1.
         12    1    4    4    0    0  0.20170067929E+00 -0.11861262098E+01 -0.40024084436E+00  0.12679792124E+01  0.00000000000E+00 0. -1.
</event>
<event>
 8    1  0.4798632E-010  0.9118800E+02  0.7816164E-02  0.1184000E+00
        -11   -1    0    0    0    0  0.00000000000E+00  0.00000000000E+00  0.45593999997E+02  0.45594000000E+02  0.51100000000E-03 0. -1.
         11   -1    0    0    0    0 -0.00000000000E+00 -0.00000000000E+00 -0.45593999997E+02  0.45594000000E+02  0.51100000000E-03 0.  1.
         23    2    1    2    0    0  0.35527136788E-14 -0.35527136788E-14  0.00000000000E+00  0.91188000000E+02  0.91188000000E+02 0.  0.
    9900012    2    3    3    0    0  0.24897618018E+02 -0.12985515025E+02 -0.33092420431E+02  0.47787271050E+02  0.20000000027E+02 0.  0.
         12    1    3    3    0    0 -0.24897618018E+02  0.12985515025E+02  0.33092420431E+02  0.43400728950E+02  0.00000000000E+00 0. -1.
         11    1    4    4    0    0 -0.12165857928E+01 -0.15815100233E+00  0.20415354432E+00  0.12436927521E+01  0.51100000000E-03 0. -1.
        -11    1    4    4    0    0  0.43410524726E+00 -0.15174646225E+00 -0.89308566716E+01  0.89426883824E+01  0.51100000000E-03 0.  1.
        -12    1    4    4    0    0  0.25680098563E+02 -0.12675617560E+02 -0.24365717303E+02  0.37600889916E+02  0.00000000000E+00 0.  1.
</event>
<event>
 8    1  0.4798632E-010  0.9118800E+02  0.7816164E-02  0.1184000E+00
        -11   -1    0    0    0    0  0.00000000000E+00  0.00000000000E+00  0.45593999997E+02  0.45594000000E+02  0.51100000000E-03 0.  1.
         11   -1    0    0    0    0 -0.00000000000E+00 -0.00000000000E+00 -0.45593999997E+02  0.45594000000E+02  0.51100000000E-03 0. -1.
         23    2    1    2    0    0  0.88817841970E-15  0.00000000000E+00  0.00000000000E+00  0.91188000000E+02  0.91188000000E+02 0.  0.
    9900012    2    3    3    0    0  0.79430586581E+00  0.32392156021E+02  0.28874565597E+02  0.47787271527E+02  0.20000002201E+02 0.  0.
        -12    1    3    3    0    0 -0.79430586581E+00 -0.32392156021E+02 -0.28874565597E+02  0.43400728473E+02  0.00000000000E+00 0.  1.
         11    1    4    4    0    0  0.52320482747E+01  0.48076046978E+01  0.57892203150E+00  0.71289931308E+01  0.51100000000E-03 0. -1.
        -11    1    4    4    0    0  0.15855161078E+00  0.17006329039E+02  0.20949901411E+02  0.26984045942E+02  0.51100000000E-03 0.  1.
         12    1    4    4    0    0 -0.45962940196E+01  0.10578222284E+02  0.73457421553E+01  0.13674232455E+02  0.00000000000E+00 0. -1.
</event>
<event>
 8    1  0.4798632E-010  0.9118800E+02  0.7816164E-02  0.1184000E+00
        -11   -1    0    0    0    0  0.00000000000E+00  0.00000000000E+00  0.45593999997E+02  0.45594000000E+02  0.51100000000E-03 0. -1.
         11   -1    0    0    0    0 -0.00000000000E+00 -0.00000000000E+00 -0.45593999997E+02  0.45594000000E+02  0.51100000000E-03 0.  1.
         23    2    1    2    0    0  0.00000000000E+00  0.00000000000E+00  0.00000000000E+00  0.91188000000E+02  0.91188000000E+02 0.  0.
    9900012    2    3    3    0    0  0.16990612407E+02 -0.34315469975E+02 -0.20430141640E+02  0.47787273312E+02  0.20000010341E+02 0.  0.
         12    1    3    3    0    0 -0.16990612407E+02  0.34315469975E+02  0.20430141640E+02  0.43400726688E+02  0.00000000000E+00 0. -1.
         11    1    4    4    0    0  0.20629688835E+01 -0.67131404269E+01 -0.16029280953E+01  0.72035736788E+01  0.51100000000E-03 0. -1.
        -11    1    4    4    0    0  0.74966933627E+01 -0.12190245490E+02  0.10588041081E+01  0.14350037034E+02  0.51100000000E-03 0.  1.
        -12    1    4    4    0    0  0.74309501607E+01 -0.15412084059E+02 -0.19886017652E+02  0.26233662600E+02  0.00000000000E+00 0.  1.
</event>
<event>
 8    1  0.4798632E-010  0.9118800E+02  0.7816164E-02  0.1184000E+00
        -11   -1    0    0    0    0  0.00000000000E+00  0.00000000000E+00  0.45593999997E+02  0.45594000000E+02  0.51100000000E-03 0. -1.
         11   -1    0    0    0    0 -0.00000000000E+00 -0.00000000000E+00 -0.45593999997E+02  0.45594000000E+02  0.51100000000E-03 0.  1.
         23    2    1    2    0    0  0.00000000000E+00  0.35527136788E-14  0.00000000000E+00  0.91188000000E+02  0.91188000000E+02 0.  0.
    9900012    2    3    3    0    0  0.50405753450E+01 -0.26853123166E+02  0.33721294188E+02  0.47787270683E+02  0.19999998351E+02 0.  0.
        -12    1    3    3    0    0 -0.50405753450E+01  0.26853123166E+02 -0.33721294188E+02  0.43400729317E+02  0.00000000000E+00 0.  1.
         11    1    4    4    0    0  0.50024397128E+01 -0.19877341554E+02  0.16852459866E+02  0.26535608418E+02  0.51100000000E-03 0. -1.
        -11    1    4    4    0    0 -0.44295882017E+01  0.24292583574E+00  0.57489725395E+01  0.72616079568E+01  0.51100000000E-03 0.  1.
         12    1    4    4    0    0  0.44677238339E+01 -0.72187074484E+01  0.11119861782E+02  0.13990054308E+02  0.00000000000E+00 0. -1.
</event>
<event>
 8    1  0.4798632E-010  0.9118800E+02  0.7816164E-02  0.1184000E+00
        -11   -1    0    0    0    0  0.00000000000E+00  0.00000000000E+00  0.45593999997E+02  0.45594000000E+02  0.51100000000E-03 0.  1.
         11   -1    0    0    0    0 -0.00000000000E+00 -0.00000000000E+00 -0.45593999997E+02  0.45594000000E+02  0.51100000000E-03 0. -1.
         23    2    1    2    0    0  0.00000000000E+00 -0.71054273576E-14  0.00000000000E+00  0.91188000000E+02  0.91188000000E+02 0.  0.
    9900012    2    3    3    0    0 -0.15898745143E+02  0.40129506244E+02  0.45250470913E+01  0.47787269365E+02  0.19999992341E+02 0.  0.
         12    1    3    3    0    0  0.15898745143E+02 -0.40129506244E+02 -0.45250470913E+01  0.43400730635E+02  0.00000000000E+00 0. -1.
         11    1    4    4    0    0 -0.13749103743E+02  0.15787176621E+02 -0.32721697425E+01  0.21189145676E+02  0.51100000000E-03 0. -1.
        -11    1    4    4    0    0 -0.99705095869E+00  0.32540901293E+01  0.38038925212E+01  0.51041955054E+01  0.51100000000E-03 0.  1.
         12    1    4    4    0    0 -0.11525904409E+01  0.21088239494E+02  0.39933243126E+01  0.21493928184E+02  0.00000000000E+00 0. -1.
</event>
<event>
 8    1  0.4798632E-010  0.9118800E+02  0.7816164E-02  0.1184000E+00
        -11   -1    0    0    0    0  0.00000000000E+00  0.00000000000E+00  0.45593999997E+02  0.45594000000E+02  0.51100000000E-03 0. -1.
         11   -1    0    0    0    0 -0.00000000000E+00 -0.00000000000E+00 -0.45593999997E+02  0.45594000000E+02  0.51100000000E-03 0.  1.
         23    2    1    2    0    0  0.00000000000E+00  0.00000000000E+00  0.00000000000E+00  0.91188000000E+02  0.91188000000E+02 0.  0.
    9900012    2    3    3    0    0 -0.81288618124E+01 -0.22017865984E+02  0.36506961756E+02  0.47787273352E+02  0.20000010522E+02 0.  0.
        -12    1    3    3    0    0  0.81288618124E+01  0.22017865984E+02 -0.36506961756E+02  0.43400726648E+02  0.00000000000E+00 0.  1.
         11    1    4    4    0    0 -0.66897990898E+01 -0.72569447496E+01  0.23272520670E+01  0.10140648964E+02  0.51100000000E-03 0. -1.
        -11    1    4    4    0    0  0.18498772357E+01 -0.85890619865E+01  0.19210336324E+02  0.21124181725E+02  0.51100000000E-03 0.  1.
         12    1    4    4    0    0 -0.32889399583E+01 -0.61718592481E+01  0.14969373366E+02  0.16522442664E+02  0.00000000000E+00 0. -1.
</event>
<event>
 8    1  0.4798632E-010  0.9118800E+02  0.7816164E-02  0.1184000E+00
        -11   -1    0    0    0    0  0.00000000000E+00  0.00000000000E+00  0.45593999997E+02  0.45594000000E+02  0.51100000000E-03 0. -1.
         11   -1    0    0    0    0 -0.00000000000E+00 -0.00000000000E+00 -0.45593999997E+02  0.45594000000E+02  0.51100000000E-03 0.  1.
         23    2    1    2    0    0  0.00000000000E+00  0.22204460493E-15  0.00000000000E+00  0.91188000000E+02  0.91188000000E+02 0.  0.
    9900012    2    3    3    0    0 -0.20351165674E+02  0.26341392402E+00 -0.38332547122E+02  0.47787268439E+02  0.19999988122E+02 0.  0.
         12    1    3    3    0    0  0.20351165674E+02 -0.26341392402E+00  0.38332547122E+02  0.43400731561E+02  0.00000000000E+00 0. -1.
         11    1    4    4    0    0 -0.76763641552E+01  0.18336349220E+01 -0.53046865467E+01  0.95093892175E+01  0.51100000000E-03 0. -1.
        -11    1    4    4    0    0 -0.13752006540E+02  0.13745190021E+01 -0.32191252165E+02  0.35032609132E+02  0.51100000000E-03 0.  1.
        -12    1    4    4    0    0  0.10772050215E+01 -0.29447400000E+01 -0.83660841010E+00  0.32452700902E+01  0.00000000000E+00 0.  1.
</event>
<event>
 8    1  0.4798632E-010  0.9118800E+02  0.7816164E-02  0.1184000E+00
        -11   -1    0    0    0    0  0.00000000000E+00  0.00000000000E+00  0.45593999997E+02  0.45594000000E+02  0.51100000000E-03 0. -1.
         11   -1    0    0    0    0 -0.00000000000E+00 -0.00000000000E+00 -0.45593999997E+02  0.45594000000E+02  0.51100000000E-03 0.  1.
         23    2    1    2    0    0  0.00000000000E+00 -0.88817841970E-15  0.35527136788E-14  0.91188000000E+02  0.91188000000E+02 0.  0.
    9900012    2    3    3    0    0  0.31037825277E+02 -0.78129581388E+01  0.29312699118E+02  0.47787271407E+02  0.20000001654E+02 0.  0.
        -12    1    3    3    0    0 -0.31037825277E+02  0.78129581388E+01 -0.29312699118E+02  0.43400728593E+02  0.00000000000E+00 0.  1.
         11    1    4    4    0    0  0.31026149255E+02 -0.10289603555E+02  0.23613082379E+02  0.40324626950E+02  0.51100000000E-03 0. -1.
        -11    1    4    4    0    0 -0.63405832608E+00  0.29333777309E+01  0.18344380940E+01  0.35173709294E+01  0.51100000000E-03 0.  1.
         12    1    4    4    0    0  0.64573434770E+00 -0.45673231446E+00  0.38651786450E+01  0.39452735282E+01  0.00000000000E+00 0. -1.
</event>
<event>
 8    1  0.4798632E-010  0.9118800E+02  0.7816164E-02  0.1184000E+00
        -11   -1    0    0    0    0  0.00000000000E+00  0.00000000000E+00  0.45593999997E+02  0.45594000000E+02  0.51100000000E-03 0. -1.
         11   -1    0    0    0    0 -0.00000000000E+00 -0.00000000000E+00 -0.45593999997E+02  0.45594000000E+02  0.51100000000E-03 0.  1.
         23    2    1    2    0    0  0.44408920985E-15  0.17763568394E-14  0.00000000000E+00  0.91188000000E+02  0.91188000000E+02 0.  0.
    9900012    2    3    3    0    0 -0.10155790350E+01 -0.83893468820E+01  0.42570068410E+02  0.47787271132E+02  0.20000000398E+02 0.  0.
        -12    1    3    3    0    0  0.10155790350E+01  0.83893468820E+01 -0.42570068410E+02  0.43400728868E+02  0.00000000000E+00 0.  1.
         11    1    4    4    0    0  0.41585261028E+01 -0.97861270860E+01  0.37735064594E+02  0.39204549772E+02  0.51100000000E-03 0. -1.
        -11    1    4    4    0    0 -0.32671454400E+01  0.14955947803E+01  0.54922829375E+01  0.65632473060E+01  0.51100000000E-03 0.  1.
         12    1    4    4    0    0 -0.19069596978E+01 -0.98814576341E-01 -0.65727912150E+00  0.20194740536E+01  0.00000000000E+00 0. -1.
</event>
<event>
 8    1  0.4798632E-010  0.9118800E+02  0.7816164E-02  0.1184000E+00
        -11   -1    0    0    0    0  0.00000000000E+00  0.00000000000E+00  0.45593999997E+02  0.45594000000E+02  0.51100000000E-03 0. -1.
         11   -1    0    0    0    0 -0.00000000000E+00 -0.00000000000E+00 -0.45593999997E+02  0.45594000000E+02  0.51100000000E-03 0.  1.
         23    2    1    2    0    0 -0.17763568394E-14  0.35527136788E-14  0.00000000000E+00  0.91188000000E+02  0.91188000000E+02 0.  0.
    9900012    2    3    3    0    0 -0.62476622465E+01  0.28174294711E+02 -0.32416050815E+02  0.47787256729E+02  0.19999934732E+02 0.  0.
         12    1    3    3    0    0  0.62476622465E+01 -0.28174294711E+02  0.32416050815E+02  0.43400743271E+02  0.00000000000E+00 0. -1.
         11    1    4    4    0    0  0.35998156303E+01  0.17232908382E+02 -0.91606470887E+01  0.19845635773E+02  0.51100000000E-03 0. -1.
        -11    1    4    4    0    0 -0.91874869430E+01  0.71533937787E+01 -0.17566760346E+02  0.21075389159E+02  0.51100000000E-03 0.  1.
         12    1    4    4    0    0 -0.65999093377E+00  0.37879925505E+01 -0.56886433801E+01  0.68662317978E+01  0.00000000000E+00 0. -1.
</event>
<event>
 8    1  0.4798632E-010  0.9118800E+02  0.7816164E-02  0.1184000E+00
        -11   -1    0    0    0    0  0.00000000000E+00  0.00000000000E+00  0.45593999997E+02  0.45594000000E+02  0.51100000000E-03 0. -1.
         11   -1    0    0    0    0 -0.00000000000E+00 -0.00000000000E+00 -0.45593999997E+02  0.45594000000E+02  0.51100000000E-03 0.  1.
         23    2    1    2    0    0  0.71054273576E-14  0.00000000000E+00  0.00000000000E+00  0.91188000000E+02  0.91188000000E+02 0.  0.
    9900012    2    3    3    0    0 -0.35921730059E+02 -0.89769374947E+01  0.22642152583E+02  0.47787272232E+02  0.20000005415E+02 0.  0.
        -12    1    3    3    0    0  0.35921730059E+02  0.89769374947E+01 -0.22642152583E+02  0.43400727768E+02  0.00000000000E+00 0.  1.
         11    1    4    4    0    0 -0.34234808646E+02 -0.11264667219E+02  0.19078045136E+02  0.40778507293E+02  0.51100000000E-03 0. -1.
        -11    1    4    4    0    0  0.34677710301E+00  0.13317478782E+01 -0.11454877042E+01  0.17905164372E+01  0.51100000000E-03 0.  1.
         12    1    4    4    0    0 -0.20336985160E+01  0.95598184572E+00  0.47095951511E+01  0.52182485022E+01  0.00000000000E+00 0. -1.
</event>
<event>
 8    1  0.4798632E-010  0.9118800E+02  0.7816164E-02  0.1184000E+00
        -11   -1    0    0    0    0  0.00000000000E+00  0.00000000000E+00  0.45593999997E+02  0.45594000000E+02  0.51100000000E-03 0. -1.
         11   -1    0    0    0    0 -0.00000000000E+00 -0.00000000000E+00 -0.45593999997E+02  0.45594000000E+02  0.51100000000E-03 0.  1.
         23    2    1    2    0    0 -0.30531133177E-15 -0.71054273576E-14  0.00000000000E+00  0.91188000000E+02  0.91188000000E+02 0.  0.
    9900012    2    3    3    0    0  0.65588872665E-01  0.39410436285E+02  0.18177912408E+02  0.47787270863E+02  0.19999999173E+02 0.  0.
        -12    1    3    3    0    0 -0.65588872665E-01 -0.39410436285E+02 -0.18177912408E+02  0.43400729137E+02  0.00000000000E+00 0.  1.
         11    1    4    4    0    0 -0.38552726589E+00  0.10522811473E+02  0.12405749514E+02  0.16272086954E+02  0.51100000000E-03 0. -1.
        -11    1    4    4    0    0 -0.27901866831E+01  0.14959580653E+02 -0.18174738959E+01  0.15325710642E+02  0.51100000000E-03 0.  1.
        -12    1    4    4    0    0  0.32413028217E+01  0.13928044159E+02  0.75896367901E+01  0.16189473268E+02  0.00000000000E+00 0.  1.
</event>
<event>
 8    1  0.4798632E-010  0.9118800E+02  0.7816164E-02  0.1184000E+00
        -11   -1    0    0    0    0  0.00000000000E+00  0.00000000000E+00  0.45593999997E+02  0.45594000000E+02  0.51100000000E-03 0. -1.
         11   -1    0    0    0    0 -0.00000000000E+00 -0.00000000000E+00 -0.45593999997E+02  0.45594000000E+02  0.51100000000E-03 0.  1.
         23    2    1    2    0    0 -0.88817841970E-15  0.00000000000E+00  0.71054273576E-14  0.91188000000E+02  0.91188000000E+02 0.  0.
    9900012    2    3    3    0    0 -0.41533674488E+01  0.35782154506E+02  0.24207645745E+02  0.47787272417E+02  0.20000006258E+02 0.  0.
        -12    1    3    3    0    0  0.41533674488E+01 -0.35782154506E+02 -0.24207645745E+02  0.43400727583E+02  0.00000000000E+00 0.  1.
         11    1    4    4    0    0  0.32037056743E+01  0.15044308101E+02  0.14518377048E+02  0.21151316948E+02  0.51100000000E-03 0. -1.
        -11    1    4    4    0    0 -0.98259214836E+01  0.11088097064E+02  0.50956483756E+01  0.15667171478E+02  0.51100000000E-03 0.  1.
        -12    1    4    4    0    0  0.24688483606E+01  0.96497493410E+01  0.45936203213E+01  0.10968783990E+02  0.00000000000E+00 0.  1.
</event>
<event>
 8    1  0.4798632E-010  0.9118800E+02  0.7816164E-02  0.1184000E+00
        -11   -1    0    0    0    0  0.00000000000E+00  0.00000000000E+00  0.45593999997E+02  0.45594000000E+02  0.51100000000E-03 0. -1.
         11   -1    0    0    0    0 -0.00000000000E+00 -0.00000000000E+00 -0.45593999997E+02  0.45594000000E+02  0.51100000000E-03 0.  1.
         23    2    1    2    0    0  0.14432899320E-14  0.00000000000E+00  0.71054273576E-14  0.91188000000E+02  0.91188000000E+02 0.  0.
    9900012    2    3    3    0    0 -0.29083643354E+00 -0.13559551149E+02 -0.41227129884E+02  0.47787282821E+02  0.20000053692E+02 0.  0.
         12    1    3    3    0    0  0.29083643354E+00  0.13559551149E+02  0.41227129884E+02  0.43400717179E+02  0.00000000000E+00 0. -1.
         11    1    4    4    0    0  0.80910252312E+01 -0.10659794216E+02 -0.16542013992E+02  0.21277549887E+02  0.51100000000E-03 0. -1.
        -11    1    4    4    0    0 -0.70406590917E+01 -0.25434200205E+01 -0.15417802655E+02  0.17139092882E+02  0.51100000000E-03 0.  1.
         12    1    4    4    0    0 -0.13412025730E+01 -0.35633691197E+00 -0.92673132374E+01  0.93706400516E+01  0.00000000000E+00 0. -1.
</event>
<event>
 8    1  0.4798632E-010  0.9118800E+02  0.7816164E-02  0.1184000E+00
        -11   -1    0    0    0    0  0.00000000000E+00  0.00000000000E+00  0.45593999997E+02  0.45594000000E+02  0.51100000000E-03 0. -1.
         11   -1    0    0    0    0 -0.00000000000E+00 -0.00000000000E+00 -0.45593999997E+02  0.45594000000E+02  0.51100000000E-03 0.  1.
         23    2    1    2    0    0  0.35527136788E-14  0.35527136788E-14  0.00000000000E+00  0.91188000000E+02  0.91188000000E+02 0.  0.
    9900012    2    3    3    0    0 -0.27267933716E+02 -0.27474834366E+02  0.19626924694E+02  0.47787275288E+02  0.20000019349E+02 0.  0.
        -12    1    3    3    0    0  0.27267933716E+02  0.27474834366E+02 -0.19626924694E+02  0.43400724712E+02  0.00000000000E+00 0.  1.
         11    1    4    4    0    0 -0.39460380022E+01 -0.84371522537E+01  0.62432857756E+01  0.11213178479E+02  0.51100000000E-03 0. -1.
        -11    1    4    4    0    0 -0.68970027956E+01 -0.15310239824E+02  0.38769336285E+01  0.17233766438E+02  0.51100000000E-03 0.  1.
        -12    1    4    4    0    0 -0.16424892918E+02 -0.37274422886E+01  0.95067052894E+01  0.19340330371E+02  0.00000000000E+00 0.  1.
</event>
<event>
 8    1  0.4798632E-010  0.9118800E+02  0.7816164E-02  0.1184000E+00
        -11   -1    0    0    0    0  0.00000000000E+00  0.00000000000E+00  0.45593999997E+02  0.45594000000E+02  0.51100000000E-03 0. -1.
         11   -1    0    0    0    0 -0.00000000000E+00 -0.00000000000E+00 -0.45593999997E+02  0.45594000000E+02  0.51100000000E-03 0.  1.
         23    2    1    2    0    0  0.00000000000E+00  0.00000000000E+00  0.17763568394E-14  0.91188000000E+02  0.91188000000E+02 0.  0.
    9900012    2    3    3    0    0  0.31929767568E+02 -0.25839093001E+02 -0.14016222139E+02  0.47787271122E+02  0.20000000355E+02 0.  0.
         12    1    3    3    0    0 -0.31929767568E+02  0.25839093001E+02  0.14016222139E+02  0.43400728878E+02  0.00000000000E+00 0. -1.
         11    1    4    4    0    0  0.33775340501E+01 -0.57091785948E+01  0.19629918751E+01  0.69177882195E+01  0.51100000000E-03 0. -1.
        -11    1    4    4    0    0  0.19756487041E+02 -0.17840157386E+02 -0.58391692973E+01  0.27252264018E+02  0.51100000000E-03 0.  1.
        -12    1    4    4    0    0  0.87957464767E+01 -0.22897570202E+01 -0.10140044717E+02  0.13617218885E+02  0.00000000000E+00 0.  1.
</event>
<event>
 8    1  0.4798632E-010  0.9118800E+02  0.7816164E-02  0.1184000E+00
        -11   -1    0    0    0    0  0.00000000000E+00  0.00000000000E+00  0.45593999997E+02  0.45594000000E+02  0.51100000000E-03 0. -1.
         11   -1    0    0    0    0 -0.00000000000E+00 -0.00000000000E+00 -0.45593999997E+02  0.45594000000E+02  0.51100000000E-03 0.  1.
         23    2    1    2    0    0 -0.17763568394E-14  0.00000000000E+00  0.00000000000E+00  0.91188000000E+02  0.91188000000E+02 0.  0.
    9900012    2    3    3    0    0  0.13288762421E+02  0.40463739734E+02 -0.83496711117E+01  0.47787280563E+02  0.20000043399E+02 0.  0.
         12    1    3    3    0    0 -0.13288762421E+02 -0.40463739734E+02  0.83496711117E+01  0.43400719437E+02  0.00000000000E+00 0. -1.
         11    1    4    4    0    0  0.14933360179E+00  0.61751840435E+01 -0.91706161356E+01  0.11056916345E+02  0.51100000000E-03 0. -1.
        -11    1    4    4    0    0  0.57099943793E+01  0.15264603950E+02  0.44660939894E+00  0.16303730548E+02  0.51100000000E-03 0.  1.
         12    1    4    4    0    0  0.74294344399E+01  0.19023951740E+02  0.37433562490E+00  0.20426633670E+02  0.00000000000E+00 0. -1.
</event>
<event>
 8    1  0.4798632E-010  0.9118800E+02  0.7816164E-02  0.1184000E+00
        -11   -1    0    0    0    0  0.00000000000E+00  0.00000000000E+00  0.45593999997E+02  0.45594000000E+02  0.51100000000E-03 0. -1.
         11   -1    0    0    0    0 -0.00000000000E+00 -0.00000000000E+00 -0.45593999997E+02  0.45594000000E+02  0.51100000000E-03 0.  1.
         23    2    1    2    0    0 -0.35527136788E-14  0.00000000000E+00  0.00000000000E+00  0.91188000000E+02  0.91188000000E+02 0.  0.
    9900012    2    3    3    0    0 -0.18664740965E+02 -0.20082142944E+02  0.33644589973E+02  0.47787268958E+02  0.19999990487E+02 0.  0.
        -12    1    3    3    0    0  0.18664740965E+02  0.20082142944E+02 -0.33644589973E+02  0.43400731042E+02  0.00000000000E+00 0.  1.
         11    1    4    4    0    0  0.16082905275E+01 -0.51833053346E+00  0.95295331919E+01  0.96781851646E+01  0.51100000000E-03 0. -1.
        -11    1    4    4    0    0 -0.18328587940E+02 -0.15528742435E+02  0.23468597849E+02  0.33583538567E+02  0.51100000000E-03 0.  1.
        -12    1    4    4    0    0 -0.19444435532E+01 -0.40350699758E+01  0.64645893245E+00  0.45255452260E+01  0.00000000000E+00 0.  1.
</event>
<event>
 8    1  0.4798632E-010  0.9118800E+02  0.7816164E-02  0.1184000E+00
        -11   -1    0    0    0    0  0.00000000000E+00  0.00000000000E+00  0.45593999997E+02  0.45594000000E+02  0.51100000000E-03 0. -1.
         11   -1    0    0    0    0 -0.00000000000E+00 -0.00000000000E+00 -0.45593999997E+02  0.45594000000E+02  0.51100000000E-03 0.  1.
         23    2    1    2    0    0  0.00000000000E+00 -0.88817841970E-15  0.00000000000E+00  0.91188000000E+02  0.91188000000E+02 0.  0.
    9900012    2    3    3    0    0  0.31017924943E+02 -0.54358474116E+01  0.29865733799E+02  0.47787283875E+02  0.20000058498E+02 0.  0.
        -12    1    3    3    0    0 -0.31017924943E+02  0.54358474116E+01 -0.29865733799E+02  0.43400716125E+02  0.00000000000E+00 0.  1.
         11    1    4    4    0    0  0.15249590304E+02 -0.16249793903E+01  0.22709884952E+02  0.27403091746E+02  0.51100000000E-03 0. -1.
        -11    1    4    4    0    0  0.18507952171E+01 -0.38693109124E+01 -0.78513738037E+00  0.43604415877E+01  0.51100000000E-03 0.  1.
        -12    1    4    4    0    0  0.13917539422E+02  0.58442891082E-01  0.79409862271E+01  0.16023750541E+02  0.00000000000E+00 0.  1.
</event>
<event>
 8    1  0.4798632E-010  0.9118800E+02  0.7816164E-02  0.1184000E+00
        -11   -1    0    0    0    0  0.00000000000E+00  0.00000000000E+00  0.45593999997E+02  0.45594000000E+02  0.51100000000E-03 0. -1.
         11   -1    0    0    0    0 -0.00000000000E+00 -0.00000000000E+00 -0.45593999997E+02  0.45594000000E+02  0.51100000000E-03 0.  1.
         23    2    1    2    0    0 -0.17763568394E-14  0.17763568394E-14  0.00000000000E+00  0.91188000000E+02  0.91188000000E+02 0.  0.
    9900012    2    3    3    0    0 -0.12520854206E+02  0.45877065701E+01  0.41301392955E+02  0.47787263812E+02  0.19999967023E+02 0.  0.
        -12    1    3    3    0    0  0.12520854206E+02 -0.45877065701E+01 -0.41301392955E+02  0.43400736188E+02  0.00000000000E+00 0.  1.
         11    1    4    4    0    0 -0.10450297356E+02  0.11360883927E+02  0.23580218609E+02  0.28183419032E+02  0.51100000000E-03 0. -1.
        -11    1    4    4    0    0 -0.14032718069E+01 -0.39699788371E+01  0.15208596023E+02  0.15780725490E+02  0.51100000000E-03 0.  1.
         12    1    4    4    0    0 -0.66728504360E+00 -0.28031985202E+01  0.25125783232E+01  0.38231192897E+01  0.00000000000E+00 0. -1.
</event>
<event>
 8    1  0.5185457E-010  0.9118800E+02  0.7816164E-02  0.1184000E+00
        -11   -1    0    0    0    0  0.00000000000E+00  0.00000000000E+00  0.45593999997E+02  0.45594000000E+02  0.51100000000E-03 0. -1.
         11   -1    0    0    0    0 -0.00000000000E+00 -0.00000000000E+00 -0.45593999997E+02  0.45594000000E+02  0.51100000000E-03 0.  1.
         23    2    1    2    0    0  0.00000000000E+00  0.00000000000E+00  0.71054273576E-14  0.91188000000E+02  0.91188000000E+02 0.  0.
    9900012    2    3    3    0    0  0.80414583038E+01  0.18376327078E+02  0.38487249821E+02  0.47787275959E+02  0.20000022408E+02 0.  0.
        -12    1    3    3    0    0 -0.80414583038E+01 -0.18376327078E+02 -0.38487249821E+02  0.43400724041E+02  0.00000000000E+00 0.  1.
         11    1    4    4    0    0  0.58146685722E+01  0.86721315463E+01  0.22990548758E+02  0.25250377593E+02  0.51100000000E-03 0. -1.
        -11    1    4    4    0    0 -0.22190908747E+01  0.10031266487E+02  0.56425618998E+01  0.11721312925E+02  0.51100000000E-03 0.  1.
        -12    1    4    4    0    0  0.44458806063E+01 -0.32707095521E+00  0.98541391631E+01  0.10815585440E+02  0.00000000000E+00 0.  1.
</event>
<event>
 8    1  0.4798632E-010  0.9118800E+02  0.7816164E-02  0.1184000E+00
        -11   -1    0    0    0    0  0.00000000000E+00  0.00000000000E+00  0.45593999997E+02  0.45594000000E+02  0.51100000000E-03 0. -1.
         11   -1    0    0    0    0 -0.00000000000E+00 -0.00000000000E+00 -0.45593999997E+02  0.45594000000E+02  0.51100000000E-03 0.  1.
         23    2    1    2    0    0  0.35527136788E-14 -0.35527136788E-14 -0.35527136788E-14  0.91188000000E+02  0.91188000000E+02 0.  0.
    9900012    2    3    3    0    0  0.16524074123E+02 -0.27451825708E+02 -0.29274150248E+02  0.47787266907E+02  0.19999981134E+02 0.  0.
         12    1    3    3    0    0 -0.16524074123E+02  0.27451825708E+02  0.29274150248E+02  0.43400733093E+02  0.00000000000E+00 0. -1.
         11    1    4    4    0    0  0.10970669361E+02 -0.22106859384E+02 -0.25985055621E+02  0.35837019044E+02  0.51100000000E-03 0. -1.
        -11    1    4    4    0    0  0.72567877422E+01 -0.62121650812E+01 -0.24436361528E+01  0.98601887020E+01  0.51100000000E-03 0.  1.
         12    1    4    4    0    0 -0.17033829802E+01  0.86719875778E+00 -0.84545847393E+00  0.20900591604E+01  0.00000000000E+00 0. -1.
</event>
<event>
 8    1  0.4798632E-010  0.9118800E+02  0.7816164E-02  0.1184000E+00
        -11   -1    0    0    0    0  0.00000000000E+00  0.00000000000E+00  0.45593999997E+02  0.45594000000E+02  0.51100000000E-03 0. -1.
         11   -1    0    0    0    0 -0.00000000000E+00 -0.00000000000E+00 -0.45593999997E+02  0.45594000000E+02  0.51100000000E-03 0.  1.
         23    2    1    2    0    0  0.35527136788E-14  0.00000000000E+00  0.00000000000E+00  0.91188000000E+02  0.91188000000E+02 0.  0.
    9900012    2    3    3    0    0 -0.27419272911E+02 -0.16703644660E+02 -0.29202660105E+02  0.47787266952E+02  0.19999981339E+02 0.  0.
         12    1    3    3    0    0  0.27419272911E+02  0.16703644660E+02  0.29202660105E+02  0.43400733048E+02  0.00000000000E+00 0. -1.
         11    1    4    4    0    0 -0.10719541133E+02 -0.16238048509E+02 -0.90014172607E+01  0.21438476962E+02  0.51100000000E-03 0. -1.
        -11    1    4    4    0    0 -0.14577272845E+02 -0.10640989545E+01 -0.18417804295E+02  0.23512649904E+02  0.51100000000E-03 0.  1.
         12    1    4    4    0    0 -0.21224589332E+01  0.59850280297E+00 -0.17834385494E+01  0.28361400860E+01  0.00000000000E+00 0. -1.
</event>
<event>
 8    1  0.4798632E-010  0.9118800E+02  0.7816164E-02  0.1184000E+00
        -11   -1    0    0    0    0  0.00000000000E+00  0.00000000000E+00  0.45593999997E+02  0.45594000000E+02  0.51100000000E-03 0. -1.
         11   -1    0    0    0    0 -0.00000000000E+00 -0.00000000000E+00 -0.45593999997E+02  0.45594000000E+02  0.51100000000E-03 0.  1.
         23    2    1    2    0    0  0.17763568394E-14 -0.12212453271E-14  0.00000000000E+00  0.91188000000E+02  0.91188000000E+02 0.  0.
    9900012    2    3    3    0    0 -0.15839381730E+02 -0.61419458840E+00  0.40402476104E+02  0.47787270468E+02  0.19999997373E+02 0.  0.
        -12    1    3    3    0    0  0.15839381730E+02  0.61419458840E+00 -0.40402476104E+02  0.43400729532E+02  0.00000000000E+00 0.  1.
         11    1    4    4    0    0 -0.51032570328E+01 -0.95095477954E+01  0.17542905507E+02  0.20596802312E+02  0.51100000000E-03 0.  1.
        -11    1    4    4    0    0 -0.88309097731E+01  0.75156930533E+01  0.21615178043E+02  0.24529299451E+02  0.51100000000E-03 0. -1.
        -12    1    4    4    0    0 -0.19052149237E+01  0.13796601537E+01  0.12443925543E+01  0.26611687046E+01  0.00000000000E+00 0.  1.
</event>
<event>
 8    1  0.4798632E-010  0.9118800E+02  0.7816164E-02  0.1184000E+00
        -11   -1    0    0    0    0  0.00000000000E+00  0.00000000000E+00  0.45593999997E+02  0.45594000000E+02  0.51100000000E-03 0.  1.
         11   -1    0    0    0    0 -0.00000000000E+00 -0.00000000000E+00 -0.45593999997E+02  0.45594000000E+02  0.51100000000E-03 0. -1.
         23    2    1    2    0    0  0.00000000000E+00  0.00000000000E+00 -0.17763568394E-14  0.91188000000E+02  0.91188000000E+02 0.  0.
    9900012    2    3    3    0    0 -0.37826530935E+02 -0.16736231295E+02 -0.13140606810E+02  0.47787269270E+02  0.19999991911E+02 0.  0.
         12    1    3    3    0    0  0.37826530935E+02  0.16736231295E+02  0.13140606810E+02  0.43400730730E+02  0.00000000000E+00 0. -1.
         11    1    4    4    0    0 -0.73847592708E+01 -0.18748329384E+01 -0.10445884966E+02  0.12929276122E+02  0.51100000000E-03 0. -1.
        -11    1    4    4    0    0 -0.29608272399E+02 -0.13558020459E+02 -0.40313907730E+01  0.32813439702E+02  0.51100000000E-03 0.  1.
         12    1    4    4    0    0 -0.83349926473E+00 -0.13033778977E+01  0.13366689297E+01  0.20445534466E+01  0.00000000000E+00 0. -1.
</event>
<event>
 8    1  0.4798632E-010  0.9118800E+02  0.7816164E-02  0.1184000E+00
        -11   -1    0    0    0    0  0.00000000000E+00  0.00000000000E+00  0.45593999997E+02  0.45594000000E+02  0.51100000000E-03 0. -1.
         11   -1    0    0    0    0 -0.00000000000E+00 -0.00000000000E+00 -0.45593999997E+02  0.45594000000E+02  0.51100000000E-03 0.  1.
         23    2    1    2    0    0  0.00000000000E+00  0.00000000000E+00  0.00000000000E+00  0.91188000000E+02  0.91188000000E+02 0.  0.
    9900012    2    3    3    0    0 -0.16051532533E+02 -0.87364185606E+01 -0.39365546305E+02  0.47787274870E+02  0.20000017440E+02 0.  0.
         12    1    3    3    0    0  0.16051532533E+02  0.87364185606E+01  0.39365546305E+02  0.43400725130E+02  0.00000000000E+00 0. -1.
         11    1    4    4    0    0 -0.13165567130E+02 -0.93216268249E+01 -0.35756926258E+02  0.39227320329E+02  0.51100000000E-03 0.  1.
        -11    1    4    4    0    0  0.80421014089E+00 -0.20183792391E+01  0.73527267259E+00  0.22937381864E+01  0.51100000000E-03 0. -1.
         12    1    4    4    0    0 -0.36901755438E+01  0.26035875035E+01 -0.43438927200E+01  0.62662163540E+01  0.00000000000E+00 0. -1.
</event>
<event>
 8    1  0.4798632E-010  0.9118800E+02  0.7816164E-02  0.1184000E+00
        -11   -1    0    0    0    0  0.00000000000E+00  0.00000000000E+00  0.45593999997E+02  0.45594000000E+02  0.51100000000E-03 0. -1.
         11   -1    0    0    0    0 -0.00000000000E+00 -0.00000000000E+00 -0.45593999997E+02  0.45594000000E+02  0.51100000000E-03 0.  1.
         23    2    1    2    0    0 -0.22204460493E-15  0.00000000000E+00  0.00000000000E+00  0.91188000000E+02  0.91188000000E+02 0.  0.
    9900012    2    3    3    0    0 -0.63063661239E+00 -0.33407926997E+02  0.27697217772E+02  0.47787272343E+02  0.20000005922E+02 0.  0.
        -12    1    3    3    0    0  0.63063661239E+00  0.33407926997E+02 -0.27697217772E+02  0.43400727657E+02  0.00000000000E+00 0.  1.
         11    1    4    4    0    0  0.37662880886E+01 -0.29630827627E+02  0.23860355615E+02  0.38229405465E+02  0.51100000000E-03 0. -1.
        -11    1    4    4    0    0 -0.10094023929E+01  0.18912383035E+01  0.11032149322E+01  0.24109663952E+01  0.51100000000E-03 0.  1.
         12    1    4    4    0    0 -0.33875223081E+01 -0.56683376734E+01  0.27336472250E+01  0.71469004833E+01  0.00000000000E+00 0. -1.
</event>
<event>
 8    1  0.4798632E-010  0.9118800E+02  0.7816164E-02  0.1184000E+00
        -11   -1    0    0    0    0  0.00000000000E+00  0.00000000000E+00  0.45593999997E+02  0.45594000000E+02  0.51100000000E-03 0.  1.
         11   -1    0    0    0    0 -0.00000000000E+00 -0.00000000000E+00 -0.45593999997E+02  0.45594000000E+02  0.51100000000E-03 0. -1.
         23    2    1    2    0    0  0.00000000000E+00 -0.17763568394E-14  0.00000000000E+00  0.91188000000E+02  0.91188000000E+02 0.  0.
    9900012    2    3    3    0    0 -0.36461356690E+02  0.13830680294E+02  0.19050019927E+02  0.47787291385E+02  0.20000092739E+02 0.  0.
        -12    1    3    3    0    0  0.36461356690E+02 -0.13830680294E+02 -0.19050019927E+02  0.43400708615E+02  0.00000000000E+00 0.  1.
         11    1    4    4    0    0 -0.23918470133E+02  0.64561380441E+01  0.18611606798E+02  0.30986559019E+02  0.51100000000E-03 0. -1.
        -11    1    4    4    0    0 -0.54683194460E+01  0.32292904191E+01  0.43683887530E+01  0.77080253459E+01  0.51100000000E-03 0.  1.
         12    1    4    4    0    0 -0.70745671108E+01  0.41452518312E+01 -0.39299756238E+01  0.90927070201E+01  0.00000000000E+00 0. -1.
</event>
<event>
 8    1  0.4798632E-010  0.9118800E+02  0.7816164E-02  0.1184000E+00
        -11   -1    0    0    0    0  0.00000000000E+00  0.00000000000E+00  0.45593999997E+02  0.45594000000E+02  0.51100000000E-03 0. -1.
         11   -1    0    0    0    0 -0.00000000000E+00 -0.00000000000E+00 -0.45593999997E+02  0.45594000000E+02  0.51100000000E-03 0.  1.
         23    2    1    2    0    0  0.35527136788E-14 -0.35527136788E-14 -0.71054273576E-14  0.91188000000E+02  0.91188000000E+02 0.  0.
    9900012    2    3    3    0    0  0.17371233572E+02 -0.22923524273E+02 -0.32501939211E+02  0.47787265290E+02  0.19999973764E+02 0.  0.
         12    1    3    3    0    0 -0.17371233572E+02  0.22923524273E+02  0.32501939211E+02  0.43400734710E+02  0.00000000000E+00 0. -1.
         11    1    4    4    0    0  0.71509853396E+00 -0.11618649769E+02 -0.14720009488E+02  0.18766541183E+02  0.51100000000E-03 0. -1.
        -11    1    4    4    0    0  0.14195013896E+02 -0.68310987933E+01 -0.17987530010E+02  0.23910532540E+02  0.51100000000E-03 0.  1.
         12    1    4    4    0    0  0.24611211416E+01 -0.44737757100E+01  0.20560028713E+00  0.51101915674E+01  0.00000000000E+00 0. -1.
</event>
<event>
 8    1  0.4798632E-010  0.9118800E+02  0.7816164E-02  0.1184000E+00
        -11   -1    0    0    0    0  0.00000000000E+00  0.00000000000E+00  0.45593999997E+02  0.45594000000E+02  0.51100000000E-03 0.  1.
         11   -1    0    0    0    0 -0.00000000000E+00 -0.00000000000E+00 -0.45593999997E+02  0.45594000000E+02  0.51100000000E-03 0. -1.
         23    2    1    2    0    0  0.35527136788E-14 -0.35527136788E-14  0.17763568394E-14  0.91188000000E+02  0.91188000000E+02 0.  0.
    9900012    2    3    3    0    0  0.31140880420E+02 -0.26388556490E+02 -0.14748320830E+02  0.47787270579E+02  0.19999997877E+02 0.  0.
        -12    1    3    3    0    0 -0.31140880420E+02  0.26388556490E+02  0.14748320830E+02  0.43400729421E+02  0.00000000000E+00 0.  1.
         11    1    4    4    0    0  0.88673700140E+01 -0.14135897799E+02 -0.10147906538E+02  0.19530331920E+02  0.51100000000E-03 0. -1.
        -11    1    4    4    0    0  0.98350120901E+00  0.86104842309E+00 -0.29160144229E+01  0.31955937462E+01  0.51100000000E-03 0.  1.
         12    1    4    4    0    0  0.21290009197E+02 -0.13113707115E+02 -0.16843998688E+01  0.25061344913E+02  0.00000000000E+00 0. -1.
</event>
<event>
 8    1  0.4798632E-010  0.9118800E+02  0.7816164E-02  0.1184000E+00
        -11   -1    0    0    0    0  0.00000000000E+00  0.00000000000E+00  0.45593999997E+02  0.45594000000E+02  0.51100000000E-03 0. -1.
         11   -1    0    0    0    0 -0.00000000000E+00 -0.00000000000E+00 -0.45593999997E+02  0.45594000000E+02  0.51100000000E-03 0.  1.
         23    2    1    2    0    0  0.35527136788E-14  0.00000000000E+00 -0.71054273576E-14  0.91188000000E+02  0.91188000000E+02 0.  0.
    9900012    2    3    3    0    0  0.30979694398E+02  0.10035809190E+02 -0.28690849015E+02  0.47787265579E+02  0.19999975082E+02 0.  0.
         12    1    3    3    0    0 -0.30979694398E+02 -0.10035809190E+02  0.28690849015E+02  0.43400734421E+02  0.00000000000E+00 0. -1.
         11    1    4    4    0    0  0.10885673779E+01 -0.28625812068E+01 -0.56824302871E+01  0.64551812004E+01  0.51100000000E-03 0. -1.
        -11    1    4    4    0    0  0.24409056612E+02  0.59551614761E+01 -0.14256726177E+02  0.28888063875E+02  0.51100000000E-03 0.  1.
         12    1    4    4    0    0  0.54820704084E+01  0.69432289210E+01 -0.87516925501E+01  0.12444020504E+02  0.00000000000E+00 0. -1.
</event>
<event>
 8    1  0.4798632E-010  0.9118800E+02  0.7816164E-02  0.1184000E+00
        -11   -1    0    0    0    0  0.00000000000E+00  0.00000000000E+00  0.45593999997E+02  0.45594000000E+02  0.51100000000E-03 0. -1.
         11   -1    0    0    0    0 -0.00000000000E+00 -0.00000000000E+00 -0.45593999997E+02  0.45594000000E+02  0.51100000000E-03 0.  1.
         23    2    1    2    0    0  0.00000000000E+00  0.88817841970E-15  0.00000000000E+00  0.91188000000E+02  0.91188000000E+02 0.  0.
    9900012    2    3    3    0    0 -0.36141311778E+01 -0.74452052464E+01  0.42604346814E+02  0.47787269675E+02  0.19999993755E+02 0.  0.
        -12    1    3    3    0    0  0.36141311778E+01  0.74452052464E+01 -0.42604346814E+02  0.43400730325E+02  0.00000000000E+00 0.  1.
         11    1    4    4    0    0  0.37741656969E+01 -0.83370194402E+01  0.19260037681E+02  0.21323678660E+02  0.51100000000E-03 0. -1.
        -11    1    4    4    0    0 -0.12905836507E+01  0.49401867050E+01  0.10639508754E+02  0.11801279491E+02  0.51100000000E-03 0.  1.
         12    1    4    4    0    0 -0.60977132240E+01 -0.40483725112E+01  0.12704800379E+02  0.14662311524E+02  0.00000000000E+00 0. -1.
</event>
<event>
 8    1  0.4798632E-010  0.9118800E+02  0.7816164E-02  0.1184000E+00
        -11   -1    0    0    0    0  0.00000000000E+00  0.00000000000E+00  0.45593999997E+02  0.45594000000E+02  0.51100000000E-03 0. -1.
         11   -1    0    0    0    0 -0.00000000000E+00 -0.00000000000E+00 -0.45593999997E+02  0.45594000000E+02  0.51100000000E-03 0.  1.
         23    2    1    2    0    0 -0.17763568394E-14  0.44408920985E-15 -0.71054273576E-14  0.91188000000E+02  0.91188000000E+02 0.  0.
    9900012    2    3    3    0    0  0.97205462897E+01 -0.30004791031E+01  0.42191621653E+02  0.47787253086E+02  0.19999918119E+02 0.  0.
        -12    1    3    3    0    0 -0.97205462897E+01  0.30004791031E+01 -0.42191621653E+02  0.43400746914E+02  0.00000000000E+00 0.  1.
         11    1    4    4    0    0  0.11715672116E+02 -0.32027351303E+01  0.13727557667E+02  0.18329220529E+02  0.51100000000E-03 0. -1.
        -11    1    4    4    0    0 -0.40951889921E+01 -0.13334982508E+01  0.23079062221E+02  0.23477476519E+02  0.51100000000E-03 0.  1.
         12    1    4    4    0    0  0.21000631658E+01  0.15357542779E+01  0.53850017654E+01  0.59805560374E+01  0.00000000000E+00 0. -1.
</event>
<event>
 8    1  0.4798632E-010  0.9118800E+02  0.7816164E-02  0.1184000E+00
        -11   -1    0    0    0    0  0.00000000000E+00  0.00000000000E+00  0.45593999997E+02  0.45594000000E+02  0.51100000000E-03 0.  1.
         11   -1    0    0    0    0 -0.00000000000E+00 -0.00000000000E+00 -0.45593999997E+02  0.45594000000E+02  0.51100000000E-03 0. -1.
         23    2    1    2    0    0  0.00000000000E+00 -0.44408920985E-15  0.00000000000E+00  0.91188000000E+02  0.91188000000E+02 0.  0.
    9900012    2    3    3    0    0 -0.27692037205E+02 -0.27490310972E+01  0.33304911325E+02  0.47787271724E+02  0.20000003098E+02 0.  0.
        -12    1    3    3    0    0  0.27692037205E+02  0.27490310972E+01 -0.33304911325E+02  0.43400728276E+02  0.00000000000E+00 0.  1.
         11    1    4    4    0    0 -0.21940215120E+02 -0.54731186784E+01  0.27075710698E+02  0.35276368544E+02  0.51100000000E-03 0. -1.
        -11    1    4    4    0    0 -0.18657153735E+01  0.52362216259E+01  0.55120942339E+01  0.78282880552E+01  0.51100000000E-03 0.  1.
        -12    1    4    4    0    0 -0.38861067113E+01 -0.25121340448E+01  0.71710639355E+00  0.46826151251E+01  0.00000000000E+00 0.  1.
</event>
<event>
 8    1  0.4798632E-010  0.9118800E+02  0.7816164E-02  0.1184000E+00
        -11   -1    0    0    0    0  0.00000000000E+00  0.00000000000E+00  0.45593999997E+02  0.45594000000E+02  0.51100000000E-03 0.  1.
         11   -1    0    0    0    0 -0.00000000000E+00 -0.00000000000E+00 -0.45593999997E+02  0.45594000000E+02  0.51100000000E-03 0. -1.
         23    2    1    2    0    0  0.00000000000E+00  0.00000000000E+00  0.88817841970E-15  0.91188000000E+02  0.91188000000E+02 0.  0.
    9900012    2    3    3    0    0 -0.42945341648E+02 -0.42460733101E+01  0.46143123146E+01  0.47787269754E+02  0.19999994115E+02 0.  0.
        -12    1    3    3    0    0  0.42945341648E+02  0.42460733101E+01 -0.46143123146E+01  0.43400730246E+02  0.00000000000E+00 0.  1.
         11    1    4    4    0    0 -0.32950609098E+02  0.27457729295E+01  0.49242188159E+01  0.33429475618E+02  0.51100000000E-03 0. -1.
        -11    1    4    4    0    0  0.10579052822E+01 -0.12837884930E+01  0.84299928488E+00  0.18649194449E+01  0.51100000000E-03 0.  1.
        -12    1    4    4    0    0 -0.11052637832E+02 -0.57080577467E+01 -0.11529057862E+01  0.12492874690E+02  0.00000000000E+00 0.  1.
</event>
<event>
 8    1  0.4798632E-010  0.9118800E+02  0.7816164E-02  0.1184000E+00
        -11   -1    0    0    0    0  0.00000000000E+00  0.00000000000E+00  0.45593999997E+02  0.45594000000E+02  0.51100000000E-03 0. -1.
         11   -1    0    0    0    0 -0.00000000000E+00 -0.00000000000E+00 -0.45593999997E+02  0.45594000000E+02  0.51100000000E-03 0.  1.
         23    2    1    2    0    0  0.00000000000E+00  0.00000000000E+00 -0.35527136788E-14  0.91188000000E+02  0.91188000000E+02 0.  0.
    9900012    2    3    3    0    0 -0.35131107118E+02  0.16504138840E+02 -0.19417571429E+02  0.47787269979E+02  0.19999995143E+02 0.  0.
         12    1    3    3    0    0  0.35131107118E+02 -0.16504138840E+02  0.19417571429E+02  0.43400730021E+02  0.00000000000E+00 0. -1.
         11    1    4    4    0    0 -0.84433329453E+01  0.15520901550E+01  0.24897879864E+01  0.89385624992E+01  0.51100000000E-03 0. -1.
        -11    1    4    4    0    0 -0.30714347506E+01  0.44288403641E+01 -0.75203595174E+00  0.54418651887E+01  0.51100000000E-03 0.  1.
        -12    1    4    4    0    0 -0.23616339422E+02  0.10523208321E+02 -0.21155323463E+02  0.33406842291E+02  0.00000000000E+00 0.  1.
</event>
<event>
 8    1  0.4798632E-010  0.9118800E+02  0.7816164E-02  0.1184000E+00
        -11   -1    0    0    0    0  0.00000000000E+00  0.00000000000E+00  0.45593999997E+02  0.45594000000E+02  0.51100000000E-03 0. -1.
         11   -1    0    0    0    0 -0.00000000000E+00 -0.00000000000E+00 -0.45593999997E+02  0.45594000000E+02  0.51100000000E-03 0.  1.
         23    2    1    2    0    0  0.00000000000E+00 -0.35527136788E-14 -0.35527136788E-14  0.91188000000E+02  0.91188000000E+02 0.  0.
    9900012    2    3    3    0    0 -0.17613978787E+02 -0.28487375426E+02  0.27601456912E+02  0.47787271538E+02  0.20000002250E+02 0.  0.
        -12    1    3    3    0    0  0.17613978787E+02  0.28487375426E+02 -0.27601456912E+02  0.43400728462E+02  0.00000000000E+00 0.  1.
         11    1    4    4    0    0 -0.40964535500E+01 -0.95193799448E+01  0.11584503638E+02  0.15543495457E+02  0.51100000000E-03 0. -1.
        -11    1    4    4    0    0 -0.60663978709E+01  0.25891398861E+00 -0.99195864408E-01  0.60727308241E+01  0.51100000000E-03 0.  1.
        -12    1    4    4    0    0 -0.74511273664E+01 -0.19226909470E+02  0.16116149139E+02  0.26171045257E+02  0.00000000000E+00 0.  1.
</event>
<event>
 8    1  0.4798632E-010  0.9118800E+02  0.7816164E-02  0.1184000E+00
        -11   -1    0    0    0    0  0.00000000000E+00  0.00000000000E+00  0.45593999997E+02  0.45594000000E+02  0.51100000000E-03 0. -1.
         11   -1    0    0    0    0 -0.00000000000E+00 -0.00000000000E+00 -0.45593999997E+02  0.45594000000E+02  0.51100000000E-03 0.  1.
         23    2    1    2    0    0  0.00000000000E+00  0.00000000000E+00  0.00000000000E+00  0.91188000000E+02  0.91188000000E+02 0.  0.
    9900012    2    3    3    0    0 -0.41691511096E+02 -0.41198139596E+01  0.11334355137E+02  0.47787279143E+02  0.20000036926E+02 0.  0.
        -12    1    3    3    0    0  0.41691511096E+02  0.41198139596E+01 -0.11334355137E+02  0.43400720857E+02  0.00000000000E+00 0.  1.
         11    1    4    4    0    0 -0.25774157397E+02 -0.55932979361E+01  0.48517839042E+01  0.26816636229E+02  0.51100000000E-03 0. -1.
        -11    1    4    4    0    0 -0.82106111409E+01  0.67127025800E+01  0.39085700989E+01  0.11302717891E+02  0.51100000000E-03 0.  1.
        -12    1    4    4    0    0 -0.77067425576E+01 -0.52392186035E+01  0.25740011339E+01  0.96679250236E+01  0.00000000000E+00 0.  1.
</event>
<event>
 8    1  0.4798632E-010  0.9118800E+02  0.7816164E-02  0.1184000E+00
        -11   -1    0    0    0    0  0.00000000000E+00  0.00000000000E+00  0.45593999997E+02  0.45594000000E+02  0.51100000000E-03 0. -1.
         11   -1    0    0    0    0 -0.00000000000E+00 -0.00000000000E+00 -0.45593999997E+02  0.45594000000E+02  0.51100000000E-03 0.  1.
         23    2    1    2    0    0 -0.35527136788E-14 -0.35527136788E-14 -0.71054273576E-14  0.91188000000E+02  0.91188000000E+02 0.  0.
    9900012    2    3    3    0    0  0.17499037097E+02  0.31801813062E+02  0.23791833315E+02  0.47787274824E+02  0.20000017231E+02 0.  0.
        -12    1    3    3    0    0 -0.17499037097E+02 -0.31801813062E+02 -0.23791833315E+02  0.43400725176E+02  0.00000000000E+00 0.  1.
         11    1    4    4    0    0  0.34381020977E+01  0.10576670874E+02  0.82466767599E+01  0.13845367119E+02  0.51100000000E-03 0. -1.
        -11    1    4    4    0    0 -0.34703797634E+01  0.17351403313E+01  0.28552427785E+01  0.48173290584E+01  0.51100000000E-03 0.  1.
        -12    1    4    4    0    0  0.17531314763E+02  0.19490001857E+02  0.12689913776E+02  0.29124578647E+02  0.00000000000E+00 0.  1.
</event>
<event>
 8    1  0.4798632E-010  0.9118800E+02  0.7816164E-02  0.1184000E+00
        -11   -1    0    0    0    0  0.00000000000E+00  0.00000000000E+00  0.45593999997E+02  0.45594000000E+02  0.51100000000E-03 0. -1.
         11   -1    0    0    0    0 -0.00000000000E+00 -0.00000000000E+00 -0.45593999997E+02  0.45594000000E+02  0.51100000000E-03 0.  1.
         23    2    1    2    0    0  0.00000000000E+00  0.00000000000E+00  0.14210854715E-13  0.91188000000E+02  0.91188000000E+02 0.  0.
    9900012    2    3    3    0    0 -0.42240589686E+01  0.15070020267E+02 -0.40480554568E+02  0.47787268634E+02  0.19999989008E+02 0.  0.
         12    1    3    3    0    0  0.42240589686E+01 -0.15070020267E+02  0.40480554568E+02  0.43400731366E+02  0.00000000000E+00 0. -1.
         11    1    4    4    0    0 -0.59336158322E+01 -0.10039390517E+01 -0.54748346414E+01  0.81356932756E+01  0.51100000000E-03 0. -1.
        -11    1    4    4    0    0  0.38364055234E+01  0.13293665277E+02 -0.20520236900E+02  0.24749134662E+02  0.51100000000E-03 0.  1.
         12    1    4    4    0    0 -0.21268486598E+01  0.27802940423E+01 -0.14485483027E+02  0.14902440696E+02  0.00000000000E+00 0. -1.
</event>
<event>
 8    1  0.4798632E-010  0.9118800E+02  0.7816164E-02  0.1184000E+00
        -11   -1    0    0    0    0  0.00000000000E+00  0.00000000000E+00  0.45593999997E+02  0.45594000000E+02  0.51100000000E-03 0. -1.
         11   -1    0    0    0    0 -0.00000000000E+00 -0.00000000000E+00 -0.45593999997E+02  0.45594000000E+02  0.51100000000E-03 0.  1.
         23    2    1    2    0    0 -0.88817841970E-15  0.00000000000E+00  0.71054273576E-14  0.91188000000E+02  0.91188000000E+02 0.  0.
    9900012    2    3    3    0    0  0.68200653405E+01  0.24469802613E+02  0.35190043872E+02  0.47787265918E+02  0.19999976625E+02 0.  0.
        -12    1    3    3    0    0 -0.68200653405E+01 -0.24469802613E+02 -0.35190043872E+02  0.43400734082E+02  0.00000000000E+00 0.  1.
         11    1    4    4    0    0  0.17354096771E+01  0.24742418113E+01 -0.17539644536E+01  0.34942682859E+01  0.51100000000E-03 0.  1.
        -11    1    4    4    0    0  0.58978665992E-01  0.12394283276E+01 -0.37436400680E+00  0.12960747405E+01  0.51100000000E-03 0. -1.
         12    1    4    4    0    0  0.50256769974E+01  0.20756132474E+02  0.37318372332E+02  0.42996922891E+02  0.00000000000E+00 0. -1.
</event>
<event>
 8    1  0.4798632E-010  0.9118800E+02  0.7816164E-02  0.1184000E+00
        -11   -1    0    0    0    0  0.00000000000E+00  0.00000000000E+00  0.45593999997E+02  0.45594000000E+02  0.51100000000E-03 0. -1.
         11   -1    0    0    0    0 -0.00000000000E+00 -0.00000000000E+00 -0.45593999997E+02  0.45594000000E+02  0.51100000000E-03 0.  1.
         23    2    1    2    0    0 -0.17763568394E-14  0.00000000000E+00  0.00000000000E+00  0.91188000000E+02  0.91188000000E+02 0.  0.
    9900012    2    3    3    0    0 -0.12921913035E+02  0.15313413824E+02  0.38498660828E+02  0.47787269995E+02  0.19999995215E+02 0.  0.
        -12    1    3    3    0    0  0.12921913035E+02 -0.15313413824E+02 -0.38498660828E+02  0.43400730005E+02  0.00000000000E+00 0.  1.
         11    1    4    4    0    0  0.62732562268E+00  0.67184248008E+01  0.26816915477E+01  0.72610081297E+01  0.51100000000E-03 0. -1.
        -11    1    4    4    0    0 -0.56961839733E+01 -0.17237334314E+01  0.12559196723E+02  0.13897884421E+02  0.51100000000E-03 0.  1.
         12    1    4    4    0    0 -0.78530546847E+01  0.10318722455E+02  0.23257772557E+02  0.26628377444E+02  0.00000000000E+00 0. -1.
</event>
<event>
 8    1  0.4798632E-010  0.9118800E+02  0.7816164E-02  0.1184000E+00
        -11   -1    0    0    0    0  0.00000000000E+00  0.00000000000E+00  0.45593999997E+02  0.45594000000E+02  0.51100000000E-03 0. -1.
         11   -1    0    0    0    0 -0.00000000000E+00 -0.00000000000E+00 -0.45593999997E+02  0.45594000000E+02  0.51100000000E-03 0.  1.
         23    2    1    2    0    0 -0.35527136788E-14  0.71054273576E-14 -0.88817841970E-15  0.91188000000E+02  0.91188000000E+02 0.  0.
    9900012    2    3    3    0    0 -0.25404555152E+02 -0.34637096650E+02  0.62050936233E+01  0.47787273351E+02  0.20000010515E+02 0.  0.
        -12    1    3    3    0    0  0.25404555152E+02  0.34637096650E+02 -0.62050936233E+01  0.43400726649E+02  0.00000000000E+00 0.  1.
         11    1    4    4    0    0 -0.10813622350E+02 -0.19026106539E+02  0.12205068819E+02  0.25057750567E+02  0.51100000000E-03 0. -1.
        -11    1    4    4    0    0 -0.12819203920E+02 -0.15406498655E+02 -0.60801773078E+01  0.20944229427E+02  0.51100000000E-03 0.  1.
         12    1    4    4    0    0 -0.17717288826E+01 -0.20449145581E+00  0.80202112135E-01  0.17852933562E+01  0.00000000000E+00 0. -1.
</event>
<event>
 8    1  0.4798632E-010  0.9118800E+02  0.7816164E-02  0.1184000E+00
        -11   -1    0    0    0    0  0.00000000000E+00  0.00000000000E+00  0.45593999997E+02  0.45594000000E+02  0.51100000000E-03 0.  1.
         11   -1    0    0    0    0 -0.00000000000E+00 -0.00000000000E+00 -0.45593999997E+02  0.45594000000E+02  0.51100000000E-03 0. -1.
         23    2    1    2    0    0 -0.71054273576E-14 -0.17763568394E-14  0.00000000000E+00  0.91188000000E+02  0.91188000000E+02 0.  0.
    9900012    2    3    3    0    0  0.36165250731E+02  0.11767129025E+02 -0.20910076278E+02  0.47787285998E+02  0.20000068180E+02 0.  0.
         12    1    3    3    0    0 -0.36165250731E+02 -0.11767129025E+02  0.20910076278E+02  0.43400714002E+02  0.00000000000E+00 0. -1.
         11    1    4    4    0    0  0.12966049611E+02  0.83282983236E+01 -0.15844609886E+02  0.22102729655E+02  0.51100000000E-03 0. -1.
        -11    1    4    4    0    0  0.15236383337E+02  0.48756851303E+01 -0.68439667783E+01  0.17399987477E+02  0.51100000000E-03 0.  1.
         12    1    4    4    0    0  0.79628177821E+01 -0.14368544287E+01  0.17785003858E+01  0.82845688664E+01  0.00000000000E+00 0. -1.
</event>
<event>
 8    1  0.4798632E-010  0.9118800E+02  0.7816164E-02  0.1184000E+00
        -11   -1    0    0    0    0  0.00000000000E+00  0.00000000000E+00  0.45593999997E+02  0.45594000000E+02  0.51100000000E-03 0. -1.
         11   -1    0    0    0    0 -0.00000000000E+00 -0.00000000000E+00 -0.45593999997E+02  0.45594000000E+02  0.51100000000E-03 0.  1.
         23    2    1    2    0    0  0.00000000000E+00  0.00000000000E+00 -0.44408920985E-15  0.91188000000E+02  0.91188000000E+02 0.  0.
    9900012    2    3    3    0    0  0.43241115886E+02  0.23537962349E+01  0.28789951937E+01  0.47787273358E+02  0.20000010547E+02 0.  0.
        -12    1    3    3    0    0 -0.43241115886E+02 -0.23537962349E+01 -0.28789951937E+01  0.43400726642E+02  0.00000000000E+00 0.  1.
         11    1    4    4    0    0  0.31711230243E+02  0.36770149638E+01 -0.56911777760E+01  0.32427026804E+02  0.51100000000E-03 0. -1.
        -11    1    4    4    0    0  0.26107429709E+01 -0.20099396628E+01  0.43828732614E+01  0.54831938316E+01  0.51100000000E-03 0.  1.
        -12    1    4    4    0    0  0.89191426715E+01  0.68672093388E+00  0.41872997083E+01  0.98770527225E+01  0.00000000000E+00 0.  1.
</event>
<event>
 8    1  0.4798632E-010  0.9118800E+02  0.7816164E-02  0.1184000E+00
        -11   -1    0    0    0    0  0.00000000000E+00  0.00000000000E+00  0.45593999997E+02  0.45594000000E+02  0.51100000000E-03 0. -1.
         11   -1    0    0    0    0 -0.00000000000E+00 -0.00000000000E+00 -0.45593999997E+02  0.45594000000E+02  0.51100000000E-03 0.  1.
         23    2    1    2    0    0  0.88817841970E-15  0.17763568394E-14  0.00000000000E+00  0.91188000000E+02  0.91188000000E+02 0.  0.
    9900012    2    3    3    0    0  0.73240000797E+01  0.15834498108E+02  0.39739776348E+02  0.47787284203E+02  0.20000059997E+02 0.  0.
        -12    1    3    3    0    0 -0.73240000797E+01 -0.15834498108E+02 -0.39739776348E+02  0.43400715797E+02  0.00000000000E+00 0.  1.
         11    1    4    4    0    0 -0.31546346623E+01  0.11259876954E+02  0.12476136541E+02  0.17099430754E+02  0.51100000000E-03 0. -1.
        -11    1    4    4    0    0  0.11361675896E+02  0.22467496366E+01  0.22968262982E+02  0.25723076561E+02  0.51100000000E-03 0.  1.
        -12    1    4    4    0    0 -0.88304115434E+00  0.23278715173E+01  0.42953768254E+01  0.49647768886E+01  0.00000000000E+00 0.  1.
</event>
<event>
 8    1  0.4798632E-010  0.9118800E+02  0.7816164E-02  0.1184000E+00
        -11   -1    0    0    0    0  0.00000000000E+00  0.00000000000E+00  0.45593999997E+02  0.45594000000E+02  0.51100000000E-03 0. -1.
         11   -1    0    0    0    0 -0.00000000000E+00 -0.00000000000E+00 -0.45593999997E+02  0.45594000000E+02  0.51100000000E-03 0.  1.
         23    2    1    2    0    0  0.71054273576E-14  0.00000000000E+00  0.00000000000E+00  0.91188000000E+02  0.91188000000E+02 0.  0.
    9900012    2    3    3    0    0  0.37920456708E+02 -0.10564193969E+02  0.18277305751E+02  0.47787272625E+02  0.20000007206E+02 0.  0.
        -12    1    3    3    0    0 -0.37920456708E+02  0.10564193969E+02 -0.18277305751E+02  0.43400727375E+02  0.00000000000E+00 0.  1.
         11    1    4    4    0    0  0.31268260919E+02 -0.11481935651E+02  0.99977864251E+01  0.34777790626E+02  0.51100000000E-03 0. -1.
        -11    1    4    4    0    0  0.33842447188E+01  0.30028413201E+01  0.81332412698E+00  0.45969190451E+01  0.51100000000E-03 0.  1.
        -12    1    4    4    0    0  0.32679510705E+01 -0.20850996379E+01  0.74661951990E+01  0.84125629536E+01  0.00000000000E+00 0.  1.
</event>
<event>
 8    1  0.4798632E-010  0.9118800E+02  0.7816164E-02  0.1184000E+00
        -11   -1    0    0    0    0  0.00000000000E+00  0.00000000000E+00  0.45593999997E+02  0.45594000000E+02  0.51100000000E-03 0. -1.
         11   -1    0    0    0    0 -0.00000000000E+00 -0.00000000000E+00 -0.45593999997E+02  0.45594000000E+02  0.51100000000E-03 0.  1.
         23    2    1    2    0    0 -0.35527136788E-14  0.00000000000E+00  0.00000000000E+00  0.91188000000E+02  0.91188000000E+02 0.  0.
    9900012    2    3    3    0    0 -0.18265029537E+02 -0.38736011827E+02  0.70379895048E+01  0.47787271751E+02  0.20000003223E+02 0.  0.
        -12    1    3    3    0    0  0.18265029537E+02  0.38736011827E+02 -0.70379895048E+01  0.43400728249E+02  0.00000000000E+00 0.  1.
         11    1    4    4    0    0 -0.14911020507E+02 -0.24279774705E+02  0.19761391313E+01  0.28561357083E+02  0.51100000000E-03 0. -1.
        -11    1    4    4    0    0  0.20531763770E+01  0.91723105782E+00  0.71080149380E+00  0.23584073171E+01  0.51100000000E-03 0.  1.
        -12    1    4    4    0    0 -0.54071854075E+01 -0.15373468180E+02  0.43510488797E+01  0.16867507352E+02  0.00000000000E+00 0.  1.
</event>
<event>
 8    1  0.4798632E-010  0.9118800E+02  0.7816164E-02  0.1184000E+00
        -11   -1    0    0    0    0  0.00000000000E+00  0.00000000000E+00  0.45593999997E+02  0.45594000000E+02  0.51100000000E-03 0. -1.
         11   -1    0    0    0    0 -0.00000000000E+00 -0.00000000000E+00 -0.45593999997E+02  0.45594000000E+02  0.51100000000E-03 0.  1.
         23    2    1    2    0    0 -0.88817841970E-15 -0.17763568394E-14  0.00000000000E+00  0.91188000000E+02  0.91188000000E+02 0.  0.
    9900012    2    3    3    0    0 -0.42283741666E+01  0.13225304285E+02 -0.41119708726E+02  0.47787328724E+02  0.20000262982E+02 0.  0.
         12    1    3    3    0    0  0.42283741666E+01 -0.13225304285E+02  0.41119708726E+02  0.43400671276E+02  0.00000000000E+00 0. -1.
         11    1    4    4    0    0  0.36231480036E+00  0.17691364914E+01 -0.96567954037E+00  0.20478411011E+01  0.51100000000E-03 0. -1.
        -11    1    4    4    0    0  0.46695716080E+00  0.14626140586E+02 -0.34678009726E+02  0.37639160408E+02  0.51100000000E-03 0.  1.
        -12    1    4    4    0    0 -0.50576461278E+01 -0.31699727922E+01 -0.54760194595E+01  0.81003272142E+01  0.00000000000E+00 0.  1.
</event>
<event>
 8    1 -0.4798632E-010  0.9118800E+02  0.7816164E-02  0.1184000E+00
        -11   -1    0    0    0    0  0.00000000000E+00  0.00000000000E+00  0.45593999997E+02  0.45594000000E+02  0.51100000000E-03 0.  1.
         11   -1    0    0    0    0 -0.00000000000E+00 -0.00000000000E+00 -0.45593999997E+02  0.45594000000E+02  0.51100000000E-03 0. -1.
         23    2    1    2    0    0  0.00000000000E+00  0.00000000000E+00  0.00000000000E+00  0.91188000000E+02  0.91188000000E+02 0.  0.
    9900012    2    3    3    0    0 -0.20108355494E+02 -0.31532866663E+02  0.22021705953E+02  0.47787272198E+02  0.20000005260E+02 0.  0.
        -12    1    3    3    0    0  0.20108355494E+02  0.31532866663E+02 -0.22021705953E+02  0.43400727802E+02  0.00000000000E+00 0.  1.
         11    1    4    4    0    0 -0.81401403926E+01 -0.16528927437E+02  0.17787061855E+01  0.18510297777E+02  0.51100000000E-03 0. -1.
        -11    1    4    4    0    0 -0.80993982158E+01 -0.49266567388E+01  0.53564533300E+01  0.10888700134E+02  0.51100000000E-03 0.  1.
         12    1    4    4    0    0 -0.38688168859E+01 -0.10077282487E+02  0.14886546437E+02  0.18388274287E+02  0.00000000000E+00 0. -1.
</event>
<event>
 8    1  0.4798632E-010  0.9118800E+02  0.7816164E-02  0.1184000E+00
        -11   -1    0    0    0    0  0.00000000000E+00  0.00000000000E+00  0.45593999997E+02  0.45594000000E+02  0.51100000000E-03 0. -1.
         11   -1    0    0    0    0 -0.00000000000E+00 -0.00000000000E+00 -0.45593999997E+02  0.45594000000E+02  0.51100000000E-03 0.  1.
         23    2    1    2    0    0  0.88817841970E-15  0.00000000000E+00  0.00000000000E+00  0.91188000000E+02  0.91188000000E+02 0.  0.
    9900012    2    3    3    0    0  0.61411106677E+01 -0.22519584593E+02  0.36589320356E+02  0.47787270806E+02  0.19999998914E+02 0.  0.
        -12    1    3    3    0    0 -0.61411106677E+01  0.22519584593E+02 -0.36589320356E+02  0.43400729194E+02  0.00000000000E+00 0.  1.
         11    1    4    4    0    0  0.62589285663E+01 -0.72431104545E+01  0.21723796242E+02  0.23739422050E+02  0.51100000000E-03 0. -1.
        -11    1    4    4    0    0 -0.36443172445E+01 -0.61336537167E+01  0.12044293884E+01  0.72355653897E+01  0.51100000000E-03 0.  1.
        -12    1    4    4    0    0  0.35264993459E+01 -0.91428204216E+01  0.13661094726E+02  0.16812283367E+02  0.00000000000E+00 0.  1.
</event>
<event>
 8    1  0.4798632E-010  0.9118800E+02  0.7816164E-02  0.1184000E+00
        -11   -1    0    0    0    0  0.00000000000E+00  0.00000000000E+00  0.45593999997E+02  0.45594000000E+02  0.51100000000E-03 0. -1.
         11   -1    0    0    0    0 -0.00000000000E+00 -0.00000000000E+00 -0.45593999997E+02  0.45594000000E+02  0.51100000000E-03 0.  1.
         23    2    1    2    0    0  0.00000000000E+00  0.00000000000E+00  0.97144514655E-16  0.91188000000E+02  0.91188000000E+02 0.  0.
    9900012    2    3    3    0    0  0.43349933840E+02 -0.20961027584E+01  0.11237508252E+00  0.47787273752E+02  0.20000012343E+02 0.  0.
         12    1    3    3    0    0 -0.43349933840E+02  0.20961027584E+01 -0.11237508252E+00  0.43400726248E+02  0.00000000000E+00 0. -1.
         11    1    4    4    0    0  0.63834445842E+01 -0.49985893897E+01  0.56068303363E+01  0.98575254160E+01  0.51100000000E-03 0. -1.
        -11    1    4    4    0    0  0.36309967514E+02  0.19504622318E+01 -0.51651655347E+01  0.36727332861E+02  0.51100000000E-03 0.  1.
         12    1    4    4    0    0  0.65652174172E+00  0.95202439951E+00 -0.32928971905E+00  0.12024154747E+01  0.00000000000E+00 0. -1.
</event>
<event>
 8    1  0.6908498E-010  0.9118800E+02  0.7816164E-02  0.1184000E+00
        -11   -1    0    0    0    0  0.00000000000E+00  0.00000000000E+00  0.45593999997E+02  0.45594000000E+02  0.51100000000E-03 0. -1.
         11   -1    0    0    0    0 -0.00000000000E+00 -0.00000000000E+00 -0.45593999997E+02  0.45594000000E+02  0.51100000000E-03 0.  1.
         23    2    1    2    0    0  0.00000000000E+00  0.00000000000E+00 -0.35527136788E-14  0.91188000000E+02  0.91188000000E+02 0.  0.
    9900012    2    3    3    0    0  0.63799979886E+01  0.31557997392E+02 -0.29103467128E+02  0.47787269906E+02  0.19999994811E+02 0.  0.
         12    1    3    3    0    0 -0.63799979886E+01 -0.31557997392E+02  0.29103467128E+02  0.43400730094E+02  0.00000000000E+00 0. -1.
         11    1    4    4    0    0 -0.18055748398E+01  0.13428814879E+01  0.18639493595E+01  0.29219409078E+01  0.51100000000E-03 0. -1.
        -11    1    4    4    0    0  0.48279667724E+01  0.14703346601E+02 -0.21136018833E+02  0.26195972148E+02  0.51100000000E-03 0.  1.
        -12    1    4    4    0    0  0.33576060560E+01  0.15511769304E+02 -0.98313976552E+01  0.18669356851E+02  0.00000000000E+00 0.  1.
</event>
<event>
 8    1  0.4798632E-010  0.9118800E+02  0.7816164E-02  0.1184000E+00
        -11   -1    0    0    0    0  0.00000000000E+00  0.00000000000E+00  0.45593999997E+02  0.45594000000E+02  0.51100000000E-03 0. -1.
         11   -1    0    0    0    0 -0.00000000000E+00 -0.00000000000E+00 -0.45593999997E+02  0.45594000000E+02  0.51100000000E-03 0.  1.
         23    2    1    2    0    0  0.00000000000E+00  0.00000000000E+00  0.35527136788E-14  0.91188000000E+02  0.91188000000E+02 0.  0.
    9900012    2    3    3    0    0 -0.29245978350E+02 -0.27691055562E+02  0.16171011554E+02  0.47787269333E+02  0.19999992196E+02 0.  0.
        -12    1    3    3    0    0  0.29245978350E+02  0.27691055562E+02 -0.16171011554E+02  0.43400730667E+02  0.00000000000E+00 0.  1.
         11    1    4    4    0    0 -0.16087573308E+02 -0.11596440572E+02  0.81554790552E+01  0.21442930951E+02  0.51100000000E-03 0. -1.
        -11    1    4    4    0    0 -0.19791041531E+01  0.17123111811E+01 -0.17638846492E+01  0.31559708723E+01  0.51100000000E-03 0.  1.
        -12    1    4    4    0    0 -0.11179300890E+02 -0.17806926171E+02  0.97794171478E+01  0.23188367510E+02  0.00000000000E+00 0.  1.
</event>
<event>
 8    1  0.4798632E-010  0.9118800E+02  0.7816164E-02  0.1184000E+00
        -11   -1    0    0    0    0  0.00000000000E+00  0.00000000000E+00  0.45593999997E+02  0.45594000000E+02  0.51100000000E-03 0. -1.
         11   -1    0    0    0    0 -0.00000000000E+00 -0.00000000000E+00 -0.45593999997E+02  0.45594000000E+02  0.51100000000E-03 0.  1.
         23    2    1    2    0    0  0.17763568394E-14 -0.35527136788E-14  0.00000000000E+00  0.91188000000E+02  0.91188000000E+02 0.  0.
    9900012    2    3    3    0    0 -0.15430263941E+02  0.28860908350E+02  0.28505748532E+02  0.47787276787E+02  0.20000026181E+02 0.  0.
        -12    1    3    3    0    0  0.15430263941E+02 -0.28860908350E+02 -0.28505748532E+02  0.43400723213E+02  0.00000000000E+00 0.  1.
         11    1    4    4    0    0 -0.63658863826E+01  0.47842585387E+01  0.46378793274E+00  0.79767624203E+01  0.51100000000E-03 0. -1.
        -11    1    4    4    0    0 -0.11253857400E+02  0.22761352428E+02  0.26965636075E+02  0.37038817474E+02  0.51100000000E-03 0.  1.
        -12    1    4    4    0    0  0.21894798407E+01  0.13152973833E+01  0.10763245245E+01  0.27716968921E+01  0.00000000000E+00 0.  1.
</event>
<event>
 8    1  0.4798632E-010  0.9118800E+02  0.7816164E-02  0.1184000E+00
        -11   -1    0    0    0    0  0.00000000000E+00  0.00000000000E+00  0.45593999997E+02  0.45594000000E+02  0.51100000000E-03 0. -1.
         11   -1    0    0    0    0 -0.00000000000E+00 -0.00000000000E+00 -0.45593999997E+02  0.45594000000E+02  0.51100000000E-03 0.  1.
         23    2    1    2    0    0 -0.35527136788E-14  0.00000000000E+00  0.17763568394E-14  0.91188000000E+02  0.91188000000E+02 0.  0.
    9900012    2    3    3    0    0 -0.30184709683E+02  0.28115318059E+02  0.13492039187E+02  0.47787275010E+02  0.20000018082E+02 0.  0.
        -12    1    3    3    0    0  0.30184709683E+02 -0.28115318059E+02 -0.13492039187E+02  0.43400724990E+02  0.00000000000E+00 0.  1.
         11    1    4    4    0    0 -0.41399152577E+01  0.13494393789E+02  0.78880584894E+01  0.16169694774E+02  0.51100000000E-03 0. -1.
        -11    1    4    4    0    0 -0.11630805997E+02  0.63121008362E+01 -0.18952404071E+01  0.13368253497E+02  0.51100000000E-03 0.  1.
         12    1    4    4    0    0 -0.14413988428E+02  0.83088234337E+01  0.74992211050E+01  0.18249326740E+02  0.00000000000E+00 0. -1.
</event>
<event>
 8    1  0.4798632E-010  0.9118800E+02  0.7816164E-02  0.1184000E+00
        -11   -1    0    0    0    0  0.00000000000E+00  0.00000000000E+00  0.45593999997E+02  0.45594000000E+02  0.51100000000E-03 0. -1.
         11   -1    0    0    0    0 -0.00000000000E+00 -0.00000000000E+00 -0.45593999997E+02  0.45594000000E+02  0.51100000000E-03 0.  1.
         23    2    1    2    0    0  0.00000000000E+00  0.00000000000E+00  0.17763568394E-14  0.91188000000E+02  0.91188000000E+02 0.  0.
    9900012    2    3    3    0    0 -0.81162632245E+01  0.41050810092E+02  0.11514362498E+02  0.47787270954E+02  0.19999999590E+02 0.  0.
        -12    1    3    3    0    0  0.81162632245E+01 -0.41050810092E+02 -0.11514362498E+02  0.43400729046E+02  0.00000000000E+00 0.  1.
         11    1    4    4    0    0 -0.26643930954E+01  0.12119975082E+02  0.90830443625E+01  0.15378377083E+02  0.51100000000E-03 0. -1.
        -11    1    4    4    0    0 -0.45442300247E+01  0.19324351594E+02 -0.47122771579E+01  0.20403091612E+02  0.51100000000E-03 0.  1.
        -12    1    4    4    0    0 -0.90764010451E+00  0.96064834163E+01  0.71435952932E+01  0.12005802260E+02  0.00000000000E+00 0.  1.
</event>
<event>
 8    1  0.4798632E-010  0.9118800E+02  0.7816164E-02  0.1184000E+00
        -11   -1    0    0    0    0  0.00000000000E+00  0.00000000000E+00  0.45593999997E+02  0.45594000000E+02  0.51100000000E-03 0. -1.
         11   -1    0    0    0    0 -0.00000000000E+00 -0.00000000000E+00 -0.45593999997E+02  0.45594000000E+02  0.51100000000E-03 0.  1.
         23    2    1    2    0    0  0.44408920985E-15  0.00000000000E+00  0.35527136788E-14  0.91188000000E+02  0.91188000000E+02 0.  0.
    9900012    2    3    3    0    0  0.33718222047E+01  0.33688866371E+02  0.27153515116E+02  0.47787282432E+02  0.20000051919E+02 0.  0.
        -12    1    3    3    0    0 -0.33718222047E+01 -0.33688866371E+02 -0.27153515116E+02  0.43400717568E+02  0.00000000000E+00 0.  1.
         11    1    4    4    0    0  0.10399476130E+02  0.20347899165E+02  0.11125623036E+02  0.25415853171E+02  0.51100000000E-03 0. -1.
        -11    1    4    4    0    0 -0.62495851354E+01  0.11850439646E+02  0.15732958285E+02  0.20664370564E+02  0.51100000000E-03 0.  1.
         12    1    4    4    0    0 -0.77806879030E+00  0.14905275600E+01  0.29493379474E+00  0.17070586963E+01  0.00000000000E+00 0. -1.
</event>
<event>
 8    1  0.4798632E-010  0.9118800E+02  0.7816164E-02  0.1184000E+00
        -11   -1    0    0    0    0  0.00000000000E+00  0.00000000000E+00  0.45593999997E+02  0.45594000000E+02  0.51100000000E-03 0. -1.
         11   -1    0    0    0    0 -0.00000000000E+00 -0.00000000000E+00 -0.45593999997E+02  0.45594000000E+02  0.51100000000E-03 0.  1.
         23    2    1    2    0    0  0.00000000000E+00  0.00000000000E+00  0.35527136788E-14  0.91188000000E+02  0.91188000000E+02 0.  0.
    9900012    2    3    3    0    0 -0.11911581905E+02  0.38512417309E+02  0.16078905866E+02  0.47787270925E+02  0.19999999453E+02 0.  0.
        -12    1    3    3    0    0  0.11911581905E+02 -0.38512417309E+02 -0.16078905866E+02  0.43400729075E+02  0.00000000000E+00 0.  1.
         11    1    4    4    0    0 -0.47137996967E+01  0.62024404264E+01 -0.35035385919E+01  0.85419528066E+01  0.51100000000E-03 0. -1.
        -11    1    4    4    0    0 -0.40408038925E+01  0.70232655124E+01  0.75079117318E+01  0.11046406356E+02  0.51100000000E-03 0.  1.
         12    1    4    4    0    0 -0.31569783159E+01  0.25286711370E+02  0.12074532726E+02  0.28198911762E+02  0.00000000000E+00 0. -1.
</event>
<event>
 8    1  0.4798632E-010  0.9118800E+02  0.7816164E-02  0.1184000E+00
        -11   -1    0    0    0    0  0.00000000000E+00  0.00000000000E+00  0.45593999997E+02  0.45594000000E+02  0.51100000000E-03 0. -1.
         11   -1    0    0    0    0 -0.00000000000E+00 -0.00000000000E+00 -0.45593999997E+02  0.45594000000E+02  0.51100000000E-03 0.  1.
         23    2    1    2    0    0  0.00000000000E+00 -0.88817841970E-15  0.00000000000E+00  0.91188000000E+02  0.91188000000E+02 0.  0.
    9900012    2    3    3    0    0 -0.33089979204E+01  0.77235424254E+01 -0.42579577216E+02  0.47787274537E+02  0.20000015923E+02 0.  0.
         12    1    3    3    0    0  0.33089979204E+01 -0.77235424254E+01  0.42579577216E+02  0.43400725463E+02  0.00000000000E+00 0. -1.
         11    1    4    4    0    0 -0.45710687247E+01 -0.22900985696E+01 -0.31349287827E+01  0.59972493260E+01  0.51100000000E-03 0. -1.
        -11    1    4    4    0    0  0.56055169571E+00  0.11309538448E+02 -0.38256450982E+02  0.39897066561E+02  0.51100000000E-03 0.  1.
         12    1    4    4    0    0  0.70151910857E+00 -0.12958974532E+01 -0.11881974509E+01  0.18929586501E+01  0.00000000000E+00 0. -1.
</event>
<event>
 8    1  0.4798632E-010  0.9118800E+02  0.7816164E-02  0.1184000E+00
        -11   -1    0    0    0    0  0.00000000000E+00  0.00000000000E+00  0.45593999997E+02  0.45594000000E+02  0.51100000000E-03 0.  1.
         11   -1    0    0    0    0 -0.00000000000E+00 -0.00000000000E+00 -0.45593999997E+02  0.45594000000E+02  0.51100000000E-03 0. -1.
         23    2    1    2    0    0  0.00000000000E+00  0.00000000000E+00 -0.11102230246E-14  0.91188000000E+02  0.91188000000E+02 0.  0.
    9900012    2    3    3    0    0  0.99770708149E+01  0.42201067947E+02  0.17749481534E+01  0.47787279742E+02  0.20000039658E+02 0.  0.
         12    1    3    3    0    0 -0.99770708149E+01 -0.42201067947E+02 -0.17749481534E+01  0.43400720258E+02  0.00000000000E+00 0. -1.
         11    1    4    4    0    0 -0.25779711113E+01  0.45682733704E+01  0.35469880386E+01  0.63321545342E+01  0.51100000000E-03 0. -1.
        -11    1    4    4    0    0  0.11335841062E+02  0.24183988618E+02 -0.58634775888E+01  0.27344962383E+02  0.51100000000E-03 0.  1.
        -12    1    4    4    0    0  0.12192008645E+01  0.13448805959E+02  0.40914377036E+01  0.14110162825E+02  0.00000000000E+00 0.  1.
</event>
<event>
 8    1  0.4798632E-010  0.9118800E+02  0.7816164E-02  0.1184000E+00
        -11   -1    0    0    0    0  0.00000000000E+00  0.00000000000E+00  0.45593999997E+02  0.45594000000E+02  0.51100000000E-03 0.  1.
         11   -1    0    0    0    0 -0.00000000000E+00 -0.00000000000E+00 -0.45593999997E+02  0.45594000000E+02  0.51100000000E-03 0. -1.
         23    2    1    2    0    0  0.71054273576E-14  0.17763568394E-14  0.00000000000E+00  0.91188000000E+02  0.91188000000E+02 0.  0.
    9900012    2    3    3    0    0 -0.38423974164E+02 -0.11621366217E+02 -0.16497432525E+02  0.47787271628E+02  0.20000002659E+02 0.  0.
         12    1    3    3    0    0  0.38423974164E+02  0.11621366217E+02  0.16497432525E+02  0.43400728372E+02  0.00000000000E+00 0. -1.
         11    1    4    4    0    0 -0.16899209074E+02 -0.11990357350E+02 -0.14750162811E+02  0.25434607131E+02  0.51100000000E-03 0. -1.
        -11    1    4    4    0    0 -0.12811646442E+02 -0.13256320986E+01  0.13519024371E+01  0.12950800187E+02  0.51100000000E-03 0.  1.
         12    1    4    4    0    0 -0.87131186480E+01  0.16946232314E+01 -0.30991721512E+01  0.94018643095E+01  0.00000000000E+00 0. -1.
</event>
<event>
 8    1  0.4798632E-010  0.9118800E+02  0.7816164E-02  0.1184000E+00
        -11   -1    0    0    0    0  0.00000000000E+00  0.00000000000E+00  0.45593999997E+02  0.45594000000E+02  0.51100000000E-03 0. -1.
         11   -1    0    0    0    0 -0.00000000000E+00 -0.00000000000E+00 -0.45593999997E+02  0.45594000000E+02  0.51100000000E-03 0.  1.
         23    2    1    2    0    0  0.00000000000E+00  0.44408920985E-15  0.00000000000E+00  0.91188000000E+02  0.91188000000E+02 0.  0.
    9900012    2    3    3    0    0  0.12512633555E+02 -0.32580538044E+01 -0.41429968110E+02  0.47787272234E+02  0.20000005422E+02 0.  0.
         12    1    3    3    0    0 -0.12512633555E+02  0.32580538044E+01  0.41429968110E+02  0.43400727766E+02  0.00000000000E+00 0. -1.
         11    1    4    4    0    0  0.14786434804E+02  0.42681617924E+01 -0.29524901565E+02  0.33295280026E+02  0.51100000000E-03 0.  1.
        -11    1    4    4    0    0 -0.21468175886E+01 -0.67988895680E+01 -0.11740052554E+02  0.13735449004E+02  0.51100000000E-03 0. -1.
        -12    1    4    4    0    0 -0.12698365998E+00 -0.72732602875E+00 -0.16501399083E+00  0.75654320377E+00  0.00000000000E+00 0.  1.
</event>
<event>
 8    1  0.4798632E-010  0.9118800E+02  0.7816164E-02  0.1184000E+00
        -11   -1    0    0    0    0  0.00000000000E+00  0.00000000000E+00  0.45593999997E+02  0.45594000000E+02  0.51100000000E-03 0. -1.
         11   -1    0    0    0    0 -0.00000000000E+00 -0.00000000000E+00 -0.45593999997E+02  0.45594000000E+02  0.51100000000E-03 0.  1.
         23    2    1    2    0    0 -0.17763568394E-14  0.00000000000E+00  0.00000000000E+00  0.91188000000E+02  0.91188000000E+02 0.  0.
    9900012    2    3    3    0    0 -0.55584038517E+01  0.17782961760E+02  0.39198134840E+02  0.47787270084E+02  0.19999995622E+02 0.  0.
        -12    1    3    3    0    0  0.55584038517E+01 -0.17782961760E+02 -0.39198134840E+02  0.43400729916E+02  0.00000000000E+00 0.  1.
         11    1    4    4    0    0 -0.79971764592E+01  0.15856326303E+01  0.60006805704E+01  0.10123103760E+02  0.51100000000E-03 0.  1.
        -11    1    4    4    0    0  0.81288207654E+00  0.16114368715E+02  0.29499548623E+02  0.33623756863E+02  0.51100000000E-03 0. -1.
        -12    1    4    4    0    0  0.16258905309E+01  0.82960414085E-01  0.36979056462E+01  0.40404094615E+01  0.00000000000E+00 0.  1.
</event>
<event>
 8    1  0.4798632E-010  0.9118800E+02  0.7816164E-02  0.1184000E+00
        -11   -1    0    0    0    0  0.00000000000E+00  0.00000000000E+00  0.45593999997E+02  0.45594000000E+02  0.51100000000E-03 0. -1.
         11   -1    0    0    0    0 -0.00000000000E+00 -0.00000000000E+00 -0.45593999997E+02  0.45594000000E+02  0.51100000000E-03 0.  1.
         23    2    1    2    0    0  0.00000000000E+00  0.00000000000E+00  0.00000000000E+00  0.91188000000E+02  0.91188000000E+02 0.  0.
    9900012    2    3    3    0    0  0.36981978604E+01 -0.23154870229E+02  0.36521207958E+02  0.47787270589E+02  0.19999997921E+02 0.  0.
        -12    1    3    3    0    0 -0.36981978604E+01  0.23154870229E+02 -0.36521207958E+02  0.43400729411E+02  0.00000000000E+00 0.  1.
         11    1    4    4    0    0  0.67895155678E+01 -0.10993588805E+02  0.10704806870E+02  0.16779434044E+02  0.51100000000E-03 0. -1.
        -11    1    4    4    0    0 -0.33630015801E+01 -0.12798453016E+02  0.26750704059E+02  0.29844770851E+02  0.51100000000E-03 0.  1.
        -12    1    4    4    0    0  0.27168387278E+00  0.63717159237E+00 -0.93430297101E+00  0.11630656931E+01  0.00000000000E+00 0.  1.
</event>
<event>
 8    1  0.4798632E-010  0.9118800E+02  0.7816164E-02  0.1184000E+00
        -11   -1    0    0    0    0  0.00000000000E+00  0.00000000000E+00  0.45593999997E+02  0.45594000000E+02  0.51100000000E-03 0. -1.
         11   -1    0    0    0    0 -0.00000000000E+00 -0.00000000000E+00 -0.45593999997E+02  0.45594000000E+02  0.51100000000E-03 0.  1.
         23    2    1    2    0    0  0.00000000000E+00  0.11657341759E-14  0.00000000000E+00  0.91188000000E+02  0.91188000000E+02 0.  0.
    9900012    2    3    3    0    0  0.33363932616E+02 -0.11006188922E+00  0.27757156069E+02  0.47787264681E+02  0.19999970985E+02 0.  0.
        -12    1    3    3    0    0 -0.33363932616E+02  0.11006188922E+00 -0.27757156069E+02  0.43400735319E+02  0.00000000000E+00 0.  1.
         11    1    4    4    0    0  0.17764690097E+02  0.78315783783E+01  0.11464002292E+02  0.22546422841E+02  0.51100000000E-03 0. -1.
        -11    1    4    4    0    0  0.37571720417E+01 -0.56325364759E+01  0.85442873696E+01  0.10901681330E+02  0.51100000000E-03 0.  1.
         12    1    4    4    0    0  0.11842070478E+02 -0.23091037916E+01  0.77488664068E+01  0.14339160509E+02  0.00000000000E+00 0. -1.
</event>
<event>
 8    1  0.4798632E-010  0.9118800E+02  0.7816164E-02  0.1184000E+00
        -11   -1    0    0    0    0  0.00000000000E+00  0.00000000000E+00  0.45593999997E+02  0.45594000000E+02  0.51100000000E-03 0. -1.
         11   -1    0    0    0    0 -0.00000000000E+00 -0.00000000000E+00 -0.45593999997E+02  0.45594000000E+02  0.51100000000E-03 0.  1.
         23    2    1    2    0    0  0.00000000000E+00  0.00000000000E+00  0.00000000000E+00  0.91188000000E+02  0.91188000000E+02 0.  0.
    9900012    2    3    3    0    0  0.40910993424E+01  0.23477465863E+02  0.36272504430E+02  0.47787273338E+02  0.20000010459E+02 0.  0.
        -12    1    3    3    0    0 -0.40910993424E+01 -0.23477465863E+02 -0.36272504430E+02  0.43400726662E+02  0.00000000000E+00 0.  1.
         11    1    4    4    0    0  0.50018647225E+01  0.10433182035E+02  0.12631577677E+02  0.17129702069E+02  0.51100000000E-03 0. -1.
        -11    1    4    4    0    0 -0.51658833220E+01  0.67411232346E+01  0.20923861169E+02  0.22581786011E+02  0.51100000000E-03 0.  1.
        -12    1    4    4    0    0  0.42551179419E+01  0.63031605930E+01  0.27170655828E+01  0.80757852586E+01  0.00000000000E+00 0.  1.
</event>
<event>
 8    1  0.4798632E-010  0.9118800E+02  0.7816164E-02  0.1184000E+00
        -11   -1    0    0    0    0  0.00000000000E+00  0.00000000000E+00  0.45593999997E+02  0.45594000000E+02  0.51100000000E-03 0. -1.
         11   -1    0    0    0    0 -0.00000000000E+00 -0.00000000000E+00 -0.45593999997E+02  0.45594000000E+02  0.51100000000E-03 0.  1.
         23    2    1    2    0    0  0.00000000000E+00  0.35527136788E-14  0.00000000000E+00  0.91188000000E+02  0.91188000000E+02 0.  0.
    9900012    2    3    3    0    0 -0.43025183578E+01 -0.20908199633E+02 -0.37788342760E+02  0.47787270459E+02  0.19999997332E+02 0.  0.
         12    1    3    3    0    0  0.43025183578E+01  0.20908199633E+02  0.37788342760E+02  0.43400729541E+02  0.00000000000E+00 0. -1.
         11    1    4    4    0    0 -0.70706784046E+00 -0.10561805074E+02 -0.72392923707E+01  0.12824157892E+02  0.51100000000E-03 0. -1.
        -11    1    4    4    0    0 -0.57508631089E+01 -0.11447938071E+02 -0.29787356193E+02  0.32425519299E+02  0.51100000000E-03 0.  1.
        -12    1    4    4    0    0  0.21554125915E+01  0.11015435116E+01 -0.76169419661E+00  0.25375932686E+01  0.00000000000E+00 0.  1.
</event>
<event>
 8    1  0.4798632E-010  0.9118800E+02  0.7816164E-02  0.1184000E+00
        -11   -1    0    0    0    0  0.00000000000E+00  0.00000000000E+00  0.45593999997E+02  0.45594000000E+02  0.51100000000E-03 0. -1.
         11   -1    0    0    0    0 -0.00000000000E+00 -0.00000000000E+00 -0.45593999997E+02  0.45594000000E+02  0.51100000000E-03 0.  1.
         23    2    1    2    0    0  0.35527136788E-14  0.13322676296E-14  0.00000000000E+00  0.91188000000E+02  0.91188000000E+02 0.  0.
    9900012    2    3    3    0    0  0.18744966983E+02  0.11416985329E+01 -0.39127288848E+02  0.47787285774E+02  0.20000067158E+02 0.  0.
         12    1    3    3    0    0 -0.18744966983E+02 -0.11416985329E+01  0.39127288848E+02  0.43400714226E+02  0.00000000000E+00 0. -1.
         11    1    4    4    0    0  0.15041086612E+02 -0.55303833129E+00 -0.17157947518E+02  0.22824007123E+02  0.51100000000E-03 0.  1.
        -11    1    4    4    0    0 -0.25606722919E+01 -0.29808176480E+01 -0.58329979323E+01  0.70332198584E+01  0.51100000000E-03 0. -1.
        -12    1    4    4    0    0  0.62645526633E+01  0.46755545122E+01 -0.16136343398E+02  0.17930058793E+02  0.00000000000E+00 0.  1.
</event>
<event>
 8    1  0.4798632E-010  0.9118800E+02  0.7816164E-02  0.1184000E+00
        -11   -1    0    0    0    0  0.00000000000E+00  0.00000000000E+00  0.45593999997E+02  0.45594000000E+02  0.51100000000E-03 0. -1.
         11   -1    0    0    0    0 -0.00000000000E+00 -0.00000000000E+00 -0.45593999997E+02  0.45594000000E+02  0.51100000000E-03 0.  1.
         23    2    1    2    0    0 -0.12212453271E-14  0.17763568394E-14  0.00000000000E+00  0.91188000000E+02  0.91188000000E+02 0.  0.
    9900012    2    3    3    0    0  0.63455353242E-01  0.12107564816E+02  0.41677629454E+02  0.47787286305E+02  0.20000069577E+02 0.  0.
        -12    1    3    3    0    0 -0.63455353242E-01 -0.12107564816E+02 -0.41677629454E+02  0.43400713695E+02  0.00000000000E+00 0.  1.
         11    1    4    4    0    0 -0.40748078459E+01  0.74907413781E+01  0.14709540191E+02  0.17002524467E+02  0.51100000000E-03 0. -1.
        -11    1    4    4    0    0  0.82008360048E+01 -0.23345233063E-01  0.11431663685E+02  0.14069015283E+02  0.51100000000E-03 0.  1.
        -12    1    4    4    0    0 -0.40625728057E+01  0.46401686710E+01  0.15536425578E+02  0.16715746554E+02  0.00000000000E+00 0.  1.
</event>
<event>
 8    1  0.4798632E-010  0.9118800E+02  0.7816164E-02  0.1184000E+00
        -11   -1    0    0    0    0  0.00000000000E+00  0.00000000000E+00  0.45593999997E+02  0.45594000000E+02  0.51100000000E-03 0. -1.
         11   -1    0    0    0    0 -0.00000000000E+00 -0.00000000000E+00 -0.45593999997E+02  0.45594000000E+02  0.51100000000E-03 0.  1.
         23    2    1    2    0    0  0.17763568394E-14  0.44408920985E-15 -0.71054273576E-14  0.91188000000E+02  0.91188000000E+02 0.  0.
    9900012    2    3    3    0    0 -0.15155819834E+02 -0.21942161576E+01  0.40609238213E+02  0.47787266278E+02  0.19999978268E+02 0.  0.
        -12    1    3    3    0    0  0.15155819834E+02  0.21942161576E+01 -0.40609238213E+02  0.43400733722E+02  0.00000000000E+00 0.  1.
         11    1    4    4    0    0  0.41684103695E+00 -0.53312925632E+01  0.19338402100E+02  0.20064152932E+02  0.51100000000E-03 0. -1.
        -11    1    4    4    0    0 -0.81622359881E+01  0.54350892504E+01  0.97104406881E+01  0.13800541660E+02  0.51100000000E-03 0.  1.
        -12    1    4    4    0    0 -0.74104248827E+01 -0.22980128448E+01  0.11560395424E+02  0.13922571686E+02  0.00000000000E+00 0.  1.
</event>
<event>
 8    1  0.4798632E-010  0.9118800E+02  0.7816164E-02  0.1184000E+00
        -11   -1    0    0    0    0  0.00000000000E+00  0.00000000000E+00  0.45593999997E+02  0.45594000000E+02  0.51100000000E-03 0. -1.
         11   -1    0    0    0    0 -0.00000000000E+00 -0.00000000000E+00 -0.45593999997E+02  0.45594000000E+02  0.51100000000E-03 0.  1.
         23    2    1    2    0    0 -0.35527136788E-14  0.35527136788E-14  0.00000000000E+00  0.91188000000E+02  0.91188000000E+02 0.  0.
    9900012    2    3    3    0    0 -0.29876915945E+02  0.30067298694E+02 -0.93247253656E+01  0.47787273505E+02  0.20000011219E+02 0.  0.
         12    1    3    3    0    0  0.29876915945E+02 -0.30067298694E+02  0.93247253656E+01  0.43400726495E+02  0.00000000000E+00 0. -1.
         11    1    4    4    0    0 -0.36698364956E+01 -0.54593163214E+00  0.38903563548E+01  0.53759291364E+01  0.51100000000E-03 0. -1.
        -11    1    4    4    0    0 -0.14449103526E+02  0.17103587107E+02 -0.72759327987E+01  0.23542482515E+02  0.51100000000E-03 0.  1.
         12    1    4    4    0    0 -0.11757975924E+02  0.13509643219E+02 -0.59391489216E+01  0.18868861854E+02  0.00000000000E+00 0. -1.
</event>
<event>
 8    1  0.4798632E-010  0.9118800E+02  0.7816164E-02  0.1184000E+00
        -11   -1    0    0    0    0  0.00000000000E+00  0.00000000000E+00  0.45593999997E+02  0.45594000000E+02  0.51100000000E-03 0. -1.
         11   -1    0    0    0    0 -0.00000000000E+00 -0.00000000000E+00 -0.45593999997E+02  0.45594000000E+02  0.51100000000E-03 0.  1.
         23    2    1    2    0    0  0.00000000000E+00  0.00000000000E+00 -0.35527136788E-14  0.91188000000E+02  0.91188000000E+02 0.  0.
    9900012    2    3    3    0    0  0.16082509041E+02 -0.25558241367E+02 -0.31172941680E+02  0.47787273142E+02  0.20000009562E+02 0.  0.
         12    1    3    3    0    0 -0.16082509041E+02  0.25558241367E+02  0.31172941680E+02  0.43400726858E+02  0.00000000000E+00 0. -1.
         11    1    4    4    0    0  0.73084926060E+00 -0.29257287048E+01 -0.14136137527E+02  0.14454217846E+02  0.51100000000E-03 0. -1.
        -11    1    4    4    0    0  0.35352058600E+01 -0.12795528652E+02 -0.78236461333E+01  0.15408850477E+02  0.51100000000E-03 0.  1.
         12    1    4    4    0    0  0.11816453920E+02 -0.98369840108E+01 -0.92131580199E+01  0.17924204819E+02  0.00000000000E+00 0. -1.
</event>
<event>
 8    1  0.4798632E-010  0.9118800E+02  0.7816164E-02  0.1184000E+00
        -11   -1    0    0    0    0  0.00000000000E+00  0.00000000000E+00  0.45593999997E+02  0.45594000000E+02  0.51100000000E-03 0. -1.
         11   -1    0    0    0    0 -0.00000000000E+00 -0.00000000000E+00 -0.45593999997E+02  0.45594000000E+02  0.51100000000E-03 0.  1.
         23    2    1    2    0    0  0.00000000000E+00  0.00000000000E+00  0.00000000000E+00  0.91188000000E+02  0.91188000000E+02 0.  0.
    9900012    2    3    3    0    0 -0.30853763081E+02  0.15364091724E+02  0.26374468895E+02  0.47787278574E+02  0.20000034331E+02 0.  0.
        -12    1    3    3    0    0  0.30853763081E+02 -0.15364091724E+02 -0.26374468895E+02  0.43400721426E+02  0.00000000000E+00 0.  1.
         11    1    4    4    0    0 -0.62189179391E+01  0.79602902163E+01  0.18048787256E+02  0.20683323774E+02  0.51100000000E-03 0. -1.
        -11    1    4    4    0    0 -0.22069133587E+02  0.65011181706E+01  0.68259940415E+01  0.23998028870E+02  0.51100000000E-03 0.  1.
         12    1    4    4    0    0 -0.25657115554E+01  0.90268333720E+00  0.14996875978E+01  0.31059259302E+01  0.00000000000E+00 0. -1.
</event>
<event>
 8    1  0.4798632E-010  0.9118800E+02  0.7816164E-02  0.1184000E+00
        -11   -1    0    0    0    0  0.00000000000E+00  0.00000000000E+00  0.45593999997E+02  0.45594000000E+02  0.51100000000E-03 0. -1.
         11   -1    0    0    0    0 -0.00000000000E+00 -0.00000000000E+00 -0.45593999997E+02  0.45594000000E+02  0.51100000000E-03 0.  1.
         23    2    1    2    0    0  0.00000000000E+00  0.00000000000E+00  0.00000000000E+00  0.91188000000E+02  0.91188000000E+02 0.  0.
    9900012    2    3    3    0    0 -0.14754548847E+02  0.19957766257E+02  0.35603570374E+02  0.47787269948E+02  0.19999995002E+02 0.  0.
        -12    1    3    3    0    0  0.14754548847E+02 -0.19957766257E+02 -0.35603570374E+02  0.43400730052E+02  0.00000000000E+00 0.  1.
         11    1    4    4    0    0 -0.85768875551E+01  0.41043648826E+01  0.22843495158E+02  0.24743364414E+02  0.51100000000E-03 0. -1.
        -11    1    4    4    0    0 -0.52462421119E+00  0.12080913153E+02  0.10064273640E+02  0.15732555334E+02  0.51100000000E-03 0.  1.
         12    1    4    4    0    0 -0.56530370805E+01  0.37724882214E+01  0.26958015758E+01  0.73113502002E+01  0.00000000000E+00 0. -1.
</event>
<event>
 8    1  0.4798632E-010  0.9118800E+02  0.7816164E-02  0.1184000E+00
        -11   -1    0    0    0    0  0.00000000000E+00  0.00000000000E+00  0.45593999997E+02  0.45594000000E+02  0.51100000000E-03 0. -1.
         11   -1    0    0    0    0 -0.00000000000E+00 -0.00000000000E+00 -0.45593999997E+02  0.45594000000E+02  0.51100000000E-03 0.  1.
         23    2    1    2    0    0 -0.35527136788E-14 -0.44408920985E-15  0.71054273576E-14  0.91188000000E+02  0.91188000000E+02 0.  0.
    9900012    2    3    3    0    0 -0.23032662329E+02  0.23094986920E+01  0.36712217014E+02  0.47787260418E+02  0.19999951549E+02 0.  0.
        -12    1    3    3    0    0  0.23032662329E+02 -0.23094986920E+01 -0.36712217014E+02  0.43400739582E+02  0.00000000000E+00 0.  1.
         11    1    4    4    0    0 -0.22035736544E+01  0.65383012967E+00  0.51023300818E+01  0.55961596844E+01  0.51100000000E-03 0. -1.
        -11    1    4    4    0    0 -0.21448863219E+02 -0.51788556845E+00  0.16908573792E+02  0.27317060727E+02  0.51100000000E-03 0.  1.
        -12    1    4    4    0    0  0.61977454411E+00  0.21735541308E+01  0.14701313141E+02  0.14874040006E+02  0.00000000000E+00 0.  1.
</event>
<event>
 8    1  0.4798632E-010  0.9118800E+02  0.7816164E-02  0.1184000E+00
        -11   -1    0    0    0    0  0.00000000000E+00  0.00000000000E+00  0.45593999997E+02  0.45594000000E+02  0.51100000000E-03 0.  1.
         11   -1    0    0    0    0 -0.00000000000E+00 -0.00000000000E+00 -0.45593999997E+02  0.45594000000E+02  0.51100000000E-03 0. -1.
         23    2    1    2    0    0 -0.17763568394E-14 -0.71054273576E-14  0.00000000000E+00  0.91188000000E+02  0.91188000000E+02 0.  0.
    9900012    2    3    3    0    0  0.10386991072E+02 -0.42095048589E+02 -0.19335930621E+01  0.47787291695E+02  0.20000094155E+02 0.  0.
        -12    1    3    3    0    0 -0.10386991072E+02  0.42095048589E+02  0.19335930621E+01  0.43400708305E+02  0.00000000000E+00 0.  1.
         11    1    4    4    0    0  0.13168991447E+02 -0.33147474867E+02  0.65393353826E+00  0.35673590444E+02  0.51100000000E-03 0. -1.
        -11    1    4    4    0    0  0.27355554780E+00  0.81754335891E+00  0.95429057792E+00  0.12860328727E+01  0.51100000000E-03 0.  1.
         12    1    4    4    0    0 -0.30555559235E+01 -0.97651170806E+01 -0.35418171783E+01  0.10827668379E+02  0.00000000000E+00 0. -1.
</event>
<event>
 8    1  0.4798632E-010  0.9118800E+02  0.7816164E-02  0.1184000E+00
        -11   -1    0    0    0    0  0.00000000000E+00  0.00000000000E+00  0.45593999997E+02  0.45594000000E+02  0.51100000000E-03 0.  1.
         11   -1    0    0    0    0 -0.00000000000E+00 -0.00000000000E+00 -0.45593999997E+02  0.45594000000E+02  0.51100000000E-03 0. -1.
         23    2    1    2    0    0 -0.17763568394E-14  0.00000000000E+00 -0.17763568394E-14  0.91188000000E+02  0.91188000000E+02 0.  0.
    9900012    2    3    3    0    0 -0.12401306730E+02 -0.38427069387E+02  0.15911932502E+02  0.47787289566E+02  0.20000084445E+02 0.  0.
        -12    1    3    3    0    0  0.12401306730E+02  0.38427069387E+02 -0.15911932502E+02  0.43400710434E+02  0.00000000000E+00 0.  1.
         11    1    4    4    0    0  0.24811800641E+01  0.33503081660E+00  0.44795904548E+00  0.25434558628E+01  0.51100000000E-03 0. -1.
        -11    1    4    4    0    0  0.11840770312E+01 -0.28283504972E+01  0.37601243506E+00  0.30891731196E+01  0.51100000000E-03 0.  1.
         12    1    4    4    0    0 -0.16066563825E+02 -0.35933749706E+02  0.15087961022E+02  0.42154660583E+02  0.00000000000E+00 0. -1.
</event>
<event>
 8    1  0.4798632E-010  0.9118800E+02  0.7816164E-02  0.1184000E+00
        -11   -1    0    0    0    0  0.00000000000E+00  0.00000000000E+00  0.45593999997E+02  0.45594000000E+02  0.51100000000E-03 0. -1.
         11   -1    0    0    0    0 -0.00000000000E+00 -0.00000000000E+00 -0.45593999997E+02  0.45594000000E+02  0.51100000000E-03 0.  1.
         23    2    1    2    0    0  0.35527136788E-14  0.00000000000E+00  0.00000000000E+00  0.91188000000E+02  0.91188000000E+02 0.  0.
    9900012    2    3    3    0    0 -0.22140822492E+02  0.27738081991E+02 -0.24980111028E+02  0.47787272355E+02  0.20000005975E+02 0.  0.
         12    1    3    3    0    0  0.22140822492E+02 -0.27738081991E+02  0.24980111028E+02  0.43400727645E+02  0.00000000000E+00 0. -1.
         11    1    4    4    0    0 -0.71059376221E+01  0.92979998978E+01 -0.16148325736E+02  0.19942807624E+02  0.51100000000E-03 0.  1.
        -11    1    4    4    0    0 -0.14235320461E+02  0.14192158531E+02 -0.26121539547E+01  0.20270299972E+02  0.51100000000E-03 0. -1.
         12    1    4    4    0    0 -0.79956440927E+00  0.42479235615E+01 -0.62196313370E+01  0.75741647590E+01  0.00000000000E+00 0. -1.
</event>
<event>
 8    1  0.4798632E-010  0.9118800E+02  0.7816164E-02  0.1184000E+00
        -11   -1    0    0    0    0  0.00000000000E+00  0.00000000000E+00  0.45593999997E+02  0.45594000000E+02  0.51100000000E-03 0. -1.
         11   -1    0    0    0    0 -0.00000000000E+00 -0.00000000000E+00 -0.45593999997E+02  0.45594000000E+02  0.51100000000E-03 0.  1.
         23    2    1    2    0    0  0.00000000000E+00  0.00000000000E+00  0.00000000000E+00  0.91188000000E+02  0.91188000000E+02 0.  0.
    9900012    2    3    3    0    0  0.18040757030E+02 -0.23622022148E+02  0.31625200441E+02  0.47787284020E+02  0.20000059163E+02 0.  0.
        -12    1    3    3    0    0 -0.18040757030E+02  0.23622022148E+02 -0.31625200441E+02  0.43400715980E+02  0.00000000000E+00 0.  1.
         11    1    4    4    0    0  0.35148549996E+01 -0.80953689333E+00 -0.28217468603E+00  0.36178969671E+01  0.51100000000E-03 0. -1.
        -11    1    4    4    0    0  0.14747095133E+02 -0.23981620147E+02  0.32363468886E+02  0.42895093406E+02  0.51100000000E-03 0.  1.
        -12    1    4    4    0    0 -0.22119310283E+00  0.11691348917E+01 -0.45609375821E+00  0.12742936475E+01  0.00000000000E+00 0.  1.
</event>
<event>
 8    1  0.4798632E-010  0.9118800E+02  0.7816164E-02  0.1184000E+00
        -11   -1    0    0    0    0  0.00000000000E+00  0.00000000000E+00  0.45593999997E+02  0.45594000000E+02  0.51100000000E-03 0. -1.
         11   -1    0    0    0    0 -0.00000000000E+00 -0.00000000000E+00 -0.45593999997E+02  0.45594000000E+02  0.51100000000E-03 0.  1.
         23    2    1    2    0    0  0.00000000000E+00  0.00000000000E+00  0.00000000000E+00  0.91188000000E+02  0.91188000000E+02 0.  0.
    9900012    2    3    3    0    0 -0.13731545988E+02  0.39958558287E+02 -0.99187474301E+01  0.47787270903E+02  0.19999999356E+02 0.  0.
         12    1    3    3    0    0  0.13731545988E+02 -0.39958558287E+02  0.99187474301E+01  0.43400729097E+02  0.00000000000E+00 0. -1.
         11    1    4    4    0    0 -0.30287216788E+00  0.18866015327E+02 -0.11333649194E+02  0.22010676277E+02  0.51100000000E-03 0.  1.
        -11    1    4    4    0    0 -0.62530375066E+01  0.86186873844E+01  0.35591899535E+01  0.11227202843E+02  0.51100000000E-03 0. -1.
        -12    1    4    4    0    0 -0.71756363136E+01  0.12473855575E+02 -0.21442881897E+01  0.14549391783E+02  0.00000000000E+00 0.  1.
</event>
<event>
 8    1  0.4798632E-010  0.9118800E+02  0.7816164E-02  0.1184000E+00
        -11   -1    0    0    0    0  0.00000000000E+00  0.00000000000E+00  0.45593999997E+02  0.45594000000E+02  0.51100000000E-03 0.  1.
         11   -1    0    0    0    0 -0.00000000000E+00 -0.00000000000E+00 -0.45593999997E+02  0.45594000000E+02  0.51100000000E-03 0. -1.
         23    2    1    2    0    0 -0.22204460493E-15  0.71054273576E-14 -0.88817841970E-15  0.91188000000E+02  0.91188000000E+02 0.  0.
    9900012    2    3    3    0    0 -0.17792903968E+01  0.42699113887E+02 -0.75659029234E+01  0.47787273185E+02  0.20000009758E+02 0.  0.
         12    1    3    3    0    0  0.17792903968E+01 -0.42699113887E+02  0.75659029234E+01  0.43400726815E+02  0.00000000000E+00 0. -1.
         11    1    4    4    0    0  0.33172048266E+01  0.43463137985E+01 -0.12555519163E+01  0.56098754329E+01  0.51100000000E-03 0. -1.
        -11    1    4    4    0    0  0.14767375125E+01  0.23645386658E+02 -0.98934992369E+01  0.25674235944E+02  0.51100000000E-03 0.  1.
        -12    1    4    4    0    0 -0.65732327360E+01  0.14707413430E+02  0.35831482299E+01  0.16503161808E+02  0.00000000000E+00 0.  1.
</event>
<event>
 8    1  0.4798632E-010  0.9118800E+02  0.7816164E-02  0.1184000E+00
        -11   -1    0    0    0    0  0.00000000000E+00  0.00000000000E+00  0.45593999997E+02  0.45594000000E+02  0.51100000000E-03 0. -1.
         11   -1    0    0    0    0 -0.00000000000E+00 -0.00000000000E+00 -0.45593999997E+02  0.45594000000E+02  0.51100000000E-03 0.  1.
         23    2    1    2    0    0 -0.13322676296E-14  0.00000000000E+00 -0.14210854715E-13  0.91188000000E+02  0.91188000000E+02 0.  0.
    9900012    2    3    3    0    0  0.28942858852E+01  0.18565913191E+02  0.39122292681E+02  0.47787264891E+02  0.19999971943E+02 0.  0.
        -12    1    3    3    0    0 -0.28942858852E+01 -0.18565913191E+02 -0.39122292681E+02  0.43400735109E+02  0.00000000000E+00 0.  1.
         11    1    4    4    0    0 -0.21486097000E+01 -0.19737853958E+01  0.32104771971E+01  0.43381466695E+01  0.51100000000E-03 0.  1.
        -11    1    4    4    0    0  0.11410552955E+00 -0.16735418332E+01  0.30127404906E+01  0.34482412712E+01  0.51100000000E-03 0. -1.
         12    1    4    4    0    0  0.49287900556E+01  0.22213240420E+02  0.32899074993E+02  0.40000876950E+02  0.00000000000E+00 0. -1.
</event>
<event>
 8    1  0.4798632E-010  0.9118800E+02  0.7816164E-02  0.1184000E+00
        -11   -1    0    0    0    0  0.00000000000E+00  0.00000000000E+00  0.45593999997E+02  0.45594000000E+02  0.51100000000E-03 0. -1.
         11   -1    0    0    0    0 -0.00000000000E+00 -0.00000000000E+00 -0.45593999997E+02  0.45594000000E+02  0.51100000000E-03 0.  1.
         23    2    1    2    0    0  0.00000000000E+00  0.00000000000E+00  0.00000000000E+00  0.91188000000E+02  0.91188000000E+02 0.  0.
    9900012    2    3    3    0    0 -0.16987603063E+02 -0.14385168065E+02  0.37257328093E+02  0.47787306287E+02  0.20000160685E+02 0.  0.
        -12    1    3    3    0    0  0.16987603063E+02  0.14385168065E+02 -0.37257328093E+02  0.43400693713E+02  0.00000000000E+00 0.  1.
         11    1    4    4    0    0 -0.69157183685E+01 -0.95778306205E+01  0.67246082670E+01  0.13593467422E+02  0.51100000000E-03 0. -1.
        -11    1    4    4    0    0 -0.10597071631E+02 -0.52599962153E+01  0.31115101180E+02  0.33288361465E+02  0.51100000000E-03 0.  1.
        -12    1    4    4    0    0  0.52518693630E+00  0.45265877090E+00 -0.58238135342E+00  0.90547739991E+00  0.00000000000E+00 0.  1.
</event>
<event>
 8    1  0.4798632E-010  0.9118800E+02  0.7816164E-02  0.1184000E+00
        -11   -1    0    0    0    0  0.00000000000E+00  0.00000000000E+00  0.45593999997E+02  0.45594000000E+02  0.51100000000E-03 0. -1.
         11   -1    0    0    0    0 -0.00000000000E+00 -0.00000000000E+00 -0.45593999997E+02  0.45594000000E+02  0.51100000000E-03 0.  1.
         23    2    1    2    0    0  0.00000000000E+00 -0.35527136788E-14  0.00000000000E+00  0.91188000000E+02  0.91188000000E+02 0.  0.
    9900012    2    3    3    0    0 -0.16498412653E+02 -0.22352535094E+02 -0.33343515185E+02  0.47787269014E+02  0.19999990744E+02 0.  0.
         12    1    3    3    0    0  0.16498412653E+02  0.22352535094E+02  0.33343515185E+02  0.43400730986E+02  0.00000000000E+00 0. -1.
         11    1    4    4    0    0 -0.81730225162E+01 -0.43318361180E+01 -0.69846757744E+01  0.11590892853E+02  0.51100000000E-03 0. -1.
        -11    1    4    4    0    0 -0.53672328158E+01 -0.14269607657E+02 -0.79819902357E+01  0.17208749495E+02  0.51100000000E-03 0.  1.
        -12    1    4    4    0    0 -0.29581573211E+01 -0.37510913189E+01 -0.18376849175E+02  0.18987626666E+02  0.00000000000E+00 0.  1.
</event>
<event>
 8    1  0.4798632E-010  0.9118800E+02  0.7816164E-02  0.1184000E+00
        -11   -1    0    0    0    0  0.00000000000E+00  0.00000000000E+00  0.45593999997E+02  0.45594000000E+02  0.51100000000E-03 0. -1.
         11   -1    0    0    0    0 -0.00000000000E+00 -0.00000000000E+00 -0.45593999997E+02  0.45594000000E+02  0.51100000000E-03 0.  1.
         23    2    1    2    0    0  0.00000000000E+00  0.00000000000E+00  0.00000000000E+00  0.91188000000E+02  0.91188000000E+02 0.  0.
    9900012    2    3    3    0    0 -0.35241154059E+01 -0.92019587745E+01 -0.42267337403E+02  0.47787271368E+02  0.20000001473E+02 0.  0.
         12    1    3    3    0    0  0.35241154059E+01  0.92019587745E+01  0.42267337403E+02  0.43400728632E+02  0.00000000000E+00 0. -1.
         11    1    4    4    0    0  0.76211878003E+01 -0.29491760388E+01 -0.15755691634E+02  0.17748858046E+02  0.51100000000E-03 0. -1.
        -11    1    4    4    0    0 -0.97176583361E+01 -0.53270145404E+01 -0.25997453809E+02  0.28260884138E+02  0.51100000000E-03 0.  1.
         12    1    4    4    0    0 -0.14276448701E+01 -0.92576819537E+00 -0.51419195955E+00  0.17775291834E+01  0.00000000000E+00 0. -1.
</event>
<event>
 8    1  0.4798632E-010  0.9118800E+02  0.7816164E-02  0.1184000E+00
        -11   -1    0    0    0    0  0.00000000000E+00  0.00000000000E+00  0.45593999997E+02  0.45594000000E+02  0.51100000000E-03 0. -1.
         11   -1    0    0    0    0 -0.00000000000E+00 -0.00000000000E+00 -0.45593999997E+02  0.45594000000E+02  0.51100000000E-03 0.  1.
         23    2    1    2    0    0  0.00000000000E+00  0.00000000000E+00  0.00000000000E+00  0.91188000000E+02  0.91188000000E+02 0.  0.
    9900012    2    3    3    0    0 -0.21676286279E+02 -0.72700553066E+01  0.36890485911E+02  0.47787273718E+02  0.20000012192E+02 0.  0.
        -12    1    3    3    0    0  0.21676286279E+02  0.72700553066E+01 -0.36890485911E+02  0.43400726282E+02  0.00000000000E+00 0.  1.
         11    1    4    4    0    0 -0.59504481896E+01 -0.52941433523E+01  0.23184074506E+02  0.24514018407E+02  0.51100000000E-03 0. -1.
        -11    1    4    4    0    0 -0.14325642460E+02  0.13952759960E+01  0.79115726010E+01  0.16424488068E+02  0.51100000000E-03 0.  1.
        -12    1    4    4    0    0 -0.14001956294E+01 -0.33711879503E+01  0.57948388036E+01  0.68487672436E+01  0.00000000000E+00 0.  1.
</event>
<event>
 8    1  0.4798632E-010  0.9118800E+02  0.7816164E-02  0.1184000E+00
        -11   -1    0    0    0    0  0.00000000000E+00  0.00000000000E+00  0.45593999997E+02  0.45594000000E+02  0.51100000000E-03 0. -1.
         11   -1    0    0    0    0 -0.00000000000E+00 -0.00000000000E+00 -0.45593999997E+02  0.45594000000E+02  0.51100000000E-03 0.  1.
         23    2    1    2    0    0  0.35527136788E-14  0.44408920985E-15  0.00000000000E+00  0.91188000000E+02  0.91188000000E+02 0.  0.
    9900012    2    3    3    0    0  0.17486813460E+02 -0.39228623504E+01  0.39527781013E+02  0.47787274593E+02  0.20000016181E+02 0.  0.
        -12    1    3    3    0    0 -0.17486813460E+02  0.39228623504E+01 -0.39527781013E+02  0.43400725407E+02  0.00000000000E+00 0.  1.
         11    1    4    4    0    0  0.16650389384E+02  0.25953279206E+01  0.22041527755E+02  0.27745272385E+02  0.51100000000E-03 0. -1.
        -11    1    4    4    0    0  0.33282452068E+01 -0.59857779729E+01  0.14963247079E+02  0.16456169588E+02  0.51100000000E-03 0.  1.
         12    1    4    4    0    0 -0.24918211312E+01 -0.53241229800E+00  0.25230061789E+01  0.35858326207E+01  0.00000000000E+00 0. -1.
</event>
<event>
 8    1  0.4798632E-010  0.9118800E+02  0.7816164E-02  0.1184000E+00
        -11   -1    0    0    0    0  0.00000000000E+00  0.00000000000E+00  0.45593999997E+02  0.45594000000E+02  0.51100000000E-03 0. -1.
         11   -1    0    0    0    0 -0.00000000000E+00 -0.00000000000E+00 -0.45593999997E+02  0.45594000000E+02  0.51100000000E-03 0.  1.
         23    2    1    2    0    0  0.00000000000E+00  0.00000000000E+00  0.00000000000E+00  0.91188000000E+02  0.91188000000E+02 0.  0.
    9900012    2    3    3    0    0 -0.27420551606E+02 -0.25859626809E+02  0.21517814650E+02  0.47787270785E+02  0.19999998818E+02 0.  0.
        -12    1    3    3    0    0  0.27420551606E+02  0.25859626809E+02 -0.21517814650E+02  0.43400729215E+02  0.00000000000E+00 0.  1.
         11    1    4    4    0    0 -0.11674238842E+02 -0.72720096768E+01  0.32062054127E+01  0.14122667266E+02  0.51100000000E-03 0. -1.
        -11    1    4    4    0    0 -0.14943470557E+02 -0.20751833329E+02  0.18134006567E+02  0.31349451243E+02  0.51100000000E-03 0.  1.
        -12    1    4    4    0    0 -0.80284220656E+00  0.21642161968E+01  0.17760266976E+00  0.23151522765E+01  0.00000000000E+00 0.  1.
</event>
<event>
 8    1  0.4798632E-010  0.9118800E+02  0.7816164E-02  0.1184000E+00
        -11   -1    0    0    0    0  0.00000000000E+00  0.00000000000E+00  0.45593999997E+02  0.45594000000E+02  0.51100000000E-03 0. -1.
         11   -1    0    0    0    0 -0.00000000000E+00 -0.00000000000E+00 -0.45593999997E+02  0.45594000000E+02  0.51100000000E-03 0.  1.
         23    2    1    2    0    0  0.00000000000E+00  0.00000000000E+00 -0.35527136788E-14  0.91188000000E+02  0.91188000000E+02 0.  0.
    9900012    2    3    3    0    0  0.34417585930E+02  0.51265463544E+01 -0.25937751682E+02  0.47787324187E+02  0.20000242295E+02 0.  0.
         12    1    3    3    0    0 -0.34417585930E+02 -0.51265463544E+01  0.25937751682E+02  0.43400675813E+02  0.00000000000E+00 0. -1.
         11    1    4    4    0    0  0.17515963482E+02  0.93881354501E+01 -0.17826697105E+02  0.26697138308E+02  0.51100000000E-03 0. -1.
        -11    1    4    4    0    0 -0.66444097036E-01 -0.72157129311E+00 -0.29018227436E+01  0.29909288600E+01  0.51100000000E-03 0.  1.
         12    1    4    4    0    0  0.16968066545E+02 -0.35400178026E+01 -0.52092318333E+01  0.18099257018E+02  0.00000000000E+00 0. -1.
</event>
<event>
 8    1  0.4798632E-010  0.9118800E+02  0.7816164E-02  0.1184000E+00
        -11   -1    0    0    0    0  0.00000000000E+00  0.00000000000E+00  0.45593999997E+02  0.45594000000E+02  0.51100000000E-03 0. -1.
         11   -1    0    0    0    0 -0.00000000000E+00 -0.00000000000E+00 -0.45593999997E+02  0.45594000000E+02  0.51100000000E-03 0.  1.
         23    2    1    2    0    0  0.17763568394E-14 -0.71054273576E-14  0.22204460493E-15  0.91188000000E+02  0.91188000000E+02 0.  0.
    9900012    2    3    3    0    0 -0.10576921103E+02  0.42074880083E+02 -0.12067766256E+01  0.47787273003E+02  0.20000008931E+02 0.  0.
        -12    1    3    3    0    0  0.10576921103E+02 -0.42074880083E+02  0.12067766256E+01  0.43400726997E+02  0.00000000000E+00 0.  1.
         11    1    4    4    0    0 -0.16860264792E+01  0.27855291678E+02 -0.24652463085E+00  0.27907359861E+02  0.51100000000E-03 0. -1.
        -11    1    4    4    0    0 -0.24982666782E+01  0.69862666434E+00 -0.38547953498E+01  0.46463817171E+01  0.51100000000E-03 0.  1.
        -12    1    4    4    0    0 -0.63926279456E+01  0.13520961740E+02  0.28945433550E+01  0.15233531425E+02  0.00000000000E+00 0.  1.
</event>
<event>
 8    1  0.4798632E-010  0.9118800E+02  0.7816164E-02  0.1184000E+00
        -11   -1    0    0    0    0  0.00000000000E+00  0.00000000000E+00  0.45593999997E+02  0.45594000000E+02  0.51100000000E-03 0. -1.
         11   -1    0    0    0    0 -0.00000000000E+00 -0.00000000000E+00 -0.45593999997E+02  0.45594000000E+02  0.51100000000E-03 0.  1.
         23    2    1    2    0    0  0.00000000000E+00  0.00000000000E+00  0.00000000000E+00  0.91188000000E+02  0.91188000000E+02 0.  0.
    9900012    2    3    3    0    0  0.29456336058E+02 -0.25553966638E+02  0.19051144323E+02  0.47787227600E+02  0.19999801920E+02 0.  0.
        -12    1    3    3    0    0 -0.29456336058E+02  0.25553966638E+02 -0.19051144323E+02  0.43400772400E+02  0.00000000000E+00 0.  1.
         11    1    4    4    0    0  0.22452638586E+02 -0.12634170948E+02  0.15162179167E+02  0.29893727308E+02  0.51100000000E-03 0. -1.
        -11    1    4    4    0    0 -0.13797022882E+01 -0.14128752112E+01 -0.16932144550E+01  0.26013016392E+01  0.51100000000E-03 0.  1.
         12    1    4    4    0    0  0.83833997606E+01 -0.11506920479E+02  0.55821796108E+01  0.15292198653E+02  0.00000000000E+00 0. -1.
</event>
<event>
 8    1  0.4798632E-010  0.9118800E+02  0.7816164E-02  0.1184000E+00
        -11   -1    0    0    0    0  0.00000000000E+00  0.00000000000E+00  0.45593999997E+02  0.45594000000E+02  0.51100000000E-03 0. -1.
         11   -1    0    0    0    0 -0.00000000000E+00 -0.00000000000E+00 -0.45593999997E+02  0.45594000000E+02  0.51100000000E-03 0.  1.
         23    2    1    2    0    0  0.00000000000E+00  0.00000000000E+00 -0.35527136788E-14  0.91188000000E+02  0.91188000000E+02 0.  0.
    9900012    2    3    3    0    0  0.10307399888E+02  0.33782506853E+02 -0.25221468698E+02  0.47787277138E+02  0.20000027781E+02 0.  0.
         12    1    3    3    0    0 -0.10307399888E+02 -0.33782506853E+02  0.25221468698E+02  0.43400722862E+02  0.00000000000E+00 0. -1.
         11    1    4    4    0    0 -0.37035659279E+01  0.11846945757E+01 -0.84809557893E+00  0.39798452472E+01  0.51100000000E-03 0. -1.
        -11    1    4    4    0    0  0.88109059099E+01  0.28016943401E+02 -0.20963671366E+02  0.36084022751E+02  0.51100000000E-03 0.  1.
        -12    1    4    4    0    0  0.52000599064E+01  0.45808688759E+01 -0.34097017523E+01  0.77234091389E+01  0.00000000000E+00 0.  1.
</event>
<event>
 8    1  0.4798632E-010  0.9118800E+02  0.7816164E-02  0.1184000E+00
        -11   -1    0    0    0    0  0.00000000000E+00  0.00000000000E+00  0.45593999997E+02  0.45594000000E+02  0.51100000000E-03 0. -1.
         11   -1    0    0    0    0 -0.00000000000E+00 -0.00000000000E+00 -0.45593999997E+02  0.45594000000E+02  0.51100000000E-03 0.  1.
         23    2    1    2    0    0  0.35527136788E-14  0.00000000000E+00 -0.35527136788E-14  0.91188000000E+02  0.91188000000E+02 0.  0.
    9900012    2    3    3    0    0 -0.21861186548E+02 -0.28826527876E+02  0.23973795357E+02  0.47787273618E+02  0.20000011734E+02 0.  0.
        -12    1    3    3    0    0  0.21861186548E+02  0.28826527876E+02 -0.23973795357E+02  0.43400726382E+02  0.00000000000E+00 0.  1.
         11    1    4    4    0    0 -0.68247213435E+01 -0.89331194031E+01  0.70666402495E+01  0.13278360153E+02  0.51100000000E-03 0. -1.
        -11    1    4    4    0    0 -0.13563474698E+02 -0.15750960318E+02  0.43934036074E+01  0.21245295770E+02  0.51100000000E-03 0.  1.
        -12    1    4    4    0    0 -0.14729905067E+01 -0.41424481544E+01  0.12513751500E+02  0.13263617694E+02  0.00000000000E+00 0.  1.
</event>
<event>
 8    1  0.4798632E-010  0.9118800E+02  0.7816164E-02  0.1184000E+00
        -11   -1    0    0    0    0  0.00000000000E+00  0.00000000000E+00  0.45593999997E+02  0.45594000000E+02  0.51100000000E-03 0. -1.
         11   -1    0    0    0    0 -0.00000000000E+00 -0.00000000000E+00 -0.45593999997E+02  0.45594000000E+02  0.51100000000E-03 0.  1.
         23    2    1    2    0    0  0.00000000000E+00 -0.35527136788E-14  0.00000000000E+00  0.91188000000E+02  0.91188000000E+02 0.  0.
    9900012    2    3    3    0    0  0.17229599247E+02  0.19128565560E+02  0.34940837891E+02  0.47787271168E+02  0.20000000564E+02 0.  0.
        -12    1    3    3    0    0 -0.17229599247E+02 -0.19128565560E+02 -0.34940837891E+02  0.43400728832E+02  0.00000000000E+00 0.  1.
         11    1    4    4    0    0  0.83613253757E+01  0.10243896940E+02  0.22465771541E+02  0.26068373132E+02  0.51100000000E-03 0. -1.
        -11    1    4    4    0    0  0.76859212861E+01 -0.10450891824E+01  0.49135559333E+01  0.91819730770E+01  0.51100000000E-03 0.  1.
        -12    1    4    4    0    0  0.11823525854E+01  0.99297578024E+01  0.75615104164E+01  0.12536924959E+02  0.00000000000E+00 0.  1.
</event>
<event>
 8    1  0.4798632E-010  0.9118800E+02  0.7816164E-02  0.1184000E+00
        -11   -1    0    0    0    0  0.00000000000E+00  0.00000000000E+00  0.45593999997E+02  0.45594000000E+02  0.51100000000E-03 0. -1.
         11   -1    0    0    0    0 -0.00000000000E+00 -0.00000000000E+00 -0.45593999997E+02  0.45594000000E+02  0.51100000000E-03 0.  1.
         23    2    1    2    0    0  0.00000000000E+00  0.00000000000E+00  0.35527136788E-14  0.91188000000E+02  0.91188000000E+02 0.  0.
    9900012    2    3    3    0    0 -0.11598173873E+02  0.29595557824E+02 -0.29550099633E+02  0.47787273411E+02  0.20000010792E+02 0.  0.
         12    1    3    3    0    0  0.11598173873E+02 -0.29595557824E+02  0.29550099633E+02  0.43400726589E+02  0.00000000000E+00 0. -1.
         11    1    4    4    0    0 -0.89516882889E+01  0.14891836516E+02 -0.23514463915E+02  0.29237467939E+02  0.51100000000E-03 0. -1.
        -11    1    4    4    0    0 -0.25039490691E+01  0.28881084273E+01 -0.55300417570E+01  0.67225213517E+01  0.51100000000E-03 0.  1.
         12    1    4    4    0    0 -0.14253651475E+00  0.11815612881E+02 -0.50559396125E+00  0.11827284120E+02  0.00000000000E+00 0. -1.
</event>
<event>
 8    1  0.4798632E-010  0.9118800E+02  0.7816164E-02  0.1184000E+00
        -11   -1    0    0    0    0  0.00000000000E+00  0.00000000000E+00  0.45593999997E+02  0.45594000000E+02  0.51100000000E-03 0. -1.
         11   -1    0    0    0    0 -0.00000000000E+00 -0.00000000000E+00 -0.45593999997E+02  0.45594000000E+02  0.51100000000E-03 0.  1.
         23    2    1    2    0    0  0.17763568394E-14  0.00000000000E+00  0.00000000000E+00  0.91188000000E+02  0.91188000000E+02 0.  0.
    9900012    2    3    3    0    0  0.15058117854E+02 -0.19703274944E+02  0.35618235539E+02  0.47787255078E+02  0.19999927204E+02 0.  0.
        -12    1    3    3    0    0 -0.15058117854E+02  0.19703274944E+02 -0.35618235539E+02  0.43400744922E+02  0.00000000000E+00 0.  1.
         11    1    4    4    0    0  0.61617344574E+01 -0.53109955667E+01  0.16423979860E+00  0.81363763682E+01  0.51100000000E-03 0. -1.
        -11    1    4    4    0    0  0.62405740061E+01 -0.83160862586E+01  0.26815745262E+02  0.28760845760E+02  0.51100000000E-03 0.  1.
         12    1    4    4    0    0  0.26558093906E+01 -0.60761931191E+01  0.86382504784E+01  0.10890032951E+02  0.00000000000E+00 0. -1.
</event>
<event>
 8    1  0.4798632E-010  0.9118800E+02  0.7816164E-02  0.1184000E+00
        -11   -1    0    0    0    0  0.00000000000E+00  0.00000000000E+00  0.45593999997E+02  0.45594000000E+02  0.51100000000E-03 0. -1.
         11   -1    0    0    0    0 -0.00000000000E+00 -0.00000000000E+00 -0.45593999997E+02  0.45594000000E+02  0.51100000000E-03 0.  1.
         23    2    1    2    0    0  0.00000000000E+00  0.00000000000E+00  0.71054273576E-14  0.91188000000E+02  0.91188000000E+02 0.  0.
    9900012    2    3    3    0    0 -0.17741322590E+02  0.83267863549E+01  0.38723811300E+02  0.47787268902E+02  0.19999990230E+02 0.  0.
        -12    1    3    3    0    0  0.17741322590E+02 -0.83267863549E+01 -0.38723811300E+02  0.43400731098E+02  0.00000000000E+00 0.  1.
         11    1    4    4    0    0 -0.64405368610E+00 -0.16585131019E+01  0.11058114662E+02  0.11200329058E+02  0.51100000000E-03 0. -1.
        -11    1    4    4    0    0 -0.55459378641E+01  0.10581966062E+02  0.17491641619E+02  0.21182373788E+02  0.51100000000E-03 0.  1.
        -12    1    4    4    0    0 -0.11551331040E+02 -0.59666660503E+00  0.10174055020E+02  0.15404566056E+02  0.00000000000E+00 0.  1.
</event>
<event>
 8    1  0.4798632E-010  0.9118800E+02  0.7816164E-02  0.1184000E+00
        -11   -1    0    0    0    0  0.00000000000E+00  0.00000000000E+00  0.45593999997E+02  0.45594000000E+02  0.51100000000E-03 0. -1.
         11   -1    0    0    0    0 -0.00000000000E+00 -0.00000000000E+00 -0.45593999997E+02  0.45594000000E+02  0.51100000000E-03 0.  1.
         23    2    1    2    0    0  0.00000000000E+00  0.00000000000E+00  0.00000000000E+00  0.91188000000E+02  0.91188000000E+02 0.  0.
    9900012    2    3    3    0    0  0.86667951743E+01  0.25688667133E+02  0.33891037645E+02  0.47787269703E+02  0.19999993886E+02 0.  0.
        -12    1    3    3    0    0 -0.86667951743E+01 -0.25688667133E+02 -0.33891037645E+02  0.43400730297E+02  0.00000000000E+00 0.  1.
         11    1    4    4    0    0  0.75891891127E+01  0.16533544118E+02  0.28057159538E+02  0.33438870706E+02  0.51100000000E-03 0. -1.
        -11    1    4    4    0    0  0.47417807139E+01  0.52678808065E+01  0.10262185507E+01  0.71615764539E+01  0.51100000000E-03 0.  1.
         12    1    4    4    0    0 -0.36641746523E+01  0.38872422078E+01  0.48076595555E+01  0.71868225431E+01  0.00000000000E+00 0. -1.
</event>
<event>
 8    1  0.4798632E-010  0.9118800E+02  0.7816164E-02  0.1184000E+00
        -11   -1    0    0    0    0  0.00000000000E+00  0.00000000000E+00  0.45593999997E+02  0.45594000000E+02  0.51100000000E-03 0. -1.
         11   -1    0    0    0    0 -0.00000000000E+00 -0.00000000000E+00 -0.45593999997E+02  0.45594000000E+02  0.51100000000E-03 0.  1.
         23    2    1    2    0    0  0.00000000000E+00  0.00000000000E+00  0.00000000000E+00  0.91188000000E+02  0.91188000000E+02 0.  0.
    9900012    2    3    3    0    0 -0.16794116645E+02 -0.20767786172E+02  0.34209354228E+02  0.47787271745E+02  0.20000003195E+02 0.  0.
        -12    1    3    3    0    0  0.16794116645E+02  0.20767786172E+02 -0.34209354228E+02  0.43400728255E+02  0.00000000000E+00 0.  1.
         11    1    4    4    0    0 -0.16880327187E+02 -0.18913715437E+02  0.17663653288E+02  0.30897875741E+02  0.51100000000E-03 0. -1.
        -11    1    4    4    0    0  0.91053147069E+00 -0.61243760929E+00  0.12959040318E+02  0.13005417087E+02  0.51100000000E-03 0.  1.
         12    1    4    4    0    0 -0.82432092829E+00 -0.12416331261E+01  0.35866606218E+01  0.38839789171E+01  0.00000000000E+00 0. -1.
</event>
<event>
 8    1  0.4798632E-010  0.9118800E+02  0.7816164E-02  0.1184000E+00
        -11   -1    0    0    0    0  0.00000000000E+00  0.00000000000E+00  0.45593999997E+02  0.45594000000E+02  0.51100000000E-03 0. -1.
         11   -1    0    0    0    0 -0.00000000000E+00 -0.00000000000E+00 -0.45593999997E+02  0.45594000000E+02  0.51100000000E-03 0.  1.
         23    2    1    2    0    0  0.00000000000E+00  0.00000000000E+00  0.00000000000E+00  0.91188000000E+02  0.91188000000E+02 0.  0.
    9900012    2    3    3    0    0  0.10039528354E+02  0.30807657192E+02 -0.28874199425E+02  0.47787271162E+02  0.20000000535E+02 0.  0.
         12    1    3    3    0    0 -0.10039528354E+02 -0.30807657192E+02  0.28874199425E+02  0.43400728838E+02  0.00000000000E+00 0. -1.
         11    1    4    4    0    0 -0.45699583540E+01  0.45842751076E+01 -0.30405797429E+01  0.71515888482E+01  0.51100000000E-03 0. -1.
        -11    1    4    4    0    0  0.93901701022E+01  0.20410479460E+02 -0.23432013520E+02  0.32462628116E+02  0.51100000000E-03 0.  1.
        -12    1    4    4    0    0  0.52193166061E+01  0.58129026243E+01 -0.24016061624E+01  0.81730541975E+01  0.00000000000E+00 0.  1.
</event>
<event>
 8    1  0.4798632E-010  0.9118800E+02  0.7816164E-02  0.1184000E+00
        -11   -1    0    0    0    0  0.00000000000E+00  0.00000000000E+00  0.45593999997E+02  0.45594000000E+02  0.51100000000E-03 0. -1.
         11   -1    0    0    0    0 -0.00000000000E+00 -0.00000000000E+00 -0.45593999997E+02  0.45594000000E+02  0.51100000000E-03 0.  1.
         23    2    1    2    0    0  0.00000000000E+00  0.35527136788E-14  0.71054273576E-14  0.91188000000E+02  0.91188000000E+02 0.  0.
    9900012    2    3    3    0    0 -0.94282459930E+01 -0.28228557438E+02 -0.31589238571E+02  0.47787271077E+02  0.20000000149E+02 0.  0.
         12    1    3    3    0    0  0.94282459930E+01  0.28228557438E+02  0.31589238571E+02  0.43400728923E+02  0.00000000000E+00 0. -1.
         11    1    4    4    0    0 -0.10400226358E+01 -0.89739771829E+01 -0.11785342680E+01  0.91105903675E+01  0.51100000000E-03 0. -1.
        -11    1    4    4    0    0 -0.92488964211E+01 -0.74313252385E+01 -0.17568334742E+02  0.21199364747E+02  0.51100000000E-03 0.  1.
        -12    1    4    4    0    0  0.86067306386E+00 -0.11823255016E+02 -0.12842369562E+02  0.17477315963E+02  0.00000000000E+00 0.  1.
</event>
<event>
 8    1  0.4798632E-010  0.9118800E+02  0.7816164E-02  0.1184000E+00
        -11   -1    0    0    0    0  0.00000000000E+00  0.00000000000E+00  0.45593999997E+02  0.45594000000E+02  0.51100000000E-03 0.  1.
         11   -1    0    0    0    0 -0.00000000000E+00 -0.00000000000E+00 -0.45593999997E+02  0.45594000000E+02  0.51100000000E-03 0. -1.
         23    2    1    2    0    0  0.00000000000E+00  0.00000000000E+00  0.00000000000E+00  0.91188000000E+02  0.91188000000E+02 0.  0.
    9900012    2    3    3    0    0 -0.25721373220E+01 -0.36229384040E+02 -0.23757943485E+02  0.47787262253E+02  0.19999959916E+02 0.  0.
         12    1    3    3    0    0  0.25721373220E+01  0.36229384040E+02  0.23757943485E+02  0.43400737747E+02  0.00000000000E+00 0. -1.
         11    1    4    4    0    0 -0.40368418443E+01 -0.12943697278E+01 -0.86831523134E+01  0.96627438870E+01  0.51100000000E-03 0. -1.
        -11    1    4    4    0    0 -0.85058709998E-01 -0.26240620165E+01 -0.64253011822E+00  0.27029209504E+01  0.51100000000E-03 0.  1.
         12    1    4    4    0    0  0.15497632322E+01 -0.32310952296E+02 -0.14432261054E+02  0.35421597415E+02  0.00000000000E+00 0. -1.
</event>
<event>
 8    1  0.4798632E-010  0.9118800E+02  0.7816164E-02  0.1184000E+00
        -11   -1    0    0    0    0  0.00000000000E+00  0.00000000000E+00  0.45593999997E+02  0.45594000000E+02  0.51100000000E-03 0. -1.
         11   -1    0    0    0    0 -0.00000000000E+00 -0.00000000000E+00 -0.45593999997E+02  0.45594000000E+02  0.51100000000E-03 0.  1.
         23    2    1    2    0    0  0.00000000000E+00  0.00000000000E+00  0.00000000000E+00  0.91188000000E+02  0.91188000000E+02 0.  0.
    9900012    2    3    3    0    0  0.20807669486E+02 -0.13941638475E+02  0.35444257110E+02  0.47787265503E+02  0.19999974734E+02 0.  0.
        -12    1    3    3    0    0 -0.20807669486E+02  0.13941638475E+02 -0.35444257110E+02  0.43400734497E+02  0.00000000000E+00 0.  1.
         11    1    4    4    0    0  0.82790348773E+01 -0.90775858209E+01  0.56773771188E+01  0.13534311732E+02  0.51100000000E-03 0. -1.
        -11    1    4    4    0    0  0.14267809266E+02 -0.43265643209E+01  0.24495341569E+02  0.28675970758E+02  0.51100000000E-03 0.  1.
        -12    1    4    4    0    0 -0.17391746569E+01 -0.53748833266E+00  0.52715384222E+01  0.55769830134E+01  0.00000000000E+00 0.  1.
</event>
<event>
 8    1  0.4798632E-010  0.9118800E+02  0.7816164E-02  0.1184000E+00
        -11   -1    0    0    0    0  0.00000000000E+00  0.00000000000E+00  0.45593999997E+02  0.45594000000E+02  0.51100000000E-03 0.  1.
         11   -1    0    0    0    0 -0.00000000000E+00 -0.00000000000E+00 -0.45593999997E+02  0.45594000000E+02  0.51100000000E-03 0. -1.
         23    2    1    2    0    0 -0.17763568394E-14  0.00000000000E+00 -0.35527136788E-14  0.91188000000E+02  0.91188000000E+02 0.  0.
    9900012    2    3    3    0    0  0.14117756180E+02  0.39278448124E+02  0.11896042602E+02  0.47787270096E+02  0.19999995676E+02 0.  0.
         12    1    3    3    0    0 -0.14117756180E+02 -0.39278448124E+02 -0.11896042602E+02  0.43400729904E+02  0.00000000000E+00 0. -1.
         11    1    4    4    0    0 -0.50954688714E+00 -0.15799803285E+01  0.68223601071E+00  0.17948320546E+01  0.51100000000E-03 0. -1.
        -11    1    4    4    0    0  0.42744514367E+01  0.15978180275E+02 -0.63974363333E+00  0.16552415297E+02  0.51100000000E-03 0.  1.
         12    1    4    4    0    0  0.10352851630E+02  0.24880248178E+02  0.11853550224E+02  0.29440022745E+02  0.00000000000E+00 0. -1.
</event>
<event>
 8    1  0.4798632E-010  0.9118800E+02  0.7816164E-02  0.1184000E+00
        -11   -1    0    0    0    0  0.00000000000E+00  0.00000000000E+00  0.45593999997E+02  0.45594000000E+02  0.51100000000E-03 0. -1.
         11   -1    0    0    0    0 -0.00000000000E+00 -0.00000000000E+00 -0.45593999997E+02  0.45594000000E+02  0.51100000000E-03 0.  1.
         23    2    1    2    0    0 -0.35527136788E-14  0.35527136788E-14  0.00000000000E+00  0.91188000000E+02  0.91188000000E+02 0.  0.
    9900012    2    3    3    0    0 -0.21797527120E+02  0.25960552922E+02  0.27102411006E+02  0.47787272139E+02  0.20000004989E+02 0.  0.
        -12    1    3    3    0    0  0.21797527120E+02 -0.25960552922E+02 -0.27102411006E+02  0.43400727861E+02  0.00000000000E+00 0.  1.
         11    1    4    4    0    0  0.29810818249E+01  0.24303597688E+01  0.87377870585E+00  0.39442346458E+01  0.51100000000E-03 0. -1.
        -11    1    4    4    0    0 -0.15289113671E+02  0.10295414256E+02  0.10554976281E+02  0.21240529092E+02  0.51100000000E-03 0.  1.
         12    1    4    4    0    0 -0.94894952734E+01  0.13234778897E+02  0.15673656019E+02  0.22602508401E+02  0.00000000000E+00 0. -1.
</event>
<event>
 8    1  0.4798632E-010  0.9118800E+02  0.7816164E-02  0.1184000E+00
        -11   -1    0    0    0    0  0.00000000000E+00  0.00000000000E+00  0.45593999997E+02  0.45594000000E+02  0.51100000000E-03 0.  1.
         11   -1    0    0    0    0 -0.00000000000E+00 -0.00000000000E+00 -0.45593999997E+02  0.45594000000E+02  0.51100000000E-03 0. -1.
         23    2    1    2    0    0  0.00000000000E+00  0.00000000000E+00  0.00000000000E+00  0.91188000000E+02  0.91188000000E+02 0.  0.
    9900012    2    3    3    0    0 -0.19685475665E+02  0.38335967793E+02  0.51436500156E+01  0.47787291316E+02  0.20000092428E+02 0.  0.
        -12    1    3    3    0    0  0.19685475665E+02 -0.38335967793E+02 -0.51436500156E+01  0.43400708684E+02  0.00000000000E+00 0.  1.
         11    1    4    4    0    0 -0.12532506725E+02  0.33869990867E+02  0.93361176849E+01  0.37301516052E+02  0.51100000000E-03 0. -1.
        -11    1    4    4    0    0 -0.64806234767E+01  0.16530058670E+01 -0.25358483960E+01  0.71527223064E+01  0.51100000000E-03 0.  1.
         12    1    4    4    0    0 -0.67234546317E+00  0.28129710593E+01 -0.16566192733E+01  0.33330529577E+01  0.00000000000E+00 0. -1.
</event>
<event>
 8    1  0.4798632E-010  0.9118800E+02  0.7816164E-02  0.1184000E+00
        -11   -1    0    0    0    0  0.00000000000E+00  0.00000000000E+00  0.45593999997E+02  0.45594000000E+02  0.51100000000E-03 0. -1.
         11   -1    0    0    0    0 -0.00000000000E+00 -0.00000000000E+00 -0.45593999997E+02  0.45594000000E+02  0.51100000000E-03 0.  1.
         23    2    1    2    0    0  0.00000000000E+00  0.35527136788E-14 -0.71054273576E-14  0.91188000000E+02  0.91188000000E+02 0.  0.
    9900012    2    3    3    0    0 -0.10253160440E+02 -0.14674491648E+02  0.39536757328E+02  0.47787272078E+02  0.20000004714E+02 0.  0.
        -12    1    3    3    0    0  0.10253160440E+02  0.14674491648E+02 -0.39536757328E+02  0.43400727922E+02  0.00000000000E+00 0.  1.
         11    1    4    4    0    0 -0.72306653192E+01  0.16327186976E+01  0.16252145731E+02  0.17862825432E+02  0.51100000000E-03 0. -1.
        -11    1    4    4    0    0 -0.17997589890E+01 -0.15925935503E+02  0.23671073420E+02  0.28586609998E+02  0.51100000000E-03 0.  1.
        -12    1    4    4    0    0 -0.12227361322E+01 -0.38127484314E+00 -0.38646182375E+00  0.13378366478E+01  0.00000000000E+00 0.  1.
</event>
<event>
 8    1  0.4798632E-010  0.9118800E+02  0.7816164E-02  0.1184000E+00
        -11   -1    0    0    0    0  0.00000000000E+00  0.00000000000E+00  0.45593999997E+02  0.45594000000E+02  0.51100000000E-03 0. -1.
         11   -1    0    0    0    0 -0.00000000000E+00 -0.00000000000E+00 -0.45593999997E+02  0.45594000000E+02  0.51100000000E-03 0.  1.
         23    2    1    2    0    0  0.35527136788E-14  0.00000000000E+00 -0.35527136788E-14  0.91188000000E+02  0.91188000000E+02 0.  0.
    9900012    2    3    3    0    0  0.24573013619E+02  0.17562371215E+02  0.31166546146E+02  0.47787268674E+02  0.19999989191E+02 0.  0.
        -12    1    3    3    0    0 -0.24573013619E+02 -0.17562371215E+02 -0.31166546146E+02  0.43400731326E+02  0.00000000000E+00 0.  1.
         11    1    4    4    0    0  0.24951047986E+02  0.14048003123E+02  0.22005749569E+02  0.36113075218E+02  0.51100000000E-03 0. -1.
        -11    1    4    4    0    0 -0.15325407197E+01  0.30051896274E+01  0.11491048067E+01  0.35637463255E+01  0.51100000000E-03 0.  1.
         12    1    4    4    0    0  0.11545063520E+01  0.50917846460E+00  0.80116917705E+01  0.81104471302E+01  0.00000000000E+00 0. -1.
</event>
<event>
 8    1  0.4798632E-010  0.9118800E+02  0.7816164E-02  0.1184000E+00
        -11   -1    0    0    0    0  0.00000000000E+00  0.00000000000E+00  0.45593999997E+02  0.45594000000E+02  0.51100000000E-03 0. -1.
         11   -1    0    0    0    0 -0.00000000000E+00 -0.00000000000E+00 -0.45593999997E+02  0.45594000000E+02  0.51100000000E-03 0.  1.
         23    2    1    2    0    0  0.35527136788E-14  0.00000000000E+00  0.00000000000E+00  0.91188000000E+02  0.91188000000E+02 0.  0.
    9900012    2    3    3    0    0  0.20915875620E+02  0.18131781438E+02 -0.33427342687E+02  0.47787278921E+02  0.20000035914E+02 0.  0.
         12    1    3    3    0    0 -0.20915875620E+02 -0.18131781438E+02  0.33427342687E+02  0.43400721079E+02  0.00000000000E+00 0. -1.
         11    1    4    4    0    0  0.19358458184E+02  0.19583170739E+02 -0.19988537368E+02  0.34026344292E+02  0.51100000000E-03 0. -1.
        -11    1    4    4    0    0  0.12870552747E+01 -0.30678275137E+00 -0.10683455463E+02  0.10765075375E+02  0.51100000000E-03 0.  1.
         12    1    4    4    0    0  0.27036216082E+00 -0.11446065494E+01 -0.27553498552E+01  0.29958592550E+01  0.00000000000E+00 0. -1.
</event>
<event>
 8    1  0.5080787E-010  0.9118800E+02  0.7816164E-02  0.1184000E+00
        -11   -1    0    0    0    0  0.00000000000E+00  0.00000000000E+00  0.45593999997E+02  0.45594000000E+02  0.51100000000E-03 0. -1.
         11   -1    0    0    0    0 -0.00000000000E+00 -0.00000000000E+00 -0.45593999997E+02  0.45594000000E+02  0.51100000000E-03 0.  1.
         23    2    1    2    0    0  0.00000000000E+00 -0.17763568394E-14  0.71054273576E-14  0.91188000000E+02  0.91188000000E+02 0.  0.
    9900012    2    3    3    0    0 -0.19181814566E+02  0.14376862563E+02 -0.36179926156E+02  0.47787271390E+02  0.20000001576E+02 0.  0.
         12    1    3    3    0    0  0.19181814566E+02 -0.14376862563E+02  0.36179926156E+02  0.43400728610E+02  0.00000000000E+00 0. -1.
         11    1    4    4    0    0 -0.72196200642E+01 -0.14305312007E+01 -0.27389384415E+01  0.78530960414E+01  0.51100000000E-03 0. -1.
        -11    1    4    4    0    0 -0.54588146592E+01  0.13184199037E+02 -0.26323943210E+02  0.29942807953E+02  0.51100000000E-03 0.  1.
        -12    1    4    4    0    0 -0.65033798425E+01  0.26231947269E+01 -0.71170445052E+01  0.99913673959E+01  0.00000000000E+00 0.  1.
</event>
<event>
 8    1  0.4798632E-010  0.9118800E+02  0.7816164E-02  0.1184000E+00
        -11   -1    0    0    0    0  0.00000000000E+00  0.00000000000E+00  0.45593999997E+02  0.45594000000E+02  0.51100000000E-03 0. -1.
         11   -1    0    0    0    0 -0.00000000000E+00 -0.00000000000E+00 -0.45593999997E+02  0.45594000000E+02  0.51100000000E-03 0.  1.
         23    2    1    2    0    0  0.22204460493E-15  0.00000000000E+00  0.00000000000E+00  0.91188000000E+02  0.91188000000E+02 0.  0.
    9900012    2    3    3    0    0 -0.12469884680E+01 -0.33935521482E+02 -0.27026808897E+02  0.47787274227E+02  0.20000014509E+02 0.  0.
         12    1    3    3    0    0  0.12469884680E+01  0.33935521482E+02  0.27026808897E+02  0.43400725773E+02  0.00000000000E+00 0. -1.
         11    1    4    4    0    0  0.24987925383E+01 -0.12561859713E+02 -0.15069914547E+02  0.19777426736E+02  0.51100000000E-03 0. -1.
        -11    1    4    4    0    0 -0.22987712651E+01 -0.37554272252E+01  0.25970386611E+01  0.51119656730E+01  0.51100000000E-03 0.  1.
        -12    1    4    4    0    0 -0.14470097411E+01 -0.17618234544E+02 -0.14553933011E+02  0.22897881817E+02  0.00000000000E+00 0.  1.
</event>
<event>
 8    1  0.4798632E-010  0.9118800E+02  0.7816164E-02  0.1184000E+00
        -11   -1    0    0    0    0  0.00000000000E+00  0.00000000000E+00  0.45593999997E+02  0.45594000000E+02  0.51100000000E-03 0. -1.
         11   -1    0    0    0    0 -0.00000000000E+00 -0.00000000000E+00 -0.45593999997E+02  0.45594000000E+02  0.51100000000E-03 0.  1.
         23    2    1    2    0    0  0.00000000000E+00  0.35527136788E-14  0.00000000000E+00  0.91188000000E+02  0.91188000000E+02 0.  0.
    9900012    2    3    3    0    0 -0.43360392776E+01 -0.20494005594E+02  0.38010758234E+02  0.47787271395E+02  0.20000001597E+02 0.  0.
        -12    1    3    3    0    0  0.43360392776E+01  0.20494005594E+02 -0.38010758234E+02  0.43400728605E+02  0.00000000000E+00 0.  1.
         11    1    4    4    0    0 -0.33464629394E+01 -0.36439205707E+01  0.95815489257E+01  0.10783461940E+02  0.51100000000E-03 0. -1.
        -11    1    4    4    0    0 -0.26702653109E+01 -0.19866974346E+02  0.25751677077E+02  0.32633967872E+02  0.51100000000E-03 0.  1.
        -12    1    4    4    0    0  0.16806889727E+01  0.30168893230E+01  0.26775322314E+01  0.43698415830E+01  0.00000000000E+00 0.  1.
</event>
<event>
 8    1  0.4798632E-010  0.9118800E+02  0.7816164E-02  0.1184000E+00
        -11   -1    0    0    0    0  0.00000000000E+00  0.00000000000E+00  0.45593999997E+02  0.45594000000E+02  0.51100000000E-03 0.  1.
         11   -1    0    0    0    0 -0.00000000000E+00 -0.00000000000E+00 -0.45593999997E+02  0.45594000000E+02  0.51100000000E-03 0. -1.
         23    2    1    2    0    0  0.17763568394E-14  0.00000000000E+00 -0.88817841970E-15  0.91188000000E+02  0.91188000000E+02 0.  0.
    9900012    2    3    3    0    0 -0.12276926377E+02 -0.40897209868E+02  0.77665003514E+01  0.47787271620E+02  0.20000002623E+02 0.  0.
        -12    1    3    3    0    0  0.12276926377E+02  0.40897209868E+02 -0.77665003514E+01  0.43400728380E+02  0.00000000000E+00 0.  1.
         11    1    4    4    0    0 -0.50880581331E+00 -0.14092231103E+02 -0.42288985885E+01  0.14721869594E+02  0.51100000000E-03 0. -1.
        -11    1    4    4    0    0 -0.48908729643E+00  0.16371257297E+00 -0.96086915804E+00  0.10905402285E+01  0.51100000000E-03 0.  1.
         12    1    4    4    0    0 -0.11279033267E+02 -0.26968691338E+02  0.12956268098E+02  0.31974861797E+02  0.00000000000E+00 0. -1.
</event>
<event>
 8    1  0.4798632E-010  0.9118800E+02  0.7816164E-02  0.1184000E+00
        -11   -1    0    0    0    0  0.00000000000E+00  0.00000000000E+00  0.45593999997E+02  0.45594000000E+02  0.51100000000E-03 0. -1.
         11   -1    0    0    0    0 -0.00000000000E+00 -0.00000000000E+00 -0.45593999997E+02  0.45594000000E+02  0.51100000000E-03 0.  1.
         23    2    1    2    0    0  0.17763568394E-14 -0.71054273576E-14  0.00000000000E+00  0.91188000000E+02  0.91188000000E+02 0.  0.
    9900012    2    3    3    0    0 -0.15289464346E+02  0.36335104034E+02 -0.18155217125E+02  0.47787315512E+02  0.20000202744E+02 0.  0.
         12    1    3    3    0    0  0.15289464346E+02 -0.36335104034E+02  0.18155217125E+02  0.43400684488E+02  0.00000000000E+00 0. -1.
         11    1    4    4    0    0 -0.94635680094E+01  0.87817440303E+01 -0.72141969853E+01  0.14789279431E+02  0.51100000000E-03 0. -1.
        -11    1    4    4    0    0  0.33826209791E+01  0.84062898177E+01  0.83499971004E-01  0.90617220049E+01  0.51100000000E-03 0.  1.
        -12    1    4    4    0    0 -0.92085173161E+01  0.19147070186E+02 -0.11024520111E+02  0.23936314076E+02  0.00000000000E+00 0.  1.
</event>
<event>
 8    1  0.4798632E-010  0.9118800E+02  0.7816164E-02  0.1184000E+00
        -11   -1    0    0    0    0  0.00000000000E+00  0.00000000000E+00  0.45593999997E+02  0.45594000000E+02  0.51100000000E-03 0.  1.
         11   -1    0    0    0    0 -0.00000000000E+00 -0.00000000000E+00 -0.45593999997E+02  0.45594000000E+02  0.51100000000E-03 0. -1.
         23    2    1    2    0    0  0.00000000000E+00  0.00000000000E+00  0.00000000000E+00  0.91188000000E+02  0.91188000000E+02 0.  0.
    9900012    2    3    3    0    0 -0.33432994958E+02 -0.16295012233E+02 -0.22368093966E+02  0.47787260338E+02  0.19999951184E+02 0.  0.
         12    1    3    3    0    0  0.33432994958E+02  0.16295012233E+02  0.22368093966E+02  0.43400739662E+02  0.00000000000E+00 0. -1.
         11    1    4    4    0    0 -0.75412750101E+01 -0.12812452167E+01  0.19752120584E+01  0.79002456303E+01  0.51100000000E-03 0. -1.
        -11    1    4    4    0    0 -0.15973319485E+02 -0.74183769847E+01 -0.20027774964E+02  0.26670039796E+02  0.51100000000E-03 0.  1.
        -12    1    4    4    0    0 -0.99184004624E+01 -0.75953900320E+01 -0.43155310609E+01  0.13216974911E+02  0.00000000000E+00 0.  1.
</event>
<event>
 8    1  0.4798632E-010  0.9118800E+02  0.7816164E-02  0.1184000E+00
        -11   -1    0    0    0    0  0.00000000000E+00  0.00000000000E+00  0.45593999997E+02  0.45594000000E+02  0.51100000000E-03 0.  1.
         11   -1    0    0    0    0 -0.00000000000E+00 -0.00000000000E+00 -0.45593999997E+02  0.45594000000E+02  0.51100000000E-03 0. -1.
         23    2    1    2    0    0  0.35527136788E-14  0.00000000000E+00 -0.88817841970E-15  0.91188000000E+02  0.91188000000E+02 0.  0.
    9900012    2    3    3    0    0  0.28550526624E+02  0.31847924202E+02 -0.73621116234E+01  0.47787268048E+02  0.19999986337E+02 0.  0.
        -12    1    3    3    0    0 -0.28550526624E+02 -0.31847924202E+02  0.73621116234E+01  0.43400731952E+02  0.00000000000E+00 0.  1.
         11    1    4    4    0    0  0.57808463580E+01  0.15630326318E+02 -0.78468325290E+01  0.18420045234E+02  0.51100000000E-03 0. -1.
        -11    1    4    4    0    0  0.30684461870E+01  0.12859651043E+01 -0.29035167463E+01  0.44158213290E+01  0.51100000000E-03 0.  1.
         12    1    4    4    0    0  0.19701234079E+02  0.14931632779E+02  0.33882376520E+01  0.24951401485E+02  0.00000000000E+00 0. -1.
</event>
<event>
 8    1  0.4798632E-010  0.9118800E+02  0.7816164E-02  0.1184000E+00
        -11   -1    0    0    0    0  0.00000000000E+00  0.00000000000E+00  0.45593999997E+02  0.45594000000E+02  0.51100000000E-03 0. -1.
         11   -1    0    0    0    0 -0.00000000000E+00 -0.00000000000E+00 -0.45593999997E+02  0.45594000000E+02  0.51100000000E-03 0.  1.
         23    2    1    2    0    0  0.00000000000E+00 -0.88817841970E-15  0.14210854715E-13  0.91188000000E+02  0.91188000000E+02 0.  0.
    9900012    2    3    3    0    0  0.14236136874E+02 -0.41003595517E+01  0.40793903787E+02  0.47787272728E+02  0.20000007677E+02 0.  0.
        -12    1    3    3    0    0 -0.14236136874E+02  0.41003595517E+01 -0.40793903787E+02  0.43400727272E+02  0.00000000000E+00 0.  1.
         11    1    4    4    0    0  0.15852362307E+02 -0.34675533787E+00  0.17668960228E+02  0.23740467261E+02  0.51100000000E-03 0. -1.
        -11    1    4    4    0    0 -0.53198534221E+00  0.77919085707E+00  0.78934222176E+00  0.12301252783E+01  0.51100000000E-03 0.  1.
         12    1    4    4    0    0 -0.10842400918E+01 -0.45327950709E+01  0.22335601337E+02  0.22816680189E+02  0.00000000000E+00 0. -1.
</event>
<event>
 8    1  0.4798632E-010  0.9118800E+02  0.7816164E-02  0.1184000E+00
        -11   -1    0    0    0    0  0.00000000000E+00  0.00000000000E+00  0.45593999997E+02  0.45594000000E+02  0.51100000000E-03 0. -1.
         11   -1    0    0    0    0 -0.00000000000E+00 -0.00000000000E+00 -0.45593999997E+02  0.45594000000E+02  0.51100000000E-03 0.  1.
         23    2    1    2    0    0 -0.35527136788E-14 -0.35527136788E-14 -0.35527136788E-14  0.91188000000E+02  0.91188000000E+02 0.  0.
    9900012    2    3    3    0    0 -0.21881187606E+02 -0.25923583667E+02 -0.27070356730E+02  0.47787276795E+02  0.20000026220E+02 0.  0.
         12    1    3    3    0    0  0.21881187606E+02  0.25923583667E+02  0.27070356730E+02  0.43400723205E+02  0.00000000000E+00 0. -1.
         11    1    4    4    0    0 -0.74076651022E+01 -0.16106571752E+01 -0.11036001197E+02  0.13388840184E+02  0.51100000000E-03 0. -1.
        -11    1    4    4    0    0 -0.95610525176E+00 -0.12155136836E+02 -0.74968866210E+01  0.14313098826E+02  0.51100000000E-03 0.  1.
         12    1    4    4    0    0 -0.13517417252E+02 -0.12157789656E+02 -0.85374689127E+01  0.20085337785E+02  0.00000000000E+00 0. -1.
</event>
<event>
 8    1  0.4798632E-010  0.9118800E+02  0.7816164E-02  0.1184000E+00
        -11   -1    0    0    0    0  0.00000000000E+00  0.00000000000E+00  0.45593999997E+02  0.45594000000E+02  0.51100000000E-03 0. -1.
         11   -1    0    0    0    0 -0.00000000000E+00 -0.00000000000E+00 -0.45593999997E+02  0.45594000000E+02  0.51100000000E-03 0.  1.
         23    2    1    2    0    0 -0.17763568394E-14 -0.35527136788E-14  0.00000000000E+00  0.91188000000E+02  0.91188000000E+02 0.  0.
    9900012    2    3    3    0    0 -0.13431868917E+02 -0.22381034073E+02  0.34674152792E+02  0.47787278109E+02  0.20000032212E+02 0.  0.
        -12    1    3    3    0    0  0.13431868917E+02  0.22381034073E+02 -0.34674152792E+02  0.43400721891E+02  0.00000000000E+00 0.  1.
         11    1    4    4    0    0 -0.89990703320E+01 -0.49159444657E+01  0.58069573899E+01  0.11784334144E+02  0.51100000000E-03 0. -1.
        -11    1    4    4    0    0  0.40616157703E+01 -0.60223613238E+01  0.97819209820E+01  0.12184068981E+02  0.51100000000E-03 0.  1.
         12    1    4    4    0    0 -0.84944143555E+01 -0.11442728283E+02  0.19085274420E+02  0.23818874984E+02  0.00000000000E+00 0. -1.
</event>
<event>
 8    1  0.5240394E-010  0.9118800E+02  0.7816164E-02  0.1184000E+00
        -11   -1    0    0    0    0  0.00000000000E+00  0.00000000000E+00  0.45593999997E+02  0.45594000000E+02  0.51100000000E-03 0. -1.
         11   -1    0    0    0    0 -0.00000000000E+00 -0.00000000000E+00 -0.45593999997E+02  0.45594000000E+02  0.51100000000E-03 0.  1.
         23    2    1    2    0    0  0.00000000000E+00 -0.35527136788E-14  0.00000000000E+00  0.91188000000E+02  0.91188000000E+02 0.  0.
    9900012    2    3    3    0    0 -0.51340224074E+01 -0.30209271154E+02 -0.30735400530E+02  0.47787273100E+02  0.20000009371E+02 0.  0.
         12    1    3    3    0    0  0.51340224074E+01  0.30209271154E+02  0.30735400530E+02  0.43400726900E+02  0.00000000000E+00 0. -1.
         11    1    4    4    0    0  0.28882533500E+01  0.48958326713E+00 -0.30048766541E+01  0.41965441922E+01  0.51100000000E-03 0. -1.
        -11    1    4    4    0    0 -0.38715323623E+01 -0.23353331945E+02 -0.25643637777E+02  0.34899327135E+02  0.51100000000E-03 0.  1.
        -12    1    4    4    0    0 -0.41507433952E+01 -0.73455224765E+01 -0.20868860981E+01  0.86914017725E+01  0.00000000000E+00 0.  1.
</event>
<event>
 8    1  0.4798632E-010  0.9118800E+02  0.7816164E-02  0.1184000E+00
        -11   -1    0    0    0    0  0.00000000000E+00  0.00000000000E+00  0.45593999997E+02  0.45594000000E+02  0.51100000000E-03 0. -1.
         11   -1    0    0    0    0 -0.00000000000E+00 -0.00000000000E+00 -0.45593999997E+02  0.45594000000E+02  0.51100000000E-03 0.  1.
         23    2    1    2    0    0 -0.35527136788E-14  0.17763568394E-14  0.00000000000E+00  0.91188000000E+02  0.91188000000E+02 0.  0.
    9900012    2    3    3    0    0 -0.23136982700E+02  0.14019671682E+02  0.33937472263E+02  0.47787272055E+02  0.20000004607E+02 0.  0.
        -12    1    3    3    0    0  0.23136982700E+02 -0.14019671682E+02 -0.33937472263E+02  0.43400727945E+02  0.00000000000E+00 0.  1.
         11    1    4    4    0    0 -0.55783369351E+01 -0.14274356487E+01  0.15373796851E+02  0.16416730654E+02  0.51100000000E-03 0. -1.
        -11    1    4    4    0    0 -0.12716406677E+02  0.73909811070E+01  0.65082032276E+01  0.16083852462E+02  0.51100000000E-03 0.  1.
         12    1    4    4    0    0 -0.48422390884E+01  0.80561262241E+01  0.12055472185E+02  0.15286688939E+02  0.00000000000E+00 0. -1.
</event>
<event>
 8    1  0.4798632E-010  0.9118800E+02  0.7816164E-02  0.1184000E+00
        -11   -1    0    0    0    0  0.00000000000E+00  0.00000000000E+00  0.45593999997E+02  0.45594000000E+02  0.51100000000E-03 0. -1.
         11   -1    0    0    0    0 -0.00000000000E+00 -0.00000000000E+00 -0.45593999997E+02  0.45594000000E+02  0.51100000000E-03 0.  1.
         23    2    1    2    0    0  0.00000000000E+00  0.00000000000E+00  0.00000000000E+00  0.91188000000E+02  0.91188000000E+02 0.  0.
    9900012    2    3    3    0    0 -0.12852470989E+02  0.92238710593E+01 -0.40414808552E+02  0.47787279291E+02  0.20000037598E+02 0.  0.
         12    1    3    3    0    0  0.12852470989E+02 -0.92238710593E+01  0.40414808552E+02  0.43400720709E+02  0.00000000000E+00 0. -1.
         11    1    4    4    0    0 -0.88281895778E+01 -0.29028736214E+01 -0.26287044795E+02  0.27881397576E+02  0.51100000000E-03 0. -1.
        -11    1    4    4    0    0  0.55532588728E+00  0.53598397903E+01 -0.81966705038E+01  0.98092648567E+01  0.51100000000E-03 0.  1.
         12    1    4    4    0    0 -0.45796072981E+01  0.67669048904E+01 -0.59310932526E+01  0.10096616858E+02  0.00000000000E+00 0. -1.
</event>
<event>
 8    1  0.4798632E-010  0.9118800E+02  0.7816164E-02  0.1184000E+00
        -11   -1    0    0    0    0  0.00000000000E+00  0.00000000000E+00  0.45593999997E+02  0.45594000000E+02  0.51100000000E-03 0. -1.
         11   -1    0    0    0    0 -0.00000000000E+00 -0.00000000000E+00 -0.45593999997E+02  0.45594000000E+02  0.51100000000E-03 0.  1.
         23    2    1    2    0    0 -0.17763568394E-14  0.13322676296E-14  0.00000000000E+00  0.91188000000E+02  0.91188000000E+02 0.  0.
    9900012    2    3    3    0    0 -0.13289862233E+02 -0.10678289344E+01  0.41302088317E+02  0.47787271940E+02  0.20000004083E+02 0.  0.
        -12    1    3    3    0    0  0.13289862233E+02  0.10678289344E+01 -0.41302088317E+02  0.43400728060E+02  0.00000000000E+00 0.  1.
         11    1    4    4    0    0 -0.29056871825E+01 -0.37450589713E+00  0.11230827136E+02  0.11606668389E+02  0.51100000000E-03 0. -1.
        -11    1    4    4    0    0 -0.67790054648E+00 -0.57604078157E+01  0.21519479042E+02  0.22287436502E+02  0.51100000000E-03 0.  1.
        -12    1    4    4    0    0 -0.97062745037E+01  0.50670847785E+01  0.85517821395E+01  0.13893167049E+02  0.00000000000E+00 0.  1.
</event>
<event>
 8    1  0.4798632E-010  0.9118800E+02  0.7816164E-02  0.1184000E+00
        -11   -1    0    0    0    0  0.00000000000E+00  0.00000000000E+00  0.45593999997E+02  0.45594000000E+02  0.51100000000E-03 0. -1.
         11   -1    0    0    0    0 -0.00000000000E+00 -0.00000000000E+00 -0.45593999997E+02  0.45594000000E+02  0.51100000000E-03 0.  1.
         23    2    1    2    0    0  0.00000000000E+00  0.00000000000E+00  0.00000000000E+00  0.91188000000E+02  0.91188000000E+02 0.  0.
    9900012    2    3    3    0    0 -0.32454011170E+02  0.17309019785E+01  0.28763943841E+02  0.47787270421E+02  0.19999997159E+02 0.  0.
        -12    1    3    3    0    0  0.32454011170E+02 -0.17309019785E+01 -0.28763943841E+02  0.43400729579E+02  0.00000000000E+00 0.  1.
         11    1    4    4    0    0 -0.18626718833E+02 -0.16719092851E+00  0.12191229317E+02  0.22262270320E+02  0.51100000000E-03 0. -1.
        -11    1    4    4    0    0  0.84406095106E+00 -0.26409080044E+01  0.67439832079E+01  0.72916489045E+01  0.51100000000E-03 0.  1.
        -12    1    4    4    0    0 -0.14671353288E+02  0.45390009115E+01  0.98287313157E+01  0.18233351196E+02  0.00000000000E+00 0.  1.
</event>
<event>
 8    1  0.5957612E-010  0.9118800E+02  0.7816164E-02  0.1184000E+00
        -11   -1    0    0    0    0  0.00000000000E+00  0.00000000000E+00  0.45593999997E+02  0.45594000000E+02  0.51100000000E-03 0. -1.
         11   -1    0    0    0    0 -0.00000000000E+00 -0.00000000000E+00 -0.45593999997E+02  0.45594000000E+02  0.51100000000E-03 0.  1.
         23    2    1    2    0    0  0.44408920985E-15  0.88817841970E-15  0.00000000000E+00  0.91188000000E+02  0.91188000000E+02 0.  0.
    9900012    2    3    3    0    0 -0.26478271616E+01  0.23579189609E+01  0.43255662537E+02  0.47787272909E+02  0.20000008501E+02 0.  0.
        -12    1    3    3    0    0  0.26478271616E+01 -0.23579189609E+01 -0.43255662537E+02  0.43400727091E+02  0.00000000000E+00 0.  1.
         11    1    4    4    0    0  0.53118844477E+00  0.12022030944E+01  0.11929213793E+02  0.12001399727E+02  0.51100000000E-03 0. -1.
        -11    1    4    4    0    0  0.17000068393E+01 -0.61455212217E+01  0.22295661004E+02  0.23189522509E+02  0.51100000000E-03 0.  1.
        -12    1    4    4    0    0 -0.48790224456E+01  0.73012370881E+01  0.90307877405E+01  0.12596350672E+02  0.00000000000E+00 0.  1.
</event>
<event>
 8    1  0.5352406E-010  0.9118800E+02  0.7816164E-02  0.1184000E+00
        -11   -1    0    0    0    0  0.00000000000E+00  0.00000000000E+00  0.45593999997E+02  0.45594000000E+02  0.51100000000E-03 0. -1.
         11   -1    0    0    0    0 -0.00000000000E+00 -0.00000000000E+00 -0.45593999997E+02  0.45594000000E+02  0.51100000000E-03 0.  1.
         23    2    1    2    0    0  0.00000000000E+00  0.88817841970E-15  0.71054273576E-14  0.91188000000E+02  0.91188000000E+02 0.  0.
    9900012    2    3    3    0    0 -0.12021344915E+02  0.68300052410E+01  0.41139543866E+02  0.47787265275E+02  0.19999973695E+02 0.  0.
        -12    1    3    3    0    0  0.12021344915E+02 -0.68300052410E+01 -0.41139543866E+02  0.43400734725E+02  0.00000000000E+00 0.  1.
         11    1    4    4    0    0 -0.54650384480E+01  0.74160701915E+01  0.24488694313E+02  0.26164114579E+02  0.51100000000E-03 0. -1.
        -11    1    4    4    0    0 -0.68552349834E+01  0.56848715867E+00  0.23447293120E+01  0.72674053234E+01  0.51100000000E-03 0.  1.
        -12    1    4    4    0    0  0.29892851627E+00 -0.11545521092E+01  0.14306120241E+02  0.14355745372E+02  0.00000000000E+00 0.  1.
</event>
<event>
 8    1  0.4798632E-010  0.9118800E+02  0.7816164E-02  0.1184000E+00
        -11   -1    0    0    0    0  0.00000000000E+00  0.00000000000E+00  0.45593999997E+02  0.45594000000E+02  0.51100000000E-03 0. -1.
         11   -1    0    0    0    0 -0.00000000000E+00 -0.00000000000E+00 -0.45593999997E+02  0.45594000000E+02  0.51100000000E-03 0.  1.
         23    2    1    2    0    0  0.00000000000E+00  0.00000000000E+00 -0.35527136788E-14  0.91188000000E+02  0.91188000000E+02 0.  0.
    9900012    2    3    3    0    0  0.35223711942E+02 -0.19031262053E+02  0.16754842809E+02  0.47787267566E+02  0.19999984139E+02 0.  0.
        -12    1    3    3    0    0 -0.35223711942E+02  0.19031262053E+02 -0.16754842809E+02  0.43400732434E+02  0.00000000000E+00 0.  1.
         11    1    4    4    0    0  0.29726333927E+02 -0.14105539506E+02  0.90122766210E+01  0.34115133059E+02  0.51100000000E-03 0.  1.
        -11    1    4    4    0    0  0.21494115327E+01 -0.41943050660E+01  0.88868252079E+01  0.10059216046E+02  0.51100000000E-03 0. -1.
        -12    1    4    4    0    0  0.33479664822E+01 -0.73141748111E+00 -0.11442590200E+01  0.36129184606E+01  0.00000000000E+00 0.  1.
</event>
<event>
 8    1  0.4798632E-010  0.9118800E+02  0.7816164E-02  0.1184000E+00
        -11   -1    0    0    0    0  0.00000000000E+00  0.00000000000E+00  0.45593999997E+02  0.45594000000E+02  0.51100000000E-03 0. -1.
         11   -1    0    0    0    0 -0.00000000000E+00 -0.00000000000E+00 -0.45593999997E+02  0.45594000000E+02  0.51100000000E-03 0.  1.
         23    2    1    2    0    0 -0.35527136788E-14 -0.44408920985E-15  0.71054273576E-14  0.91188000000E+02  0.91188000000E+02 0.  0.
    9900012    2    3    3    0    0  0.16745187055E+02  0.11849555754E+01 -0.40022721023E+02  0.47787267203E+02  0.19999982486E+02 0.  0.
         12    1    3    3    0    0 -0.16745187055E+02 -0.11849555754E+01  0.40022721023E+02  0.43400732797E+02  0.00000000000E+00 0. -1.
         11    1    4    4    0    0  0.46458967203E+01  0.67632582514E+01 -0.23105169812E+02  0.24518868058E+02  0.51100000000E-03 0. -1.
        -11    1    4    4    0    0  0.52917342847E+01 -0.17615923184E+01 -0.11782157975E+01  0.57003378814E+01  0.51100000000E-03 0.  1.
         12    1    4    4    0    0  0.68075560503E+01 -0.38167103576E+01 -0.15739335413E+02  0.17568061264E+02  0.00000000000E+00 0. -1.
</event>
<event>
 8    1  0.4798632E-010  0.9118800E+02  0.7816164E-02  0.1184000E+00
        -11   -1    0    0    0    0  0.00000000000E+00  0.00000000000E+00  0.45593999997E+02  0.45594000000E+02  0.51100000000E-03 0. -1.
         11   -1    0    0    0    0 -0.00000000000E+00 -0.00000000000E+00 -0.45593999997E+02  0.45594000000E+02  0.51100000000E-03 0.  1.
         23    2    1    2    0    0  0.00000000000E+00  0.44408920985E-15  0.00000000000E+00  0.91188000000E+02  0.91188000000E+02 0.  0.
    9900012    2    3    3    0    0  0.40914855408E+02 -0.39049546071E+01 -0.13940914724E+02  0.47787272277E+02  0.20000005621E+02 0.  0.
         12    1    3    3    0    0 -0.40914855408E+02  0.39049546071E+01  0.13940914724E+02  0.43400727723E+02  0.00000000000E+00 0. -1.
         11    1    4    4    0    0  0.35364706130E+01  0.13662452423E+01  0.16017400827E+01  0.41156800182E+01  0.51100000000E-03 0.  1.
        -11    1    4    4    0    0  0.10207316574E+02  0.26284237048E+01 -0.10597233706E+02  0.14946547605E+02  0.51100000000E-03 0. -1.
        -12    1    4    4    0    0  0.27171068220E+02 -0.78996235542E+01 -0.49454211005E+01  0.28725044654E+02  0.00000000000E+00 0.  1.
</event>
<event>
 8    1  0.5699486E-010  0.9118800E+02  0.7816164E-02  0.1184000E+00
        -11   -1    0    0    0    0  0.00000000000E+00  0.00000000000E+00  0.45593999997E+02  0.45594000000E+02  0.51100000000E-03 0. -1.
         11   -1    0    0    0    0 -0.00000000000E+00 -0.00000000000E+00 -0.45593999997E+02  0.45594000000E+02  0.51100000000E-03 0.  1.
         23    2    1    2    0    0  0.00000000000E+00  0.00000000000E+00  0.71054273576E-14  0.91188000000E+02  0.91188000000E+02 0.  0.
    9900012    2    3    3    0    0  0.12025132390E+02 -0.96375431662E+01 -0.40572618083E+02  0.47787269760E+02  0.19999994144E+02 0.  0.
         12    1    3    3    0    0 -0.12025132390E+02  0.96375431662E+01  0.40572618083E+02  0.43400730240E+02  0.00000000000E+00 0. -1.
         11    1    4    4    0    0 -0.17143791769E+01  0.24926692321E+01 -0.37655242595E+01  0.48302866450E+01  0.51100000000E-03 0. -1.
        -11    1    4    4    0    0  0.77858272737E+01 -0.13537783484E+02 -0.29880376315E+02  0.33715390803E+02  0.51100000000E-03 0.  1.
        -12    1    4    4    0    0  0.59536842935E+01  0.14075710859E+01 -0.69267175084E+01  0.92415923125E+01  0.00000000000E+00 0.  1.
</event>
<event>
 8    1  0.4798632E-010  0.9118800E+02  0.7816164E-02  0.1184000E+00
        -11   -1    0    0    0    0  0.00000000000E+00  0.00000000000E+00  0.45593999997E+02  0.45594000000E+02  0.51100000000E-03 0. -1.
         11   -1    0    0    0    0 -0.00000000000E+00 -0.00000000000E+00 -0.45593999997E+02  0.45594000000E+02  0.51100000000E-03 0.  1.
         23    2    1    2    0    0  0.00000000000E+00  0.00000000000E+00  0.00000000000E+00  0.91188000000E+02  0.91188000000E+02 0.  0.
    9900012    2    3    3    0    0 -0.49720190812E+01 -0.17908275274E+02  0.39219805409E+02  0.47787303769E+02  0.20000149202E+02 0.  0.
        -12    1    3    3    0    0  0.49720190812E+01  0.17908275274E+02 -0.39219805409E+02  0.43400696231E+02  0.00000000000E+00 0.  1.
         11    1    4    4    0    0 -0.24298297017E+01 -0.88578147990E+01  0.29876849244E+02  0.31256856470E+02  0.51100000000E-03 0. -1.
        -11    1    4    4    0    0 -0.10656416787E+01 -0.11000541203E+02  0.66769969682E+01  0.12912388924E+02  0.51100000000E-03 0.  1.
         12    1    4    4    0    0 -0.14765477009E+01  0.19500807281E+01  0.26659591967E+01  0.36180583740E+01  0.00000000000E+00 0. -1.
</event>
<event>
 8    1  0.4798632E-010  0.9118800E+02  0.7816164E-02  0.1184000E+00
        -11   -1    0    0    0    0  0.00000000000E+00  0.00000000000E+00  0.45593999997E+02  0.45594000000E+02  0.51100000000E-03 0. -1.
         11   -1    0    0    0    0 -0.00000000000E+00 -0.00000000000E+00 -0.45593999997E+02  0.45594000000E+02  0.51100000000E-03 0.  1.
         23    2    1    2    0    0  0.00000000000E+00  0.00000000000E+00  0.35527136788E-14  0.91188000000E+02  0.91188000000E+02 0.  0.
    9900012    2    3    3    0    0  0.32001195929E+02  0.24067535866E+02  0.16742135947E+02  0.47787286416E+02  0.20000070085E+02 0.  0.
        -12    1    3    3    0    0 -0.32001195929E+02 -0.24067535866E+02 -0.16742135947E+02  0.43400713584E+02  0.00000000000E+00 0.  1.
         11    1    4    4    0    0  0.11166726278E+02  0.11330758963E+02  0.13617661352E+02  0.20940930624E+02  0.51100000000E-03 0. -1.
        -11    1    4    4    0    0  0.12975008307E+02  0.11391501036E+02 -0.19791883355E+01  0.17379134707E+02  0.51100000000E-03 0.  1.
         12    1    4    4    0    0  0.78594613430E+01  0.13452758673E+01  0.51036629307E+01  0.94672210850E+01  0.00000000000E+00 0. -1.
</event>
<event>
 8    1  0.4798632E-010  0.9118800E+02  0.7816164E-02  0.1184000E+00
        -11   -1    0    0    0    0  0.00000000000E+00  0.00000000000E+00  0.45593999997E+02  0.45594000000E+02  0.51100000000E-03 0. -1.
         11   -1    0    0    0    0 -0.00000000000E+00 -0.00000000000E+00 -0.45593999997E+02  0.45594000000E+02  0.51100000000E-03 0.  1.
         23    2    1    2    0    0  0.00000000000E+00  0.00000000000E+00  0.00000000000E+00  0.91188000000E+02  0.91188000000E+02 0.  0.
    9900012    2    3    3    0    0  0.12683177596E+02  0.14744363210E+02 -0.38799021141E+02  0.47787270952E+02  0.19999999579E+02 0.  0.
         12    1    3    3    0    0 -0.12683177596E+02 -0.14744363210E+02  0.38799021141E+02  0.43400729048E+02  0.00000000000E+00 0. -1.
         11    1    4    4    0    0  0.66060819851E+01  0.53096153335E+01 -0.23982077793E+01  0.88081629751E+01  0.51100000000E-03 0. -1.
        -11    1    4    4    0    0  0.11324345525E+01  0.78347665472E+01 -0.28028121839E+02  0.29124587361E+02  0.51100000000E-03 0.  1.
        -12    1    4    4    0    0  0.49446610587E+01  0.15999813289E+01 -0.83726915224E+01  0.98545206159E+01  0.00000000000E+00 0.  1.
</event>
<event>
 8    1  0.4798632E-010  0.9118800E+02  0.7816164E-02  0.1184000E+00
        -11   -1    0    0    0    0  0.00000000000E+00  0.00000000000E+00  0.45593999997E+02  0.45594000000E+02  0.51100000000E-03 0. -1.
         11   -1    0    0    0    0 -0.00000000000E+00 -0.00000000000E+00 -0.45593999997E+02  0.45594000000E+02  0.51100000000E-03 0.  1.
         23    2    1    2    0    0  0.00000000000E+00  0.00000000000E+00  0.00000000000E+00  0.91188000000E+02  0.91188000000E+02 0.  0.
    9900012    2    3    3    0    0  0.40547280804E+02 -0.10195705669E+02  0.11644266703E+02  0.47787270263E+02  0.19999996436E+02 0.  0.
        -12    1    3    3    0    0 -0.40547280804E+02  0.10195705669E+02 -0.11644266703E+02  0.43400729737E+02  0.00000000000E+00 0.  1.
         11    1    4    4    0    0  0.10306298022E+02 -0.82528431713E+00 -0.36549037061E+01  0.10966275324E+02  0.51100000000E-03 0. -1.
        -11    1    4    4    0    0  0.36112666105E+01  0.73509385654E-01 -0.15425784581E+01  0.39276199819E+01  0.51100000000E-03 0.  1.
         12    1    4    4    0    0  0.26629716172E+02 -0.94439307372E+01  0.16841748867E+02  0.32893374957E+02  0.00000000000E+00 0. -1.
</event>
<event>
 8    1  0.4798632E-010  0.9118800E+02  0.7816164E-02  0.1184000E+00
        -11   -1    0    0    0    0  0.00000000000E+00  0.00000000000E+00  0.45593999997E+02  0.45594000000E+02  0.51100000000E-03 0. -1.
         11   -1    0    0    0    0 -0.00000000000E+00 -0.00000000000E+00 -0.45593999997E+02  0.45594000000E+02  0.51100000000E-03 0.  1.
         23    2    1    2    0    0 -0.88817841970E-15  0.17763568394E-14 -0.71054273576E-14  0.91188000000E+02  0.91188000000E+02 0.  0.
    9900012    2    3    3    0    0  0.53523233343E+01  0.14894515475E+02  0.40411997401E+02  0.47787268552E+02  0.19999988636E+02 0.  0.
        -12    1    3    3    0    0 -0.53523233343E+01 -0.14894515475E+02 -0.40411997401E+02  0.43400731448E+02  0.00000000000E+00 0.  1.
         11    1    4    4    0    0  0.38786846909E+01  0.13794207384E+02  0.29956350473E+02  0.33207036697E+02  0.51100000000E-03 0. -1.
        -11    1    4    4    0    0  0.87321244775E+00  0.31256880076E+01 -0.62073432399E+00  0.33041998822E+01  0.51100000000E-03 0.  1.
         12    1    4    4    0    0  0.60042619565E+00 -0.20253799162E+01  0.11076381251E+02  0.11276031973E+02  0.00000000000E+00 0. -1.
</event>
<event>
 8    1  0.5610908E-010  0.9118800E+02  0.7816164E-02  0.1184000E+00
        -11   -1    0    0    0    0  0.00000000000E+00  0.00000000000E+00  0.45593999997E+02  0.45594000000E+02  0.51100000000E-03 0. -1.
         11   -1    0    0    0    0 -0.00000000000E+00 -0.00000000000E+00 -0.45593999997E+02  0.45594000000E+02  0.51100000000E-03 0.  1.
         23    2    1    2    0    0  0.35527136788E-14 -0.17763568394E-14  0.35527136788E-14  0.91188000000E+02  0.91188000000E+02 0.  0.
    9900012    2    3    3    0    0 -0.31989839626E+02  0.12858017622E+02 -0.26361814000E+02  0.47787266206E+02  0.19999977940E+02 0.  0.
         12    1    3    3    0    0  0.31989839626E+02 -0.12858017622E+02  0.26361814000E+02  0.43400733794E+02  0.00000000000E+00 0. -1.
         11    1    4    4    0    0  0.12898548031E+01  0.45360937231E+01 -0.17203758263E+01  0.50199168243E+01  0.51100000000E-03 0. -1.
        -11    1    4    4    0    0 -0.16865780805E+02  0.77279511894E+00 -0.11552296491E+02  0.20457451672E+02  0.51100000000E-03 0.  1.
        -12    1    4    4    0    0 -0.16413913625E+02  0.75491287801E+01 -0.13089141683E+02  0.22309897709E+02  0.00000000000E+00 0.  1.
</event>
<event>
 8    1  0.4798632E-010  0.9118800E+02  0.7816164E-02  0.1184000E+00
        -11   -1    0    0    0    0  0.00000000000E+00  0.00000000000E+00  0.45593999997E+02  0.45594000000E+02  0.51100000000E-03 0. -1.
         11   -1    0    0    0    0 -0.00000000000E+00 -0.00000000000E+00 -0.45593999997E+02  0.45594000000E+02  0.51100000000E-03 0.  1.
         23    2    1    2    0    0  0.88817841970E-15 -0.71054273576E-14  0.44408920985E-15  0.91188000000E+02  0.91188000000E+02 0.  0.
    9900012    2    3    3    0    0  0.47052808011E+01  0.42967043121E+02 -0.39139492170E+01  0.47787245854E+02  0.19999885146E+02 0.  0.
        -12    1    3    3    0    0 -0.47052808011E+01 -0.42967043121E+02  0.39139492170E+01  0.43400754146E+02  0.00000000000E+00 0.  1.
         11    1    4    4    0    0  0.25735939722E+01  0.20191636953E+01 -0.94035443274E+00  0.34036266955E+01  0.51100000000E-03 0.  1.
        -11    1    4    4    0    0  0.35741815942E+01  0.19050472843E+02  0.65523170923E+01  0.20460404423E+02  0.51100000000E-03 0. -1.
        -12    1    4    4    0    0 -0.14424947654E+01  0.21897406582E+02 -0.95259118766E+01  0.23923214735E+02  0.00000000000E+00 0.  1.
</event>
<event>
 8    1  0.4798632E-010  0.9118800E+02  0.7816164E-02  0.1184000E+00
        -11   -1    0    0    0    0  0.00000000000E+00  0.00000000000E+00  0.45593999997E+02  0.45594000000E+02  0.51100000000E-03 0. -1.
         11   -1    0    0    0    0 -0.00000000000E+00 -0.00000000000E+00 -0.45593999997E+02  0.45594000000E+02  0.51100000000E-03 0.  1.
         23    2    1    2    0    0  0.17763568394E-14 -0.71054273576E-14 -0.35527136788E-14  0.91188000000E+02  0.91188000000E+02 0.  0.
    9900012    2    3    3    0    0  0.93809840078E+01 -0.37627105151E+02 -0.19489007769E+02  0.47787270435E+02  0.19999997220E+02 0.  0.
         12    1    3    3    0    0 -0.93809840078E+01  0.37627105151E+02  0.19489007769E+02  0.43400729565E+02  0.00000000000E+00 0. -1.
         11    1    4    4    0    0 -0.36787754091E+00  0.75563020050E+00  0.84362218937E-01  0.84464674872E+00  0.51100000000E-03 0. -1.
        -11    1    4    4    0    0  0.94776352098E+01 -0.12038377740E+02 -0.24370560562E+01  0.15514101658E+02  0.51100000000E-03 0.  1.
        -12    1    4    4    0    0  0.27122633887E+00 -0.26344357612E+02 -0.17136313932E+02  0.31428522028E+02  0.00000000000E+00 0.  1.
</event>
<event>
 8    1  0.4798632E-010  0.9118800E+02  0.7816164E-02  0.1184000E+00
        -11   -1    0    0    0    0  0.00000000000E+00  0.00000000000E+00  0.45593999997E+02  0.45594000000E+02  0.51100000000E-03 0. -1.
         11   -1    0    0    0    0 -0.00000000000E+00 -0.00000000000E+00 -0.45593999997E+02  0.45594000000E+02  0.51100000000E-03 0.  1.
         23    2    1    2    0    0  0.00000000000E+00  0.00000000000E+00  0.00000000000E+00  0.91188000000E+02  0.91188000000E+02 0.  0.
    9900012    2    3    3    0    0  0.13025465887E+02 -0.35645781328E+02  0.21055603973E+02  0.47787274814E+02  0.20000017186E+02 0.  0.
        -12    1    3    3    0    0 -0.13025465887E+02  0.35645781328E+02 -0.21055603973E+02  0.43400725186E+02  0.00000000000E+00 0.  1.
         11    1    4    4    0    0  0.78535961587E+01 -0.29326922683E+02  0.14480006248E+02  0.33636556718E+02  0.51100000000E-03 0. -1.
        -11    1    4    4    0    0  0.36649084970E+01 -0.36236881265E+01 -0.16120679099E+01  0.54001326962E+01  0.51100000000E-03 0.  1.
         12    1    4    4    0    0  0.15069612308E+01 -0.26951705183E+01  0.81876656351E+01  0.87505853990E+01  0.00000000000E+00 0. -1.
</event>
<event>
 8    1  0.4798632E-010  0.9118800E+02  0.7816164E-02  0.1184000E+00
        -11   -1    0    0    0    0  0.00000000000E+00  0.00000000000E+00  0.45593999997E+02  0.45594000000E+02  0.51100000000E-03 0. -1.
         11   -1    0    0    0    0 -0.00000000000E+00 -0.00000000000E+00 -0.45593999997E+02  0.45594000000E+02  0.51100000000E-03 0.  1.
         23    2    1    2    0    0 -0.17763568394E-14 -0.88817841970E-15  0.00000000000E+00  0.91188000000E+02  0.91188000000E+02 0.  0.
    9900012    2    3    3    0    0  0.14796214775E+02  0.73700716219E+01 -0.40129510380E+02  0.47787268085E+02  0.19999986508E+02 0.  0.
         12    1    3    3    0    0 -0.14796214775E+02 -0.73700716219E+01  0.40129510380E+02  0.43400731915E+02  0.00000000000E+00 0. -1.
         11    1    4    4    0    0  0.12670572213E+02 -0.13640569810E-01 -0.11841414666E+02  0.17342511001E+02  0.51100000000E-03 0. -1.
        -11    1    4    4    0    0 -0.22474164227E+01  0.32960447798E+01 -0.18856789038E+02  0.19274161067E+02  0.51100000000E-03 0.  1.
         12    1    4    4    0    0  0.43730589849E+01  0.40876674120E+01 -0.94313066768E+01  0.11170596018E+02  0.00000000000E+00 0. -1.
</event>
<event>
 8    1  0.4798632E-010  0.9118800E+02  0.7816164E-02  0.1184000E+00
        -11   -1    0    0    0    0  0.00000000000E+00  0.00000000000E+00  0.45593999997E+02  0.45594000000E+02  0.51100000000E-03 0. -1.
         11   -1    0    0    0    0 -0.00000000000E+00 -0.00000000000E+00 -0.45593999997E+02  0.45594000000E+02  0.51100000000E-03 0.  1.
         23    2    1    2    0    0  0.17763568394E-14  0.44408920985E-15  0.00000000000E+00  0.91188000000E+02  0.91188000000E+02 0.  0.
    9900012    2    3    3    0    0 -0.13750357490E+02 -0.34093330338E+01  0.41023501530E+02  0.47787267741E+02  0.19999984940E+02 0.  0.
        -12    1    3    3    0    0  0.13750357490E+02  0.34093330338E+01 -0.41023501530E+02  0.43400732259E+02  0.00000000000E+00 0.  1.
         11    1    4    4    0    0 -0.69016184354E+01 -0.41906547778E+00  0.33635711112E+02  0.34339030493E+02  0.51100000000E-03 0. -1.
        -11    1    4    4    0    0 -0.45971703143E+01 -0.46194966223E+01  0.11480291370E+01  0.66175293805E+01  0.51100000000E-03 0.  1.
        -12    1    4    4    0    0 -0.22515687399E+01  0.16292290663E+01  0.62397612802E+01  0.68307078678E+01  0.00000000000E+00 0.  1.
</event>
<event>
 8    1  0.4798632E-010  0.9118800E+02  0.7816164E-02  0.1184000E+00
        -11   -1    0    0    0    0  0.00000000000E+00  0.00000000000E+00  0.45593999997E+02  0.45594000000E+02  0.51100000000E-03 0. -1.
         11   -1    0    0    0    0 -0.00000000000E+00 -0.00000000000E+00 -0.45593999997E+02  0.45594000000E+02  0.51100000000E-03 0.  1.
         23    2    1    2    0    0  0.88817841970E-15  0.00000000000E+00 -0.88817841970E-15  0.91188000000E+02  0.91188000000E+02 0.  0.
    9900012    2    3    3    0    0 -0.72017060566E+01  0.42281979368E+02 -0.66327112427E+01  0.47787271806E+02  0.20000003471E+02 0.  0.
         12    1    3    3    0    0  0.72017060566E+01 -0.42281979368E+02  0.66327112427E+01  0.43400728194E+02  0.00000000000E+00 0. -1.
         11    1    4    4    0    0  0.36712338174E+00  0.58768831768E+01  0.44943766943E+01  0.74075608389E+01  0.51100000000E-03 0. -1.
        -11    1    4    4    0    0 -0.60071994130E+01  0.35589741118E+02 -0.82784964697E+01  0.37030387815E+02  0.51100000000E-03 0.  1.
        -12    1    4    4    0    0 -0.15616300254E+01  0.81535507291E+00 -0.28485914672E+01  0.33493231522E+01  0.00000000000E+00 0.  1.
</event>
<event>
 8    1  0.4798632E-010  0.9118800E+02  0.7816164E-02  0.1184000E+00
        -11   -1    0    0    0    0  0.00000000000E+00  0.00000000000E+00  0.45593999997E+02  0.45594000000E+02  0.51100000000E-03 0. -1.
         11   -1    0    0    0    0 -0.00000000000E+00 -0.00000000000E+00 -0.45593999997E+02  0.45594000000E+02  0.51100000000E-03 0.  1.
         23    2    1    2    0    0  0.55511151231E-15 -0.13322676296E-14  0.71054273576E-14  0.91188000000E+02  0.91188000000E+02 0.  0.
    9900012    2    3    3    0    0 -0.68581644638E+00 -0.35428717272E+01  0.43250446049E+02  0.47787269963E+02  0.19999995069E+02 0.  0.
        -12    1    3    3    0    0  0.68581644638E+00  0.35428717272E+01 -0.43250446049E+02  0.43400730037E+02  0.00000000000E+00 0.  1.
         11    1    4    4    0    0  0.32147423862E+01 -0.89634373678E+01  0.20001295306E+02  0.22152417300E+02  0.51100000000E-03 0. -1.
        -11    1    4    4    0    0 -0.44432557143E+01  0.71697801481E+01  0.21528313015E+02  0.23121776105E+02  0.51100000000E-03 0.  1.
        -12    1    4    4    0    0  0.54269688168E+00 -0.17492145076E+01  0.17208377288E+01  0.25130765583E+01  0.00000000000E+00 0.  1.
</event>
<event>
 8    1  0.4798632E-010  0.9118800E+02  0.7816164E-02  0.1184000E+00
        -11   -1    0    0    0    0  0.00000000000E+00  0.00000000000E+00  0.45593999997E+02  0.45594000000E+02  0.51100000000E-03 0. -1.
         11   -1    0    0    0    0 -0.00000000000E+00 -0.00000000000E+00 -0.45593999997E+02  0.45594000000E+02  0.51100000000E-03 0.  1.
         23    2    1    2    0    0  0.00000000000E+00  0.00000000000E+00  0.00000000000E+00  0.91188000000E+02  0.91188000000E+02 0.  0.
    9900012    2    3    3    0    0 -0.54265155548E+01  0.18750931360E+02  0.38763110445E+02  0.47787271558E+02  0.20000002342E+02 0.  0.
        -12    1    3    3    0    0  0.54265155548E+01 -0.18750931360E+02 -0.38763110445E+02  0.43400728442E+02  0.00000000000E+00 0.  1.
         11    1    4    4    0    0  0.20250844478E+01  0.36646593476E+01  0.23241817489E+02  0.23615943250E+02  0.51100000000E-03 0.  1.
        -11    1    4    4    0    0 -0.45769304495E+01  0.14952493280E+02  0.12754853867E+02  0.20179485748E+02  0.51100000000E-03 0. -1.
        -12    1    4    4    0    0 -0.28746695532E+01  0.13377873199E+00  0.27664390891E+01  0.39918425599E+01  0.00000000000E+00 0.  1.
</event>
<event>
 8    1  0.4798632E-010  0.9118800E+02  0.7816164E-02  0.1184000E+00
        -11   -1    0    0    0    0  0.00000000000E+00  0.00000000000E+00  0.45593999997E+02  0.45594000000E+02  0.51100000000E-03 0. -1.
         11   -1    0    0    0    0 -0.00000000000E+00 -0.00000000000E+00 -0.45593999997E+02  0.45594000000E+02  0.51100000000E-03 0.  1.
         23    2    1    2    0    0 -0.17763568394E-14  0.00000000000E+00 -0.35527136788E-14  0.91188000000E+02  0.91188000000E+02 0.  0.
    9900012    2    3    3    0    0 -0.94754949021E+01 -0.28426885267E+02 -0.31396663962E+02  0.47787270542E+02  0.19999997707E+02 0.  0.
         12    1    3    3    0    0  0.94754949021E+01  0.28426885267E+02  0.31396663962E+02  0.43400729458E+02  0.00000000000E+00 0. -1.
         11    1    4    4    0    0 -0.67053157065E+01 -0.20441640443E+02 -0.10896352093E+02  0.24115397818E+02  0.51100000000E-03 0. -1.
        -11    1    4    4    0    0 -0.52618638616E+01 -0.72461707670E+01 -0.13456703122E+02  0.16164066977E+02  0.51100000000E-03 0.  1.
         12    1    4    4    0    0  0.24916846659E+01 -0.73907405635E+00 -0.70436087473E+01  0.75078057460E+01  0.00000000000E+00 0. -1.
</event>
<event>
 8    1  0.6731568E-010  0.9118800E+02  0.7816164E-02  0.1184000E+00
        -11   -1    0    0    0    0  0.00000000000E+00  0.00000000000E+00  0.45593999997E+02  0.45594000000E+02  0.51100000000E-03 0. -1.
         11   -1    0    0    0    0 -0.00000000000E+00 -0.00000000000E+00 -0.45593999997E+02  0.45594000000E+02  0.51100000000E-03 0.  1.
         23    2    1    2    0    0  0.00000000000E+00  0.35527136788E-14  0.00000000000E+00  0.91188000000E+02  0.91188000000E+02 0.  0.
    9900012    2    3    3    0    0 -0.31065616366E+01  0.17459725468E+02  0.39612253942E+02  0.47787269581E+02  0.19999993325E+02 0.  0.
        -12    1    3    3    0    0  0.31065616366E+01 -0.17459725468E+02 -0.39612253942E+02  0.43400730419E+02  0.00000000000E+00 0.  1.
         11    1    4    4    0    0  0.15620227706E+01  0.10931353861E+02  0.19265049938E+02  0.22205327329E+02  0.51100000000E-03 0. -1.
        -11    1    4    4    0    0 -0.73221141653E+00 -0.41033851765E+01  0.53852989606E+01  0.68099448325E+01  0.51100000000E-03 0.  1.
        -12    1    4    4    0    0 -0.39363729907E+01  0.10631756783E+02  0.14961905043E+02  0.18771997420E+02  0.00000000000E+00 0.  1.
</event>
<event>
 8    1  0.4798632E-010  0.9118800E+02  0.7816164E-02  0.1184000E+00
        -11   -1    0    0    0    0  0.00000000000E+00  0.00000000000E+00  0.45593999997E+02  0.45594000000E+02  0.51100000000E-03 0. -1.
         11   -1    0    0    0    0 -0.00000000000E+00 -0.00000000000E+00 -0.45593999997E+02  0.45594000000E+02  0.51100000000E-03 0.  1.
         23    2    1    2    0    0  0.17763568394E-14  0.00000000000E+00  0.35527136788E-14  0.91188000000E+02  0.91188000000E+02 0.  0.
    9900012    2    3    3    0    0 -0.11632834949E+02 -0.31590708456E+02 -0.27392116889E+02  0.47787265244E+02  0.19999973553E+02 0.  0.
         12    1    3    3    0    0  0.11632834949E+02  0.31590708456E+02  0.27392116889E+02  0.43400734756E+02  0.00000000000E+00 0. -1.
         11    1    4    4    0    0 -0.14620999519E+02 -0.16255582569E+02 -0.13079455063E+02  0.25477239580E+02  0.51100000000E-03 0. -1.
        -11    1    4    4    0    0  0.33041668312E+01 -0.71893147565E+01 -0.32160244875E+01  0.85408769386E+01  0.51100000000E-03 0.  1.
         12    1    4    4    0    0 -0.31600226126E+00 -0.81458111306E+01 -0.11096637339E+02  0.13769148726E+02  0.00000000000E+00 0. -1.
</event>
<event>
 8    1  0.4798632E-010  0.9118800E+02  0.7816164E-02  0.1184000E+00
        -11   -1    0    0    0    0  0.00000000000E+00  0.00000000000E+00  0.45593999997E+02  0.45594000000E+02  0.51100000000E-03 0. -1.
         11   -1    0    0    0    0 -0.00000000000E+00 -0.00000000000E+00 -0.45593999997E+02  0.45594000000E+02  0.51100000000E-03 0.  1.
         23    2    1    2    0    0 -0.17763568394E-14  0.00000000000E+00  0.00000000000E+00  0.91188000000E+02  0.91188000000E+02 0.  0.
    9900012    2    3    3    0    0  0.11308195544E+02  0.90852362302E+01  0.40904859279E+02  0.47787259033E+02  0.19999945236E+02 0.  0.
        -12    1    3    3    0    0 -0.11308195544E+02 -0.90852362302E+01 -0.40904859279E+02  0.43400740967E+02  0.00000000000E+00 0.  1.
         11    1    4    4    0    0  0.21908845106E+01  0.19473552646E+01  0.10340059443E+02  0.10747511201E+02  0.51100000000E-03 0. -1.
        -11    1    4    4    0    0  0.43454597539E+01 -0.19489325173E+01  0.24830143497E+02  0.25282748758E+02  0.51100000000E-03 0.  1.
        -12    1    4    4    0    0  0.47718512797E+01  0.90868134829E+01  0.57346563395E+01  0.11756999075E+02  0.00000000000E+00 0.  1.
</event>
<event>
 8    1  0.4798632E-010  0.9118800E+02  0.7816164E-02  0.1184000E+00
        -11   -1    0    0    0    0  0.00000000000E+00  0.00000000000E+00  0.45593999997E+02  0.45594000000E+02  0.51100000000E-03 0. -1.
         11   -1    0    0    0    0 -0.00000000000E+00 -0.00000000000E+00 -0.45593999997E+02  0.45594000000E+02  0.51100000000E-03 0.  1.
         23    2    1    2    0    0 -0.44408920985E-15  0.88817841970E-15  0.00000000000E+00  0.91188000000E+02  0.91188000000E+02 0.  0.
    9900012    2    3    3    0    0  0.34157120539E+01  0.45989397128E+01  0.43020994050E+02  0.47787271154E+02  0.20000000498E+02 0.  0.
        -12    1    3    3    0    0 -0.34157120539E+01 -0.45989397128E+01 -0.43020994050E+02  0.43400728846E+02  0.00000000000E+00 0.  1.
         11    1    4    4    0    0  0.26559457784E+01  0.33368775853E+01  0.10503975910E+02  0.11336768066E+02  0.51100000000E-03 0. -1.
        -11    1    4    4    0    0 -0.40564726376E+01  0.73022951830E+01  0.20813314918E+02  0.22427049813E+02  0.51100000000E-03 0.  1.
        -12    1    4    4    0    0  0.48162389131E+01 -0.60402330555E+01  0.11703703223E+02  0.14023453275E+02  0.00000000000E+00 0.  1.
</event>
<event>
 8    1  0.4798632E-010  0.9118800E+02  0.7816164E-02  0.1184000E+00
        -11   -1    0    0    0    0  0.00000000000E+00  0.00000000000E+00  0.45593999997E+02  0.45594000000E+02  0.51100000000E-03 0. -1.
         11   -1    0    0    0    0 -0.00000000000E+00 -0.00000000000E+00 -0.45593999997E+02  0.45594000000E+02  0.51100000000E-03 0.  1.
         23    2    1    2    0    0  0.35527136788E-14 -0.35527136788E-14  0.00000000000E+00  0.91188000000E+02  0.91188000000E+02 0.  0.
    9900012    2    3    3    0    0 -0.23282138631E+02  0.22743072735E+02  0.28710930101E+02  0.47787275997E+02  0.20000022583E+02 0.  0.
        -12    1    3    3    0    0  0.23282138631E+02 -0.22743072735E+02 -0.28710930101E+02  0.43400724003E+02  0.00000000000E+00 0.  1.
         11    1    4    4    0    0 -0.67758578289E+01  0.11530381929E+02  0.73068071690E+01  0.15239796193E+02  0.51100000000E-03 0. -1.
        -11    1    4    4    0    0 -0.84148880452E+01 -0.20427045594E+01  0.51881221122E+01  0.10094532879E+02  0.51100000000E-03 0.  1.
        -12    1    4    4    0    0 -0.80913927572E+01  0.13255395366E+02  0.16216000819E+02  0.22452946925E+02  0.00000000000E+00 0.  1.
</event>
<event>
 8    1  0.4798632E-010  0.9118800E+02  0.7816164E-02  0.1184000E+00
        -11   -1    0    0    0    0  0.00000000000E+00  0.00000000000E+00  0.45593999997E+02  0.45594000000E+02  0.51100000000E-03 0. -1.
         11   -1    0    0    0    0 -0.00000000000E+00 -0.00000000000E+00 -0.45593999997E+02  0.45594000000E+02  0.51100000000E-03 0.  1.
         23    2    1    2    0    0  0.00000000000E+00 -0.71054273576E-14  0.00000000000E+00  0.91188000000E+02  0.91188000000E+02 0.  0.
    9900012    2    3    3    0    0 -0.97191581744E+01 -0.40391157287E+02  0.12558489448E+02  0.47787270976E+02  0.19999999687E+02 0.  0.
        -12    1    3    3    0    0  0.97191581744E+01  0.40391157287E+02 -0.12558489448E+02  0.43400729024E+02  0.00000000000E+00 0.  1.
         11    1    4    4    0    0 -0.67845737829E+01 -0.22772066256E+02  0.75564681945E+01  0.24933865622E+02  0.51100000000E-03 0. -1.
        -11    1    4    4    0    0  0.46931502034E+01 -0.49578855704E+01  0.42734439142E+01  0.80541052458E+01  0.51100000000E-03 0.  1.
        -12    1    4    4    0    0 -0.76277345949E+01 -0.12661205460E+02  0.72857733956E+00  0.14799300108E+02  0.00000000000E+00 0.  1.
</event>
<event>
 8    1  0.4798632E-010  0.9118800E+02  0.7816164E-02  0.1184000E+00
        -11   -1    0    0    0    0  0.00000000000E+00  0.00000000000E+00  0.45593999997E+02  0.45594000000E+02  0.51100000000E-03 0. -1.
         11   -1    0    0    0    0 -0.00000000000E+00 -0.00000000000E+00 -0.45593999997E+02  0.45594000000E+02  0.51100000000E-03 0.  1.
         23    2    1    2    0    0  0.00000000000E+00  0.35527136788E-14  0.00000000000E+00  0.91188000000E+02  0.91188000000E+02 0.  0.
    9900012    2    3    3    0    0  0.19518848589E+02 -0.29737201456E+02 -0.24866377035E+02  0.47787270657E+02  0.19999998232E+02 0.  0.
         12    1    3    3    0    0 -0.19518848589E+02  0.29737201456E+02  0.24866377035E+02  0.43400729343E+02  0.00000000000E+00 0. -1.
         11    1    4    4    0    0 -0.20745307179E+01 -0.27446147811E+01 -0.55054579392E+00  0.34842056381E+01  0.51100000000E-03 0. -1.
        -11    1    4    4    0    0  0.17273059598E+02 -0.15965652300E+02 -0.22059024604E+02  0.32246879043E+02  0.51100000000E-03 0.  1.
        -12    1    4    4    0    0  0.43203197088E+01 -0.11026934375E+02 -0.22568066372E+01  0.12056185976E+02  0.00000000000E+00 0.  1.
</event>
<event>
 8    1  0.4798632E-010  0.9118800E+02  0.7816164E-02  0.1184000E+00
        -11   -1    0    0    0    0  0.00000000000E+00  0.00000000000E+00  0.45593999997E+02  0.45594000000E+02  0.51100000000E-03 0. -1.
         11   -1    0    0    0    0 -0.00000000000E+00 -0.00000000000E+00 -0.45593999997E+02  0.45594000000E+02  0.51100000000E-03 0.  1.
         23    2    1    2    0    0  0.17763568394E-14  0.00000000000E+00  0.00000000000E+00  0.91188000000E+02  0.91188000000E+02 0.  0.
    9900012    2    3    3    0    0  0.15402420548E+02 -0.35862079216E+02 -0.18981572511E+02  0.47787269828E+02  0.19999994453E+02 0.  0.
         12    1    3    3    0    0 -0.15402420548E+02  0.35862079216E+02  0.18981572511E+02  0.43400730172E+02  0.00000000000E+00 0. -1.
         11    1    4    4    0    0  0.88838569042E+01 -0.13747820689E+02 -0.16220612403E+02  0.23044169636E+02  0.51100000000E-03 0. -1.
        -11    1    4    4    0    0 -0.61447460686E+00 -0.74227722310E+01  0.20363529156E+01  0.77215192866E+01  0.51100000000E-03 0.  1.
         12    1    4    4    0    0  0.71330382507E+01 -0.14691486296E+02 -0.47973130238E+01  0.17021580906E+02  0.00000000000E+00 0. -1.
</event>
<event>
 8    1  0.4798632E-010  0.9118800E+02  0.7816164E-02  0.1184000E+00
        -11   -1    0    0    0    0  0.00000000000E+00  0.00000000000E+00  0.45593999997E+02  0.45594000000E+02  0.51100000000E-03 0. -1.
         11   -1    0    0    0    0 -0.00000000000E+00 -0.00000000000E+00 -0.45593999997E+02  0.45594000000E+02  0.51100000000E-03 0.  1.
         23    2    1    2    0    0  0.88817841970E-15  0.35527136788E-14  0.00000000000E+00  0.91188000000E+02  0.91188000000E+02 0.  0.
    9900012    2    3    3    0    0 -0.48547996680E+01 -0.24200716585E+02 -0.35698453654E+02  0.47787270095E+02  0.19999995669E+02 0.  0.
         12    1    3    3    0    0  0.48547996680E+01  0.24200716585E+02  0.35698453654E+02  0.43400729905E+02  0.00000000000E+00 0. -1.
         11    1    4    4    0    0 -0.49813998269E+01 -0.27181081738E+02 -0.29914992528E+02  0.40725082282E+02  0.51100000000E-03 0. -1.
        -11    1    4    4    0    0 -0.12747195485E+01  0.17988250955E+01 -0.28511609533E+01  0.36041366087E+01  0.51100000000E-03 0.  1.
         12    1    4    4    0    0  0.14013197074E+01  0.11815400566E+01 -0.29323001728E+01  0.34580512042E+01  0.00000000000E+00 0. -1.
</event>
<event>
 8    1  0.4798632E-010  0.9118800E+02  0.7816164E-02  0.1184000E+00
        -11   -1    0    0    0    0  0.00000000000E+00  0.00000000000E+00  0.45593999997E+02  0.45594000000E+02  0.51100000000E-03 0. -1.
         11   -1    0    0    0    0 -0.00000000000E+00 -0.00000000000E+00 -0.45593999997E+02  0.45594000000E+02  0.51100000000E-03 0.  1.
         23    2    1    2    0    0  0.71054273576E-14  0.00000000000E+00 -0.35527136788E-14  0.91188000000E+02  0.91188000000E+02 0.  0.
    9900012    2    3    3    0    0 -0.33908632608E+02  0.21074506382E+02  0.17020375793E+02  0.47787269860E+02  0.19999994598E+02 0.  0.
        -12    1    3    3    0    0  0.33908632608E+02 -0.21074506382E+02 -0.17020375793E+02  0.43400730140E+02  0.00000000000E+00 0.  1.
         11    1    4    4    0    0 -0.26302713894E+02  0.12936074337E+02  0.77316775503E+01  0.30314247730E+02  0.51100000000E-03 0. -1.
        -11    1    4    4    0    0 -0.18854155718E+01 -0.19386987849E+01  0.13784232464E+00  0.27078304276E+01  0.51100000000E-03 0.  1.
         12    1    4    4    0    0 -0.57205031424E+01  0.10077130830E+02  0.91508559178E+01  0.14765191702E+02  0.00000000000E+00 0. -1.
</event>
<event>
 8    1  0.4798632E-010  0.9118800E+02  0.7816164E-02  0.1184000E+00
        -11   -1    0    0    0    0  0.00000000000E+00  0.00000000000E+00  0.45593999997E+02  0.45594000000E+02  0.51100000000E-03 0. -1.
         11   -1    0    0    0    0 -0.00000000000E+00 -0.00000000000E+00 -0.45593999997E+02  0.45594000000E+02  0.51100000000E-03 0.  1.
         23    2    1    2    0    0  0.71054273576E-14  0.35527136788E-14  0.17763568394E-14  0.91188000000E+02  0.91188000000E+02 0.  0.
    9900012    2    3    3    0    0  0.32538486590E+02  0.24169806407E+02  0.15514206101E+02  0.47787271408E+02  0.20000001659E+02 0.  0.
        -12    1    3    3    0    0 -0.32538486590E+02 -0.24169806407E+02 -0.15514206101E+02  0.43400728592E+02  0.00000000000E+00 0.  1.
         11    1    4    4    0    0  0.12394693705E+02  0.33141024696E+01  0.11946455370E+02  0.17530815822E+02  0.51100000000E-03 0. -1.
        -11    1    4    4    0    0  0.36147923781E+01  0.66088228427E+00 -0.89196911092E+00  0.37814148789E+01  0.51100000000E-03 0.  1.
         12    1    4    4    0    0  0.16529000508E+02  0.20194821654E+02  0.44597198419E+01  0.26475040708E+02  0.00000000000E+00 0. -1.
</event>
<event>
 8    1  0.4798632E-010  0.9118800E+02  0.7816164E-02  0.1184000E+00
        -11   -1    0    0    0    0  0.00000000000E+00  0.00000000000E+00  0.45593999997E+02  0.45594000000E+02  0.51100000000E-03 0. -1.
         11   -1    0    0    0    0 -0.00000000000E+00 -0.00000000000E+00 -0.45593999997E+02  0.45594000000E+02  0.51100000000E-03 0.  1.
         23    2    1    2    0    0 -0.35527136788E-14  0.17763568394E-14 -0.71054273576E-14  0.91188000000E+02  0.91188000000E+02 0.  0.
    9900012    2    3    3    0    0 -0.18942758861E+02  0.72720065839E+01 -0.38365512037E+02  0.47787277577E+02  0.20000029783E+02 0.  0.
         12    1    3    3    0    0  0.18942758861E+02 -0.72720065839E+01  0.38365512037E+02  0.43400722423E+02  0.00000000000E+00 0. -1.
         11    1    4    4    0    0 -0.53863485581E+01 -0.62498343034E+01 -0.75450680921E+01  0.11180395001E+02  0.51100000000E-03 0. -1.
        -11    1    4    4    0    0 -0.27242352852E+01  0.44195692014E+01 -0.11882916739E+02  0.12967565705E+02  0.51100000000E-03 0.  1.
         12    1    4    4    0    0 -0.10832175018E+02  0.91022716858E+01 -0.18937527205E+02  0.23639316871E+02  0.00000000000E+00 0. -1.
</event>
<event>
 8    1  0.4798632E-010  0.9118800E+02  0.7816164E-02  0.1184000E+00
        -11   -1    0    0    0    0  0.00000000000E+00  0.00000000000E+00  0.45593999997E+02  0.45594000000E+02  0.51100000000E-03 0. -1.
         11   -1    0    0    0    0 -0.00000000000E+00 -0.00000000000E+00 -0.45593999997E+02  0.45594000000E+02  0.51100000000E-03 0.  1.
         23    2    1    2    0    0  0.17763568394E-14  0.00000000000E+00  0.00000000000E+00  0.91188000000E+02  0.91188000000E+02 0.  0.
    9900012    2    3    3    0    0 -0.14876094255E+02 -0.35817388983E+02 -0.19479205261E+02  0.47787274528E+02  0.20000015885E+02 0.  0.
         12    1    3    3    0    0  0.14876094255E+02  0.35817388983E+02  0.19479205261E+02  0.43400725472E+02  0.00000000000E+00 0. -1.
         11    1    4    4    0    0 -0.24203477228E+01 -0.52884629000E+01  0.37503470765E+01  0.69203342693E+01  0.51100000000E-03 0. -1.
        -11    1    4    4    0    0 -0.90321660306E+01 -0.24797499777E+02 -0.15316272445E+02  0.30513672677E+02  0.51100000000E-03 0.  1.
         12    1    4    4    0    0 -0.34235805015E+01 -0.57314263061E+01 -0.79132798931E+01  0.10353267582E+02  0.00000000000E+00 0. -1.
</event>
<event>
 8    1  0.4798632E-010  0.9118800E+02  0.7816164E-02  0.1184000E+00
        -11   -1    0    0    0    0  0.00000000000E+00  0.00000000000E+00  0.45593999997E+02  0.45594000000E+02  0.51100000000E-03 0. -1.
         11   -1    0    0    0    0 -0.00000000000E+00 -0.00000000000E+00 -0.45593999997E+02  0.45594000000E+02  0.51100000000E-03 0.  1.
         23    2    1    2    0    0  0.00000000000E+00  0.71054273576E-14 -0.17763568394E-14  0.91188000000E+02  0.91188000000E+02 0.  0.
    9900012    2    3    3    0    0  0.11554625656E+02 -0.40786279779E+02 -0.93055585203E+01  0.47787269458E+02  0.19999992765E+02 0.  0.
         12    1    3    3    0    0 -0.11554625656E+02  0.40786279779E+02  0.93055585203E+01  0.43400730542E+02  0.00000000000E+00 0. -1.
         11    1    4    4    0    0  0.87768085553E+01 -0.10909777966E+02 -0.26924297716E+01  0.14258499291E+02  0.51100000000E-03 0. -1.
        -11    1    4    4    0    0  0.10371315189E+01 -0.19145552025E+02 -0.10649252950E+02  0.21932496274E+02  0.51100000000E-03 0.  1.
        -12    1    4    4    0    0  0.17406855818E+01 -0.10730949787E+02  0.40361242018E+01  0.11596273893E+02  0.00000000000E+00 0.  1.
</event>
<event>
 8    1  0.4798632E-010  0.9118800E+02  0.7816164E-02  0.1184000E+00
        -11   -1    0    0    0    0  0.00000000000E+00  0.00000000000E+00  0.45593999997E+02  0.45594000000E+02  0.51100000000E-03 0. -1.
         11   -1    0    0    0    0 -0.00000000000E+00 -0.00000000000E+00 -0.45593999997E+02  0.45594000000E+02  0.51100000000E-03 0.  1.
         23    2    1    2    0    0  0.44408920985E-15 -0.17763568394E-14  0.71054273576E-14  0.91188000000E+02  0.91188000000E+02 0.  0.
    9900012    2    3    3    0    0  0.39452927196E+01 -0.11166684986E+02  0.41753599114E+02  0.47787271582E+02  0.20000002453E+02 0.  0.
        -12    1    3    3    0    0 -0.39452927196E+01  0.11166684986E+02 -0.41753599114E+02  0.43400728418E+02  0.00000000000E+00 0.  1.
         11    1    4    4    0    0  0.73212723676E+00 -0.58030713704E+00  0.14851288244E+02  0.14880642776E+02  0.51100000000E-03 0. -1.
        -11    1    4    4    0    0 -0.95702666990E+00 -0.13602200132E+02  0.21377994840E+02  0.25356545745E+02  0.51100000000E-03 0.  1.
        -12    1    4    4    0    0  0.41701921527E+01  0.30158222832E+01  0.55243160296E+01  0.75500830611E+01  0.00000000000E+00 0.  1.
</event>
<event>
 8    1  0.4798632E-010  0.9118800E+02  0.7816164E-02  0.1184000E+00
        -11   -1    0    0    0    0  0.00000000000E+00  0.00000000000E+00  0.45593999997E+02  0.45594000000E+02  0.51100000000E-03 0. -1.
         11   -1    0    0    0    0 -0.00000000000E+00 -0.00000000000E+00 -0.45593999997E+02  0.45594000000E+02  0.51100000000E-03 0.  1.
         23    2    1    2    0    0  0.22204460493E-15 -0.30531133177E-15  0.00000000000E+00  0.91188000000E+02  0.91188000000E+02 0.  0.
    9900012    2    3    3    0    0  0.15916496103E+01 -0.18013541113E+00 -0.43371161402E+02  0.47787269146E+02  0.19999991345E+02 0.  0.
         12    1    3    3    0    0 -0.15916496103E+01  0.18013541113E+00  0.43371161402E+02  0.43400730854E+02  0.00000000000E+00 0. -1.
         11    1    4    4    0    0 -0.27700678402E+01  0.15150284773E+01 -0.21506532609E+01  0.38201959160E+01  0.51100000000E-03 0. -1.
        -11    1    4    4    0    0 -0.33796033449E+01 -0.12812405547E+01 -0.23046868532E+01  0.42865928055E+01  0.51100000000E-03 0.  1.
        -12    1    4    4    0    0  0.77413207954E+01 -0.41392333378E+00 -0.38915821288E+02  0.39680480425E+02  0.00000000000E+00 0.  1.
</event>
<event>
 8    1  0.4798632E-010  0.9118800E+02  0.7816164E-02  0.1184000E+00
        -11   -1    0    0    0    0  0.00000000000E+00  0.00000000000E+00  0.45593999997E+02  0.45594000000E+02  0.51100000000E-03 0. -1.
         11   -1    0    0    0    0 -0.00000000000E+00 -0.00000000000E+00 -0.45593999997E+02  0.45594000000E+02  0.51100000000E-03 0.  1.
         23    2    1    2    0    0  0.17763568394E-14  0.00000000000E+00  0.00000000000E+00  0.91188000000E+02  0.91188000000E+02 0.  0.
    9900012    2    3    3    0    0  0.13771484019E+02 -0.27239516939E+02  0.30854144630E+02  0.47787270790E+02  0.19999998838E+02 0.  0.
        -12    1    3    3    0    0 -0.13771484019E+02  0.27239516939E+02 -0.30854144630E+02  0.43400729210E+02  0.00000000000E+00 0.  1.
         11    1    4    4    0    0  0.44658732574E+01 -0.80737770746E+01  0.11708136445E+02  0.14906721956E+02  0.51100000000E-03 0. -1.
        -11    1    4    4    0    0  0.11424248569E+02 -0.19432782374E+02  0.12237653161E+02  0.25649690862E+02  0.51100000000E-03 0.  1.
        -12    1    4    4    0    0 -0.21186378076E+01  0.26704251001E+00  0.69083550237E+01  0.72308579709E+01  0.00000000000E+00 0.  1.
</event>
<event>
 8    1  0.4798632E-010  0.9118800E+02  0.7816164E-02  0.1184000E+00
        -11   -1    0    0    0    0  0.00000000000E+00  0.00000000000E+00  0.45593999997E+02  0.45594000000E+02  0.51100000000E-03 0.  1.
         11   -1    0    0    0    0 -0.00000000000E+00 -0.00000000000E+00 -0.45593999997E+02  0.45594000000E+02  0.51100000000E-03 0. -1.
         23    2    1    2    0    0 -0.17763568394E-14  0.00000000000E+00 -0.55511151231E-16  0.91188000000E+02  0.91188000000E+02 0.  0.
    9900012    2    3    3    0    0 -0.10385061010E+02  0.42137626274E+02 -0.44062877516E+00  0.47787271966E+02  0.20000004200E+02 0.  0.
         12    1    3    3    0    0  0.10385061010E+02 -0.42137626274E+02  0.44062877516E+00  0.43400728034E+02  0.00000000000E+00 0. -1.
         11    1    4    4    0    0 -0.89916759743E+01  0.12594623336E+02 -0.28207039165E+00  0.15477543015E+02  0.51100000000E-03 0. -1.
        -11    1    4    4    0    0  0.54120694552E+01  0.75645666522E+01 -0.89047242011E-01  0.93016715754E+01  0.51100000000E-03 0.  1.
        -12    1    4    4    0    0 -0.68054544905E+01  0.21978436286E+02 -0.69511141506E-01  0.23008057376E+02  0.00000000000E+00 0.  1.
</event>
<event>
 8    1  0.4798632E-010  0.9118800E+02  0.7816164E-02  0.1184000E+00
        -11   -1    0    0    0    0  0.00000000000E+00  0.00000000000E+00  0.45593999997E+02  0.45594000000E+02  0.51100000000E-03 0.  1.
         11   -1    0    0    0    0 -0.00000000000E+00 -0.00000000000E+00 -0.45593999997E+02  0.45594000000E+02  0.51100000000E-03 0. -1.
         23    2    1    2    0    0  0.71054273576E-14  0.88817841970E-15 -0.35527136788E-14  0.91188000000E+02  0.91188000000E+02 0.  0.
    9900012    2    3    3    0    0  0.40611064252E+02  0.44520005067E+01 -0.14647325893E+02  0.47787274153E+02  0.20000014175E+02 0.  0.
         12    1    3    3    0    0 -0.40611064252E+02 -0.44520005067E+01  0.14647325893E+02  0.43400725847E+02  0.00000000000E+00 0. -1.
         11    1    4    4    0    0  0.58708310285E+01  0.53015582600E+01 -0.81655724973E+01  0.11368806068E+02  0.51100000000E-03 0. -1.
        -11    1    4    4    0    0  0.18258710745E+02 -0.45157572071E+01 -0.17868841831E+01  0.18893531606E+02  0.51100000000E-03 0.  1.
        -12    1    4    4    0    0  0.16481522479E+02  0.36661994538E+01 -0.46948692130E+01  0.17524936479E+02  0.00000000000E+00 0.  1.
</event>
<event>
 8    1  0.4798632E-010  0.9118800E+02  0.7816164E-02  0.1184000E+00
        -11   -1    0    0    0    0  0.00000000000E+00  0.00000000000E+00  0.45593999997E+02  0.45594000000E+02  0.51100000000E-03 0. -1.
         11   -1    0    0    0    0 -0.00000000000E+00 -0.00000000000E+00 -0.45593999997E+02  0.45594000000E+02  0.51100000000E-03 0.  1.
         23    2    1    2    0    0  0.00000000000E+00  0.00000000000E+00 -0.17763568394E-14  0.91188000000E+02  0.91188000000E+02 0.  0.
    9900012    2    3    3    0    0  0.22692637567E+02 -0.34621361244E+02 -0.13039532032E+02  0.47787264410E+02  0.19999969752E+02 0.  0.
         12    1    3    3    0    0 -0.22692637567E+02  0.34621361244E+02  0.13039532032E+02  0.43400735590E+02  0.00000000000E+00 0. -1.
         11    1    4    4    0    0  0.77213309607E+01 -0.37529419184E+01 -0.58316519986E+01  0.10378424261E+02  0.51100000000E-03 0.  1.
        -11    1    4    4    0    0  0.16555382471E+02 -0.30673800055E+02 -0.59144397096E+01  0.35354537134E+02  0.51100000000E-03 0. -1.
         12    1    4    4    0    0 -0.15840758652E+01 -0.19461927023E+00 -0.12934403241E+01  0.20543030154E+01  0.00000000000E+00 0. -1.
</event>
<event>
 8    1  0.4798632E-010  0.9118800E+02  0.7816164E-02  0.1184000E+00
        -11   -1    0    0    0    0  0.00000000000E+00  0.00000000000E+00  0.45593999997E+02  0.45594000000E+02  0.51100000000E-03 0. -1.
         11   -1    0    0    0    0 -0.00000000000E+00 -0.00000000000E+00 -0.45593999997E+02  0.45594000000E+02  0.51100000000E-03 0.  1.
         23    2    1    2    0    0  0.00000000000E+00  0.00000000000E+00  0.00000000000E+00  0.91188000000E+02  0.91188000000E+02 0.  0.
    9900012    2    3    3    0    0  0.31392210626E+02  0.28649810761E+02  0.87943832467E+01  0.47787265890E+02  0.19999976497E+02 0.  0.
        -12    1    3    3    0    0 -0.31392210626E+02 -0.28649810761E+02 -0.87943832467E+01  0.43400734110E+02  0.00000000000E+00 0.  1.
         11    1    4    4    0    0  0.11993761121E+02  0.10644090171E+02  0.76733247479E+00  0.16054150890E+02  0.51100000000E-03 0. -1.
        -11    1    4    4    0    0  0.95873089783E+01  0.18407311352E+02  0.67859858362E+01  0.21835640789E+02  0.51100000000E-03 0.  1.
        -12    1    4    4    0    0  0.98111405272E+01 -0.40159076211E+00  0.12410649357E+01  0.98974742111E+01  0.00000000000E+00 0.  1.
</event>
<event>
 8    1  0.4798632E-010  0.9118800E+02  0.7816164E-02  0.1184000E+00
        -11   -1    0    0    0    0  0.00000000000E+00  0.00000000000E+00  0.45593999997E+02  0.45594000000E+02  0.51100000000E-03 0. -1.
         11   -1    0    0    0    0 -0.00000000000E+00 -0.00000000000E+00 -0.45593999997E+02  0.45594000000E+02  0.51100000000E-03 0.  1.
         23    2    1    2    0    0  0.00000000000E+00 -0.88817841970E-15  0.00000000000E+00  0.91188000000E+02  0.91188000000E+02 0.  0.
    9900012    2    3    3    0    0 -0.10337909877E+01  0.50362259112E+01  0.43095140359E+02  0.47787269386E+02  0.19999992440E+02 0.  0.
        -12    1    3    3    0    0  0.10337909877E+01 -0.50362259112E+01 -0.43095140359E+02  0.43400730614E+02  0.00000000000E+00 0.  1.
         11    1    4    4    0    0 -0.50445575668E+00  0.74151937648E+01  0.11518916158E+02  0.13708574102E+02  0.51100000000E-03 0. -1.
        -11    1    4    4    0    0  0.44504398964E+01 -0.36832146451E+01  0.25350541532E+02  0.26000431566E+02  0.51100000000E-03 0.  1.
        -12    1    4    4    0    0 -0.49797751275E+01  0.13042467915E+01  0.62256826692E+01  0.80782637188E+01  0.00000000000E+00 0.  1.
</event>
<event>
 8    1  0.4798632E-010  0.9118800E+02  0.7816164E-02  0.1184000E+00
        -11   -1    0    0    0    0  0.00000000000E+00  0.00000000000E+00  0.45593999997E+02  0.45594000000E+02  0.51100000000E-03 0.  1.
         11   -1    0    0    0    0 -0.00000000000E+00 -0.00000000000E+00 -0.45593999997E+02  0.45594000000E+02  0.51100000000E-03 0. -1.
         23    2    1    2    0    0  0.71054273576E-14  0.00000000000E+00  0.00000000000E+00  0.91188000000E+02  0.91188000000E+02 0.  0.
    9900012    2    3    3    0    0  0.35872688422E+02  0.16425994347E+02 -0.18082043838E+02  0.47787269888E+02  0.19999994726E+02 0.  0.
         12    1    3    3    0    0 -0.35872688422E+02 -0.16425994347E+02  0.18082043838E+02  0.43400730112E+02  0.00000000000E+00 0. -1.
         11    1    4    4    0    0  0.73481279482E+01  0.13048986560E+02 -0.78161680324E+01  0.16892706046E+02  0.51100000000E-03 0. -1.
        -11    1    4    4    0    0  0.96582526532E+01 -0.11789815679E+01 -0.33418054037E+01  0.10287832885E+02  0.51100000000E-03 0.  1.
         12    1    4    4    0    0  0.18866307821E+02  0.45559893546E+01 -0.69240704020E+01  0.20606730957E+02  0.00000000000E+00 0. -1.
</event>
<event>
 8    1  0.4798632E-010  0.9118800E+02  0.7816164E-02  0.1184000E+00
        -11   -1    0    0    0    0  0.00000000000E+00  0.00000000000E+00  0.45593999997E+02  0.45594000000E+02  0.51100000000E-03 0. -1.
         11   -1    0    0    0    0 -0.00000000000E+00 -0.00000000000E+00 -0.45593999997E+02  0.45594000000E+02  0.51100000000E-03 0.  1.
         23    2    1    2    0    0  0.35527136788E-14 -0.17763568394E-14  0.00000000000E+00  0.91188000000E+02  0.91188000000E+02 0.  0.
    9900012    2    3    3    0    0 -0.28672032558E+02  0.15901141005E+02 -0.28437503561E+02  0.47787270225E+02  0.19999996263E+02 0.  0.
         12    1    3    3    0    0  0.28672032558E+02 -0.15901141005E+02  0.28437503561E+02  0.43400729775E+02  0.00000000000E+00 0. -1.
         11    1    4    4    0    0 -0.11608930451E+01  0.85306890241E+00 -0.27654082759E+01  0.31181536857E+01  0.51100000000E-03 0. -1.
        -11    1    4    4    0    0 -0.22726139965E+02  0.29005475192E+01 -0.12396597488E+02  0.26049304083E+02  0.51100000000E-03 0.  1.
        -12    1    4    4    0    0 -0.47849995472E+01  0.12147524583E+02 -0.13275497797E+02  0.18619812457E+02  0.00000000000E+00 0.  1.
</event>
<event>
 8    1  0.4798632E-010  0.9118800E+02  0.7816164E-02  0.1184000E+00
        -11   -1    0    0    0    0  0.00000000000E+00  0.00000000000E+00  0.45593999997E+02  0.45594000000E+02  0.51100000000E-03 0. -1.
         11   -1    0    0    0    0 -0.00000000000E+00 -0.00000000000E+00 -0.45593999997E+02  0.45594000000E+02  0.51100000000E-03 0.  1.
         23    2    1    2    0    0  0.00000000000E+00  0.00000000000E+00  0.71054273576E-14  0.91188000000E+02  0.91188000000E+02 0.  0.
    9900012    2    3    3    0    0  0.14876772567E+02  0.19547600814E+01  0.40724485109E+02  0.47787272629E+02  0.20000007224E+02 0.  0.
        -12    1    3    3    0    0 -0.14876772567E+02 -0.19547600814E+01 -0.40724485109E+02  0.43400727371E+02  0.00000000000E+00 0.  1.
         11    1    4    4    0    0  0.10574055341E+02 -0.36045120698E+01  0.29527664481E+02  0.31570336134E+02  0.51100000000E-03 0. -1.
        -11    1    4    4    0    0  0.17205356329E+01 -0.55720623838E+00 -0.11886880650E+01  0.21641860440E+01  0.51100000000E-03 0.  1.
         12    1    4    4    0    0  0.25821815930E+01  0.61164783896E+01  0.12385508693E+02  0.14052750451E+02  0.00000000000E+00 0. -1.
</event>
<event>
 8    1  0.4798632E-010  0.9118800E+02  0.7816164E-02  0.1184000E+00
        -11   -1    0    0    0    0  0.00000000000E+00  0.00000000000E+00  0.45593999997E+02  0.45594000000E+02  0.51100000000E-03 0. -1.
         11   -1    0    0    0    0 -0.00000000000E+00 -0.00000000000E+00 -0.45593999997E+02  0.45594000000E+02  0.51100000000E-03 0.  1.
         23    2    1    2    0    0 -0.35527136788E-14  0.00000000000E+00  0.35527136788E-14  0.91188000000E+02  0.91188000000E+02 0.  0.
    9900012    2    3    3    0    0  0.16600299354E+02 -0.26339906052E+02  0.30236710843E+02  0.47787317148E+02  0.20000210201E+02 0.  0.
        -12    1    3    3    0    0 -0.16600299354E+02  0.26339906052E+02 -0.30236710843E+02  0.43400682852E+02  0.00000000000E+00 0.  1.
         11    1    4    4    0    0 -0.16912348272E+01 -0.52562883542E+01 -0.64024551054E+00  0.55586650446E+01  0.51100000000E-03 0. -1.
        -11    1    4    4    0    0  0.49842893505E+01 -0.19745943763E+01  0.41441719617E+01  0.67761585570E+01  0.51100000000E-03 0.  1.
         12    1    4    4    0    0  0.13307244830E+02 -0.19109023321E+02  0.26732784392E+02  0.35452493546E+02  0.00000000000E+00 0. -1.
</event>
<event>
 8    1  0.4798632E-010  0.9118800E+02  0.7816164E-02  0.1184000E+00
        -11   -1    0    0    0    0  0.00000000000E+00  0.00000000000E+00  0.45593999997E+02  0.45594000000E+02  0.51100000000E-03 0.  1.
         11   -1    0    0    0    0 -0.00000000000E+00 -0.00000000000E+00 -0.45593999997E+02  0.45594000000E+02  0.51100000000E-03 0. -1.
         23    2    1    2    0    0  0.00000000000E+00  0.00000000000E+00  0.00000000000E+00  0.91188000000E+02  0.91188000000E+02 0.  0.
    9900012    2    3    3    0    0 -0.42409155190E+01  0.41992014916E+02  0.10114777503E+02  0.47787269533E+02  0.19999993108E+02 0.  0.
        -12    1    3    3    0    0  0.42409155190E+01 -0.41992014916E+02 -0.10114777503E+02  0.43400730467E+02  0.00000000000E+00 0.  1.
         11    1    4    4    0    0  0.12947063312E+01  0.31786907967E+02  0.10575538117E+02  0.33525002451E+02  0.51100000000E-03 0. -1.
        -11    1    4    4    0    0 -0.19956698657E+01  0.40013586338E+01  0.38662865548E+01  0.59111539579E+01  0.51100000000E-03 0.  1.
         12    1    4    4    0    0 -0.35399519845E+01  0.62037483147E+01 -0.43270471690E+01  0.83511131239E+01  0.00000000000E+00 0. -1.
</event>
<event>
 8    1  0.4798632E-010  0.9118800E+02  0.7816164E-02  0.1184000E+00
        -11   -1    0    0    0    0  0.00000000000E+00  0.00000000000E+00  0.45593999997E+02  0.45594000000E+02  0.51100000000E-03 0.  1.
         11   -1    0    0    0    0 -0.00000000000E+00 -0.00000000000E+00 -0.45593999997E+02  0.45594000000E+02  0.51100000000E-03 0. -1.
         23    2    1    2    0    0  0.00000000000E+00  0.00000000000E+00  0.00000000000E+00  0.91188000000E+02  0.91188000000E+02 0.  0.
    9900012    2    3    3    0    0 -0.33197716259E+02 -0.25586206783E+02 -0.11264140063E+02  0.47787271968E+02  0.20000004211E+02 0.  0.
         12    1    3    3    0    0  0.33197716259E+02  0.25586206783E+02  0.11264140063E+02  0.43400728032E+02  0.00000000000E+00 0. -1.
         11    1    4    4    0    0 -0.46119871874E+01  0.30015424030E+00 -0.50330032560E+01  0.68331281578E+01  0.51100000000E-03 0. -1.
        -11    1    4    4    0    0 -0.22330539939E+02 -0.15515362243E+02  0.30173145208E+00  0.27193207270E+02  0.51100000000E-03 0.  1.
        -12    1    4    4    0    0 -0.62551891330E+01 -0.10370998780E+02 -0.65328682589E+01  0.13760936540E+02  0.00000000000E+00 0.  1.
</event>
<event>
 8    1  0.4798632E-010  0.9118800E+02  0.7816164E-02  0.1184000E+00
        -11   -1    0    0    0    0  0.00000000000E+00  0.00000000000E+00  0.45593999997E+02  0.45594000000E+02  0.51100000000E-03 0. -1.
         11   -1    0    0    0    0 -0.00000000000E+00 -0.00000000000E+00 -0.45593999997E+02  0.45594000000E+02  0.51100000000E-03 0.  1.
         23    2    1    2    0    0  0.00000000000E+00  0.17763568394E-14 -0.71054273576E-14  0.91188000000E+02  0.91188000000E+02 0.  0.
    9900012    2    3    3    0    0  0.12288629011E+02 -0.85199698622E+01  0.40743382497E+02  0.47787268362E+02  0.19999987770E+02 0.  0.
        -12    1    3    3    0    0 -0.12288629011E+02  0.85199698622E+01 -0.40743382497E+02  0.43400731638E+02  0.00000000000E+00 0.  1.
         11    1    4    4    0    0  0.13249221310E+02 -0.11058756324E+02  0.19061993351E+02  0.25713761832E+02  0.51100000000E-03 0. -1.
        -11    1    4    4    0    0 -0.16227449139E+01  0.18384772491E+01  0.19878459130E+02  0.20029139705E+02  0.51100000000E-03 0.  1.
        -12    1    4    4    0    0  0.66215261441E+00  0.70030921234E+00  0.18029300152E+01  0.20443668255E+01  0.00000000000E+00 0.  1.
</event>
<event>
 8    1  0.4798632E-010  0.9118800E+02  0.7816164E-02  0.1184000E+00
        -11   -1    0    0    0    0  0.00000000000E+00  0.00000000000E+00  0.45593999997E+02  0.45594000000E+02  0.51100000000E-03 0.  1.
         11   -1    0    0    0    0 -0.00000000000E+00 -0.00000000000E+00 -0.45593999997E+02  0.45594000000E+02  0.51100000000E-03 0. -1.
         23    2    1    2    0    0  0.00000000000E+00  0.35527136788E-14 -0.17763568394E-14  0.91188000000E+02  0.91188000000E+02 0.  0.
    9900012    2    3    3    0    0 -0.34148349339E+02 -0.26286079992E+02  0.51532040801E+01  0.47787271018E+02  0.19999999877E+02 0.  0.
        -12    1    3    3    0    0  0.34148349339E+02  0.26286079992E+02 -0.51532040801E+01  0.43400728982E+02  0.00000000000E+00 0.  1.
         11    1    4    4    0    0 -0.32332988192E+02 -0.17027654495E+02  0.88985927764E+01  0.37610478549E+02  0.51100000000E-03 0. -1.
        -11    1    4    4    0    0 -0.15355393727E+01 -0.76834027240E+01 -0.33946934839E+01  0.85391160371E+01  0.51100000000E-03 0.  1.
         12    1    4    4    0    0 -0.27982177408E+00 -0.15750227736E+01 -0.35069521241E+00  0.16376764316E+01  0.00000000000E+00 0. -1.
</event>
<event>
 8    1  0.4798632E-010  0.9118800E+02  0.7816164E-02  0.1184000E+00
        -11   -1    0    0    0    0  0.00000000000E+00  0.00000000000E+00  0.45593999997E+02  0.45594000000E+02  0.51100000000E-03 0. -1.
         11   -1    0    0    0    0 -0.00000000000E+00 -0.00000000000E+00 -0.45593999997E+02  0.45594000000E+02  0.51100000000E-03 0.  1.
         23    2    1    2    0    0  0.00000000000E+00  0.00000000000E+00  0.00000000000E+00  0.91188000000E+02  0.91188000000E+02 0.  0.
    9900012    2    3    3    0    0  0.35020539776E+02  0.22788607105E+02 -0.11741570633E+02  0.47787270733E+02  0.19999998579E+02 0.  0.
         12    1    3    3    0    0 -0.35020539776E+02 -0.22788607105E+02  0.11741570633E+02  0.43400729267E+02  0.00000000000E+00 0. -1.
         11    1    4    4    0    0  0.85848538403E+01 -0.69331831205E+00 -0.64048097136E+01  0.10733219157E+02  0.51100000000E-03 0. -1.
        -11    1    4    4    0    0  0.10968048734E+02  0.64089673780E+01 -0.59066736432E+01  0.14009345083E+02  0.51100000000E-03 0.  1.
         12    1    4    4    0    0  0.15467637202E+02  0.17072958039E+02  0.56991272346E+00  0.23044706493E+02  0.00000000000E+00 0. -1.
</event>
<event>
 8    1  0.4798632E-010  0.9118800E+02  0.7816164E-02  0.1184000E+00
        -11   -1    0    0    0    0  0.00000000000E+00  0.00000000000E+00  0.45593999997E+02  0.45594000000E+02  0.51100000000E-03 0.  1.
         11   -1    0    0    0    0 -0.00000000000E+00 -0.00000000000E+00 -0.45593999997E+02  0.45594000000E+02  0.51100000000E-03 0. -1.
         23    2    1    2    0    0  0.13322676296E-14  0.00000000000E+00  0.00000000000E+00  0.91188000000E+02  0.91188000000E+02 0.  0.
    9900012    2    3    3    0    0 -0.13178571038E+01  0.42173320584E+02 -0.10163539043E+02  0.47787271408E+02  0.20000001660E+02 0.  0.
         12    1    3    3    0    0  0.13178571038E+01 -0.42173320584E+02  0.10163539043E+02  0.43400728592E+02  0.00000000000E+00 0. -1.
         11    1    4    4    0    0 -0.43392064189E+01  0.55582271118E+01 -0.41851084510E+01  0.81998618269E+01  0.51100000000E-03 0. -1.
        -11    1    4    4    0    0  0.59420454695E+01  0.35505621625E+02 -0.52612993986E+01  0.36381840841E+02  0.51100000000E-03 0.  1.
        -12    1    4    4    0    0 -0.29206961543E+01  0.11094718472E+01 -0.71713119302E+00  0.32055687410E+01  0.00000000000E+00 0.  1.
</event>
<event>
 8    1  0.4798632E-010  0.9118800E+02  0.7816164E-02  0.1184000E+00
        -11   -1    0    0    0    0  0.00000000000E+00  0.00000000000E+00  0.45593999997E+02  0.45594000000E+02  0.51100000000E-03 0. -1.
         11   -1    0    0    0    0 -0.00000000000E+00 -0.00000000000E+00 -0.45593999997E+02  0.45594000000E+02  0.51100000000E-03 0.  1.
         23    2    1    2    0    0  0.00000000000E+00 -0.88817841970E-15  0.00000000000E+00  0.91188000000E+02  0.91188000000E+02 0.  0.
    9900012    2    3    3    0    0 -0.32103315967E+02  0.51636381114E+01  0.28746086233E+02  0.47787268113E+02  0.19999986634E+02 0.  0.
        -12    1    3    3    0    0  0.32103315967E+02 -0.51636381114E+01 -0.28746086233E+02  0.43400731887E+02  0.00000000000E+00 0.  1.
         11    1    4    4    0    0 -0.19885906665E+02  0.30543895585E+01  0.14596417493E+02  0.24856266480E+02  0.51100000000E-03 0. -1.
        -11    1    4    4    0    0 -0.23032105591E+01 -0.52217801712E+01  0.41727169189E+01  0.70698892341E+01  0.51100000000E-03 0.  1.
        -12    1    4    4    0    0 -0.99141987437E+01  0.73310287241E+01  0.99769518204E+01  0.15861112398E+02  0.00000000000E+00 0.  1.
</event>
<event>
 8    1  0.4798632E-010  0.9118800E+02  0.7816164E-02  0.1184000E+00
        -11   -1    0    0    0    0  0.00000000000E+00  0.00000000000E+00  0.45593999997E+02  0.45594000000E+02  0.51100000000E-03 0. -1.
         11   -1    0    0    0    0 -0.00000000000E+00 -0.00000000000E+00 -0.45593999997E+02  0.45594000000E+02  0.51100000000E-03 0.  1.
         23    2    1    2    0    0  0.00000000000E+00  0.00000000000E+00  0.00000000000E+00  0.91188000000E+02  0.91188000000E+02 0.  0.
    9900012    2    3    3    0    0 -0.36352338649E+02 -0.93666146604E+01 -0.21780673080E+02  0.47787265960E+02  0.19999976816E+02 0.  0.
         12    1    3    3    0    0  0.36352338649E+02  0.93666146604E+01  0.21780673080E+02  0.43400734040E+02  0.00000000000E+00 0. -1.
         11    1    4    4    0    0 -0.87930803604E+00  0.31657436174E+01 -0.36104056598E+01  0.48816129059E+01  0.51100000000E-03 0. -1.
        -11    1    4    4    0    0 -0.30871104724E+02 -0.75726935654E+01 -0.16975288048E+02  0.36035138397E+02  0.51100000000E-03 0.  1.
        -12    1    4    4    0    0 -0.46019258884E+01 -0.49596647125E+01 -0.11949793720E+01  0.68705146563E+01  0.00000000000E+00 0.  1.
</event>
<event>
 8    1  0.4798632E-010  0.9118800E+02  0.7816164E-02  0.1184000E+00
        -11   -1    0    0    0    0  0.00000000000E+00  0.00000000000E+00  0.45593999997E+02  0.45594000000E+02  0.51100000000E-03 0. -1.
         11   -1    0    0    0    0 -0.00000000000E+00 -0.00000000000E+00 -0.45593999997E+02  0.45594000000E+02  0.51100000000E-03 0.  1.
         23    2    1    2    0    0  0.00000000000E+00  0.00000000000E+00  0.00000000000E+00  0.91188000000E+02  0.91188000000E+02 0.  0.
    9900012    2    3    3    0    0  0.21985413783E+02  0.79960928967E+01 -0.36555805567E+02  0.47787276026E+02  0.20000022714E+02 0.  0.
         12    1    3    3    0    0 -0.21985413783E+02 -0.79960928967E+01  0.36555805567E+02  0.43400723974E+02  0.00000000000E+00 0. -1.
         11    1    4    4    0    0  0.17101516646E+02 -0.40162903399E+01 -0.21892608474E+02  0.28069178216E+02  0.51100000000E-03 0. -1.
        -11    1    4    4    0    0  0.53211667347E+00  0.42566462088E+01 -0.47364618052E+01  0.63903251713E+01  0.51100000000E-03 0.  1.
         12    1    4    4    0    0  0.43517804640E+01  0.77557370277E+01 -0.99267352875E+01  0.13327772639E+02  0.00000000000E+00 0. -1.
</event>
<event>
 8    1  0.4798632E-010  0.9118800E+02  0.7816164E-02  0.1184000E+00
        -11   -1    0    0    0    0  0.00000000000E+00  0.00000000000E+00  0.45593999997E+02  0.45594000000E+02  0.51100000000E-03 0. -1.
         11   -1    0    0    0    0 -0.00000000000E+00 -0.00000000000E+00 -0.45593999997E+02  0.45594000000E+02  0.51100000000E-03 0.  1.
         23    2    1    2    0    0  0.00000000000E+00 -0.35527136788E-14  0.35527136788E-14  0.91188000000E+02  0.91188000000E+02 0.  0.
    9900012    2    3    3    0    0 -0.16129303083E+02  0.26531617939E+02 -0.30323951384E+02  0.47787271942E+02  0.20000004094E+02 0.  0.
         12    1    3    3    0    0  0.16129303083E+02 -0.26531617939E+02  0.30323951384E+02  0.43400728058E+02  0.00000000000E+00 0. -1.
         11    1    4    4    0    0 -0.74936178598E+01  0.17447140615E+01 -0.12069981014E+02  0.14313726899E+02  0.51100000000E-03 0. -1.
        -11    1    4    4    0    0 -0.79282839920E+01  0.24110581079E+02 -0.19415061169E+02  0.31955005985E+02  0.51100000000E-03 0.  1.
        -12    1    4    4    0    0 -0.70740123154E+00  0.67632279836E+00  0.11610907993E+01  0.15185390592E+01  0.00000000000E+00 0.  1.
</event>
<event>
 8    1  0.4798632E-010  0.9118800E+02  0.7816164E-02  0.1184000E+00
        -11   -1    0    0    0    0  0.00000000000E+00  0.00000000000E+00  0.45593999997E+02  0.45594000000E+02  0.51100000000E-03 0. -1.
         11   -1    0    0    0    0 -0.00000000000E+00 -0.00000000000E+00 -0.45593999997E+02  0.45594000000E+02  0.51100000000E-03 0.  1.
         23    2    1    2    0    0  0.00000000000E+00  0.00000000000E+00  0.00000000000E+00  0.91188000000E+02  0.91188000000E+02 0.  0.
    9900012    2    3    3    0    0 -0.34890895868E+02  0.19901250096E+02  0.16437424591E+02  0.47787270778E+02  0.19999998783E+02 0.  0.
        -12    1    3    3    0    0  0.34890895868E+02 -0.19901250096E+02 -0.16437424591E+02  0.43400729222E+02  0.00000000000E+00 0.  1.
         11    1    4    4    0    0 -0.20124838310E+02  0.38794256692E+01  0.74112086695E+01  0.21794152305E+02  0.51100000000E-03 0. -1.
        -11    1    4    4    0    0 -0.15066827820E+01  0.93601794493E+01  0.43836314723E+01  0.10445059956E+02  0.51100000000E-03 0.  1.
         12    1    4    4    0    0 -0.13259374777E+02  0.66616449771E+01  0.46425844487E+01  0.15548058517E+02  0.00000000000E+00 0. -1.
</event>
<event>
 8    1  0.4798632E-010  0.9118800E+02  0.7816164E-02  0.1184000E+00
        -11   -1    0    0    0    0  0.00000000000E+00  0.00000000000E+00  0.45593999997E+02  0.45594000000E+02  0.51100000000E-03 0. -1.
         11   -1    0    0    0    0 -0.00000000000E+00 -0.00000000000E+00 -0.45593999997E+02  0.45594000000E+02  0.51100000000E-03 0.  1.
         23    2    1    2    0    0  0.00000000000E+00  0.00000000000E+00  0.00000000000E+00  0.91188000000E+02  0.91188000000E+02 0.  0.
    9900012    2    3    3    0    0  0.32637718490E+02  0.87490599974E+01  0.27237044543E+02  0.47787270576E+02  0.19999997865E+02 0.  0.
        -12    1    3    3    0    0 -0.32637718490E+02 -0.87490599974E+01 -0.27237044543E+02  0.43400729424E+02  0.00000000000E+00 0.  1.
         11    1    4    4    0    0  0.79690981727E+01  0.33448768528E+01  0.68669982207E+01  0.11038586489E+02  0.51100000000E-03 0. -1.
        -11    1    4    4    0    0  0.24281141038E+02  0.83129008224E+01  0.12902896690E+02  0.28725648355E+02  0.51100000000E-03 0.  1.
        -12    1    4    4    0    0  0.38747927964E+00 -0.29087176778E+01  0.74671496327E+01  0.80230357321E+01  0.00000000000E+00 0.  1.
</event>
<event>
 8    1  0.4798632E-010  0.9118800E+02  0.7816164E-02  0.1184000E+00
        -11   -1    0    0    0    0  0.00000000000E+00  0.00000000000E+00  0.45593999997E+02  0.45594000000E+02  0.51100000000E-03 0. -1.
         11   -1    0    0    0    0 -0.00000000000E+00 -0.00000000000E+00 -0.45593999997E+02  0.45594000000E+02  0.51100000000E-03 0.  1.
         23    2    1    2    0    0 -0.17763568394E-14  0.00000000000E+00  0.00000000000E+00  0.91188000000E+02  0.91188000000E+02 0.  0.
    9900012    2    3    3    0    0  0.15716415052E+02 -0.14897494670E+02  0.37612264359E+02  0.47787268673E+02  0.19999989188E+02 0.  0.
        -12    1    3    3    0    0 -0.15716415052E+02  0.14897494670E+02 -0.37612264359E+02  0.43400731327E+02  0.00000000000E+00 0.  1.
         11    1    4    4    0    0 -0.10567828265E+01 -0.63177210938E+00  0.67321186916E+01  0.68437817236E+01  0.51100000000E-03 0. -1.
        -11    1    4    4    0    0 -0.94171192983E+00 -0.76073033562E+01  0.63009338439E+01  0.99226837740E+01  0.51100000000E-03 0.  1.
        -12    1    4    4    0    0  0.17714909808E+02 -0.66584192043E+01  0.24579211823E+02  0.31020803176E+02  0.00000000000E+00 0.  1.
</event>
<event>
 8    1  0.4798632E-010  0.9118800E+02  0.7816164E-02  0.1184000E+00
        -11   -1    0    0    0    0  0.00000000000E+00  0.00000000000E+00  0.45593999997E+02  0.45594000000E+02  0.51100000000E-03 0. -1.
         11   -1    0    0    0    0 -0.00000000000E+00 -0.00000000000E+00 -0.45593999997E+02  0.45594000000E+02  0.51100000000E-03 0.  1.
         23    2    1    2    0    0 -0.44408920985E-15 -0.35527136788E-14  0.00000000000E+00  0.91188000000E+02  0.91188000000E+02 0.  0.
    9900012    2    3    3    0    0  0.34844850967E+01  0.25400292645E+02 -0.35018663077E+02  0.47787271129E+02  0.20000000386E+02 0.  0.
         12    1    3    3    0    0 -0.34844850967E+01 -0.25400292645E+02  0.35018663077E+02  0.43400728871E+02  0.00000000000E+00 0. -1.
         11    1    4    4    0    0 -0.33224275523E+01  0.30121100216E+01  0.36926521268E+00  0.44997431794E+01  0.51100000000E-03 0. -1.
        -11    1    4    4    0    0  0.38100257663E+01  0.21366091459E+02 -0.29811010797E+02  0.36874415597E+02  0.51100000000E-03 0.  1.
         12    1    4    4    0    0  0.29968868827E+01  0.10220911640E+01 -0.55769174921E+01  0.64131123528E+01  0.00000000000E+00 0. -1.
</event>
<event>
 8    1  0.4798632E-010  0.9118800E+02  0.7816164E-02  0.1184000E+00
        -11   -1    0    0    0    0  0.00000000000E+00  0.00000000000E+00  0.45593999997E+02  0.45594000000E+02  0.51100000000E-03 0. -1.
         11   -1    0    0    0    0 -0.00000000000E+00 -0.00000000000E+00 -0.45593999997E+02  0.45594000000E+02  0.51100000000E-03 0.  1.
         23    2    1    2    0    0  0.00000000000E+00  0.00000000000E+00  0.00000000000E+00  0.91188000000E+02  0.91188000000E+02 0.  0.
    9900012    2    3    3    0    0  0.27628824709E+02  0.21096620015E+02  0.25984687659E+02  0.47787270472E+02  0.19999997388E+02 0.  0.
        -12    1    3    3    0    0 -0.27628824709E+02 -0.21096620015E+02 -0.25984687659E+02  0.43400729528E+02  0.00000000000E+00 0.  1.
         11    1    4    4    0    0  0.17892961853E+02  0.48995236605E+01  0.60041836963E+01  0.19499067621E+02  0.51100000000E-03 0. -1.
        -11    1    4    4    0    0  0.96696917788E+01  0.15456012827E+02  0.16055875724E+02  0.24293670310E+02  0.51100000000E-03 0.  1.
        -12    1    4    4    0    0  0.66171077718E-01  0.74108352713E+00  0.39246282391E+01  0.39945325409E+01  0.00000000000E+00 0.  1.
</event>
<event>
 8    1  0.4798632E-010  0.9118800E+02  0.7816164E-02  0.1184000E+00
        -11   -1    0    0    0    0  0.00000000000E+00  0.00000000000E+00  0.45593999997E+02  0.45594000000E+02  0.51100000000E-03 0. -1.
         11   -1    0    0    0    0 -0.00000000000E+00 -0.00000000000E+00 -0.45593999997E+02  0.45594000000E+02  0.51100000000E-03 0.  1.
         23    2    1    2    0    0  0.00000000000E+00  0.17763568394E-14  0.00000000000E+00  0.91188000000E+02  0.91188000000E+02 0.  0.
    9900012    2    3    3    0    0 -0.18462527695E+02 -0.13392529766E+02 -0.36924228194E+02  0.47787269474E+02  0.19999992842E+02 0.  0.
         12    1    3    3    0    0  0.18462527695E+02  0.13392529766E+02  0.36924228194E+02  0.43400730526E+02  0.00000000000E+00 0. -1.
         11    1    4    4    0    0 -0.10171719051E+02 -0.10605921162E+02 -0.84138778523E+01  0.16933480827E+02  0.51100000000E-03 0. -1.
        -11    1    4    4    0    0 -0.12502730655E+01 -0.26319103236E+01 -0.22950860398E+01  0.37091178036E+01  0.51100000000E-03 0.  1.
         12    1    4    4    0    0 -0.70405355783E+01 -0.15469828060E+00 -0.26215264302E+02  0.27144670844E+02  0.00000000000E+00 0. -1.
</event>
<event>
 8    1  0.4798632E-010  0.9118800E+02  0.7816164E-02  0.1184000E+00
        -11   -1    0    0    0    0  0.00000000000E+00  0.00000000000E+00  0.45593999997E+02  0.45594000000E+02  0.51100000000E-03 0. -1.
         11   -1    0    0    0    0 -0.00000000000E+00 -0.00000000000E+00 -0.45593999997E+02  0.45594000000E+02  0.51100000000E-03 0.  1.
         23    2    1    2    0    0 -0.88817841970E-15  0.00000000000E+00  0.00000000000E+00  0.91188000000E+02  0.91188000000E+02 0.  0.
    9900012    2    3    3    0    0 -0.39221854492E+01 -0.36040863673E+02  0.23859922174E+02  0.47787270983E+02  0.19999999721E+02 0.  0.
        -12    1    3    3    0    0  0.39221854492E+01  0.36040863673E+02 -0.23859922174E+02  0.43400729017E+02  0.00000000000E+00 0.  1.
         11    1    4    4    0    0 -0.93830758392E+01 -0.17096328749E+02  0.79451740843E+01  0.21058308583E+02  0.51100000000E-03 0. -1.
        -11    1    4    4    0    0  0.59365183940E+01 -0.57389721065E+01  0.58870868830E+01  0.10140800940E+02  0.51100000000E-03 0.  1.
        -12    1    4    4    0    0 -0.47562800394E+00 -0.13205562818E+02  0.10027661207E+02  0.16588161460E+02  0.00000000000E+00 0.  1.
</event>
<event>
 8    1  0.4798632E-010  0.9118800E+02  0.7816164E-02  0.1184000E+00
        -11   -1    0    0    0    0  0.00000000000E+00  0.00000000000E+00  0.45593999997E+02  0.45594000000E+02  0.51100000000E-03 0. -1.
         11   -1    0    0    0    0 -0.00000000000E+00 -0.00000000000E+00 -0.45593999997E+02  0.45594000000E+02  0.51100000000E-03 0.  1.
         23    2    1    2    0    0 -0.35527136788E-14 -0.26645352591E-14  0.00000000000E+00  0.91188000000E+02  0.91188000000E+02 0.  0.
    9900012    2    3    3    0    0 -0.25282413313E+02 -0.73598682218E+01  0.34500075310E+02  0.47787270979E+02  0.19999999701E+02 0.  0.
        -12    1    3    3    0    0  0.25282413313E+02  0.73598682218E+01 -0.34500075310E+02  0.43400729021E+02  0.00000000000E+00 0.  1.
         11    1    4    4    0    0 -0.84804107620E+01  0.17514047659E+01  0.20724109376E+02  0.22460487417E+02  0.51100000000E-03 0. -1.
        -11    1    4    4    0    0 -0.92542120571E+01  0.23617557365E-01  0.75361606856E+01  0.11934601658E+02  0.51100000000E-03 0.  1.
         12    1    4    4    0    0 -0.75477904934E+01 -0.91348905451E+01  0.62398052489E+01  0.13392181904E+02  0.00000000000E+00 0. -1.
</event>
<event>
 8    1  0.4798632E-010  0.9118800E+02  0.7816164E-02  0.1184000E+00
        -11   -1    0    0    0    0  0.00000000000E+00  0.00000000000E+00  0.45593999997E+02  0.45594000000E+02  0.51100000000E-03 0.  1.
         11   -1    0    0    0    0 -0.00000000000E+00 -0.00000000000E+00 -0.45593999997E+02  0.45594000000E+02  0.51100000000E-03 0. -1.
         23    2    1    2    0    0  0.00000000000E+00  0.00000000000E+00  0.35527136788E-14  0.91188000000E+02  0.91188000000E+02 0.  0.
    9900012    2    3    3    0    0  0.19833117045E+02  0.33948633088E+02 -0.18378272841E+02  0.47787272669E+02  0.20000007406E+02 0.  0.
         12    1    3    3    0    0 -0.19833117045E+02 -0.33948633088E+02  0.18378272841E+02  0.43400727331E+02  0.00000000000E+00 0. -1.
         11    1    4    4    0    0  0.15594604940E+01  0.10576549379E+02  0.13707563724E+01  0.10778417652E+02  0.51100000000E-03 0. -1.
        -11    1    4    4    0    0  0.19489109428E+02  0.21986567555E+02 -0.17932559047E+02  0.34421086755E+02  0.51100000000E-03 0.  1.
        -12    1    4    4    0    0 -0.12154528773E+01  0.13855161545E+01 -0.18164701668E+01  0.25877682621E+01  0.00000000000E+00 0.  1.
</event>
<event>
 8    1  0.4798632E-010  0.9118800E+02  0.7816164E-02  0.1184000E+00
        -11   -1    0    0    0    0  0.00000000000E+00  0.00000000000E+00  0.45593999997E+02  0.45594000000E+02  0.51100000000E-03 0. -1.
         11   -1    0    0    0    0 -0.00000000000E+00 -0.00000000000E+00 -0.45593999997E+02  0.45594000000E+02  0.51100000000E-03 0.  1.
         23    2    1    2    0    0  0.00000000000E+00  0.00000000000E+00  0.00000000000E+00  0.91188000000E+02  0.91188000000E+02 0.  0.
    9900012    2    3    3    0    0 -0.20757064106E+02 -0.16883295866E+02  0.34171949453E+02  0.47787268220E+02  0.19999987123E+02 0.  0.
        -12    1    3    3    0    0  0.20757064106E+02  0.16883295866E+02 -0.34171949453E+02  0.43400731780E+02  0.00000000000E+00 0.  1.
         11    1    4    4    0    0 -0.65408851582E+00 -0.93964126812E+01  0.17750181304E+02  0.20094510187E+02  0.51100000000E-03 0. -1.
        -11    1    4    4    0    0 -0.14955232810E+02 -0.78469394406E+01  0.14236847900E+02  0.22088940341E+02  0.51100000000E-03 0.  1.
         12    1    4    4    0    0 -0.51477427800E+01  0.36005625591E+00  0.21849202485E+01  0.56038176924E+01  0.00000000000E+00 0. -1.
</event>
<event>
 8    1  0.4798632E-010  0.9118800E+02  0.7816164E-02  0.1184000E+00
        -11   -1    0    0    0    0  0.00000000000E+00  0.00000000000E+00  0.45593999997E+02  0.45594000000E+02  0.51100000000E-03 0. -1.
         11   -1    0    0    0    0 -0.00000000000E+00 -0.00000000000E+00 -0.45593999997E+02  0.45594000000E+02  0.51100000000E-03 0.  1.
         23    2    1    2    0    0 -0.88817841970E-15  0.71054273576E-14  0.00000000000E+00  0.91188000000E+02  0.91188000000E+02 0.  0.
    9900012    2    3    3    0    0 -0.42536226570E+01  0.39305770239E+02  0.17904918835E+02  0.47787274219E+02  0.20000014476E+02 0.  0.
        -12    1    3    3    0    0  0.42536226570E+01 -0.39305770239E+02 -0.17904918835E+02  0.43400725781E+02  0.00000000000E+00 0.  1.
         11    1    4    4    0    0  0.38151541791E+01  0.20348039919E+02  0.47738339865E+01  0.21245884805E+02  0.51100000000E-03 0. -1.
        -11    1    4    4    0    0 -0.67628653714E+01  0.48184334106E+01  0.21127674906E+01  0.85683974753E+01  0.51100000000E-03 0.  1.
         12    1    4    4    0    0 -0.13059114647E+01  0.14139296910E+02  0.11018317358E+02  0.17972991939E+02  0.00000000000E+00 0. -1.
</event>
<event>
 8    1  0.4798632E-010  0.9118800E+02  0.7816164E-02  0.1184000E+00
        -11   -1    0    0    0    0  0.00000000000E+00  0.00000000000E+00  0.45593999997E+02  0.45594000000E+02  0.51100000000E-03 0. -1.
         11   -1    0    0    0    0 -0.00000000000E+00 -0.00000000000E+00 -0.45593999997E+02  0.45594000000E+02  0.51100000000E-03 0.  1.
         23    2    1    2    0    0 -0.71054273576E-14 -0.88817841970E-15  0.00000000000E+00  0.91188000000E+02  0.91188000000E+02 0.  0.
    9900012    2    3    3    0    0  0.37362971726E+02 -0.67301087569E+01 -0.21031800726E+02  0.47787278095E+02  0.20000032147E+02 0.  0.
         12    1    3    3    0    0 -0.37362971726E+02  0.67301087569E+01  0.21031800726E+02  0.43400721905E+02  0.00000000000E+00 0. -1.
         11    1    4    4    0    0  0.53232621445E+01 -0.48102932446E+01 -0.92270565252E+00  0.72337698982E+01  0.51100000000E-03 0. -1.
        -11    1    4    4    0    0  0.23913584008E+02  0.50675048254E+01 -0.12925418955E+02  0.27651501961E+02  0.51100000000E-03 0.  1.
        -12    1    4    4    0    0  0.81261255728E+01 -0.69873203377E+01 -0.71836761190E+01  0.12902006236E+02  0.00000000000E+00 0.  1.
</event>
<event>
 8    1  0.4798632E-010  0.9118800E+02  0.7816164E-02  0.1184000E+00
        -11   -1    0    0    0    0  0.00000000000E+00  0.00000000000E+00  0.45593999997E+02  0.45594000000E+02  0.51100000000E-03 0. -1.
         11   -1    0    0    0    0 -0.00000000000E+00 -0.00000000000E+00 -0.45593999997E+02  0.45594000000E+02  0.51100000000E-03 0.  1.
         23    2    1    2    0    0  0.00000000000E+00 -0.17763568394E-14  0.71054273576E-14  0.91188000000E+02  0.91188000000E+02 0.  0.
    9900012    2    3    3    0    0  0.18861784965E+02 -0.10758756612E+02  0.37577992711E+02  0.47787270604E+02  0.19999997991E+02 0.  0.
        -12    1    3    3    0    0 -0.18861784965E+02  0.10758756612E+02 -0.37577992711E+02  0.43400729396E+02  0.00000000000E+00 0.  1.
         11    1    4    4    0    0  0.15323150139E+02 -0.44528305813E+01  0.14322037707E+02  0.21441720890E+02  0.51100000000E-03 0. -1.
        -11    1    4    4    0    0  0.39568756690E+01 -0.67493548879E+01  0.24080829003E+02  0.25319893013E+02  0.51100000000E-03 0.  1.
        -12    1    4    4    0    0 -0.41824084275E+00  0.44342885708E+00 -0.82487399889E+00  0.10256567008E+01  0.00000000000E+00 0.  1.
</event>
<event>
 8    1  0.4798632E-010  0.9118800E+02  0.7816164E-02  0.1184000E+00
        -11   -1    0    0    0    0  0.00000000000E+00  0.00000000000E+00  0.45593999997E+02  0.45594000000E+02  0.51100000000E-03 0.  1.
         11   -1    0    0    0    0 -0.00000000000E+00 -0.00000000000E+00 -0.45593999997E+02  0.45594000000E+02  0.51100000000E-03 0. -1.
         23    2    1    2    0    0  0.17763568394E-14  0.71054273576E-14  0.00000000000E+00  0.91188000000E+02  0.91188000000E+02 0.  0.
    9900012    2    3    3    0    0  0.11662548649E+02 -0.41253349046E+02  0.67653182375E+01  0.47787269829E+02  0.19999994461E+02 0.  0.
        -12    1    3    3    0    0 -0.11662548649E+02  0.41253349046E+02 -0.67653182375E+01  0.43400730171E+02  0.00000000000E+00 0.  1.
         11    1    4    4    0    0  0.10879861774E+02 -0.10556901580E+02  0.44930325334E+01  0.15811606648E+02  0.51100000000E-03 0. -1.
        -11    1    4    4    0    0 -0.13698394009E+01 -0.17913159418E+02  0.51658189373E+01  0.18693405947E+02  0.51100000000E-03 0.  1.
         12    1    4    4    0    0  0.21525262754E+01 -0.12783288048E+02 -0.28935332332E+01  0.13282257235E+02  0.00000000000E+00 0. -1.
</event>
<event>
 8    1  0.4798632E-010  0.9118800E+02  0.7816164E-02  0.1184000E+00
        -11   -1    0    0    0    0  0.00000000000E+00  0.00000000000E+00  0.45593999997E+02  0.45594000000E+02  0.51100000000E-03 0. -1.
         11   -1    0    0    0    0 -0.00000000000E+00 -0.00000000000E+00 -0.45593999997E+02  0.45594000000E+02  0.51100000000E-03 0.  1.
         23    2    1    2    0    0 -0.35527136788E-14  0.00000000000E+00  0.00000000000E+00  0.91188000000E+02  0.91188000000E+02 0.  0.
    9900012    2    3    3    0    0  0.16586845042E+02  0.38322864355E+02 -0.11826156431E+02  0.47787270319E+02  0.19999996695E+02 0.  0.
         12    1    3    3    0    0 -0.16586845042E+02 -0.38322864355E+02  0.11826156431E+02  0.43400729681E+02  0.00000000000E+00 0. -1.
         11    1    4    4    0    0  0.38634921689E+01  0.28936882334E+02 -0.60762275500E+01  0.29819293627E+02  0.51100000000E-03 0. -1.
        -11    1    4    4    0    0  0.69373565700E+01  0.44219189555E+01 -0.62445170774E+01  0.10328324028E+02  0.51100000000E-03 0.  1.
         12    1    4    4    0    0  0.57859963036E+01  0.49640630662E+01  0.49458819604E+00  0.76396526645E+01  0.00000000000E+00 0. -1.
</event>
<event>
 8    1  0.4798632E-010  0.9118800E+02  0.7816164E-02  0.1184000E+00
        -11   -1    0    0    0    0  0.00000000000E+00  0.00000000000E+00  0.45593999997E+02  0.45594000000E+02  0.51100000000E-03 0. -1.
         11   -1    0    0    0    0 -0.00000000000E+00 -0.00000000000E+00 -0.45593999997E+02  0.45594000000E+02  0.51100000000E-03 0.  1.
         23    2    1    2    0    0  0.00000000000E+00  0.88817841970E-15  0.00000000000E+00  0.91188000000E+02  0.91188000000E+02 0.  0.
    9900012    2    3    3    0    0  0.52292199376E+01  0.67241187146E+01  0.42556607610E+02  0.47787269995E+02  0.19999995217E+02 0.  0.
        -12    1    3    3    0    0 -0.52292199376E+01 -0.67241187146E+01 -0.42556607610E+02  0.43400730005E+02  0.00000000000E+00 0.  1.
         11    1    4    4    0    0  0.43687153952E+01 -0.11981020620E+01  0.18478341294E+02  0.19025514973E+02  0.51100000000E-03 0. -1.
        -11    1    4    4    0    0 -0.16558776381E+01  0.83464717491E+01  0.57804404557E+01  0.10286836906E+02  0.51100000000E-03 0.  1.
        -12    1    4    4    0    0  0.25163821806E+01 -0.42425097252E+00  0.18297825861E+02  0.18474918116E+02  0.00000000000E+00 0.  1.
</event>
<event>
 8    1  0.4798632E-010  0.9118800E+02  0.7816164E-02  0.1184000E+00
        -11   -1    0    0    0    0  0.00000000000E+00  0.00000000000E+00  0.45593999997E+02  0.45594000000E+02  0.51100000000E-03 0. -1.
         11   -1    0    0    0    0 -0.00000000000E+00 -0.00000000000E+00 -0.45593999997E+02  0.45594000000E+02  0.51100000000E-03 0.  1.
         23    2    1    2    0    0  0.35527136788E-14  0.00000000000E+00  0.71054273576E-14  0.91188000000E+02  0.91188000000E+02 0.  0.
    9900012    2    3    3    0    0 -0.20668872975E+02  0.16442753987E+02 -0.34439177874E+02  0.47787269115E+02  0.19999991204E+02 0.  0.
         12    1    3    3    0    0  0.20668872975E+02 -0.16442753987E+02  0.34439177874E+02  0.43400730885E+02  0.00000000000E+00 0. -1.
         11    1    4    4    0    0 -0.18474419409E+02  0.12136254246E+02 -0.35101480294E+02  0.41481402564E+02  0.51100000000E-03 0. -1.
        -11    1    4    4    0    0 -0.67342836814E-01  0.39788163137E+01 -0.20692046426E+00  0.39847623086E+01  0.51100000000E-03 0.  1.
         12    1    4    4    0    0 -0.21271107293E+01  0.32768342743E+00  0.86922288432E+00  0.23211042428E+01  0.00000000000E+00 0. -1.
</event>
<event>
 8    1  0.4798632E-010  0.9118800E+02  0.7816164E-02  0.1184000E+00
        -11   -1    0    0    0    0  0.00000000000E+00  0.00000000000E+00  0.45593999997E+02  0.45594000000E+02  0.51100000000E-03 0. -1.
         11   -1    0    0    0    0 -0.00000000000E+00 -0.00000000000E+00 -0.45593999997E+02  0.45594000000E+02  0.51100000000E-03 0.  1.
         23    2    1    2    0    0  0.00000000000E+00  0.00000000000E+00  0.00000000000E+00  0.91188000000E+02  0.91188000000E+02 0.  0.
    9900012    2    3    3    0    0 -0.21721355778E+02 -0.11603823385E+02 -0.35737344166E+02  0.47787265191E+02  0.19999973311E+02 0.  0.
         12    1    3    3    0    0  0.21721355778E+02  0.11603823385E+02  0.35737344166E+02  0.43400734809E+02  0.00000000000E+00 0. -1.
         11    1    4    4    0    0 -0.12057088429E+02 -0.95853903892E+00 -0.55661036322E+01  0.13314416562E+02  0.51100000000E-03 0. -1.
        -11    1    4    4    0    0 -0.20586588621E+01 -0.83627240851E+01 -0.17771709029E+02  0.19748591659E+02  0.51100000000E-03 0.  1.
         12    1    4    4    0    0 -0.76056084861E+01 -0.22825602609E+01 -0.12399531504E+02  0.14724256970E+02  0.00000000000E+00 0. -1.
</event>
<event>
 8    1  0.4798632E-010  0.9118800E+02  0.7816164E-02  0.1184000E+00
        -11   -1    0    0    0    0  0.00000000000E+00  0.00000000000E+00  0.45593999997E+02  0.45594000000E+02  0.51100000000E-03 0. -1.
         11   -1    0    0    0    0 -0.00000000000E+00 -0.00000000000E+00 -0.45593999997E+02  0.45594000000E+02  0.51100000000E-03 0.  1.
         23    2    1    2    0    0  0.00000000000E+00  0.49960036108E-15  0.00000000000E+00  0.91188000000E+02  0.91188000000E+02 0.  0.
    9900012    2    3    3    0    0  0.36422433790E+02  0.45833601124E+00 -0.23597022577E+02  0.47787271554E+02  0.20000002325E+02 0.  0.
         12    1    3    3    0    0 -0.36422433790E+02 -0.45833601124E+00  0.23597022577E+02  0.43400728446E+02  0.00000000000E+00 0. -1.
         11    1    4    4    0    0  0.21535230620E+02 -0.33429865419E+01 -0.68295567764E+01  0.22838225914E+02  0.51100000000E-03 0. -1.
        -11    1    4    4    0    0  0.26708058721E+01  0.48679116375E+01 -0.23702578368E+01  0.60372088079E+01  0.51100000000E-03 0.  1.
        -12    1    4    4    0    0  0.12216397298E+02 -0.10665890843E+01 -0.14397207964E+02  0.18911836832E+02  0.00000000000E+00 0.  1.
</event>
<event>
 8    1  0.4798632E-010  0.9118800E+02  0.7816164E-02  0.1184000E+00
        -11   -1    0    0    0    0  0.00000000000E+00  0.00000000000E+00  0.45593999997E+02  0.45594000000E+02  0.51100000000E-03 0. -1.
         11   -1    0    0    0    0 -0.00000000000E+00 -0.00000000000E+00 -0.45593999997E+02  0.45594000000E+02  0.51100000000E-03 0.  1.
         23    2    1    2    0    0  0.00000000000E+00  0.17763568394E-14  0.00000000000E+00  0.91188000000E+02  0.91188000000E+02 0.  0.
    9900012    2    3    3    0    0 -0.21445438757E+02  0.12149328329E+02  0.35722691285E+02  0.47787266194E+02  0.19999977883E+02 0.  0.
        -12    1    3    3    0    0  0.21445438757E+02 -0.12149328329E+02 -0.35722691285E+02  0.43400733806E+02  0.00000000000E+00 0.  1.
         11    1    4    4    0    0 -0.16093083956E+02  0.81009677470E+00  0.20043793213E+02  0.25717644811E+02  0.51100000000E-03 0. -1.
        -11    1    4    4    0    0 -0.14850770540E+01 -0.13040426431E+01  0.38559119398E+01  0.43329018244E+01  0.51100000000E-03 0.  1.
         12    1    4    4    0    0 -0.38672777465E+01  0.12643274197E+02  0.11822986132E+02  0.17736719558E+02  0.00000000000E+00 0. -1.
</event>
<event>
 8    1  0.4798632E-010  0.9118800E+02  0.7816164E-02  0.1184000E+00
        -11   -1    0    0    0    0  0.00000000000E+00  0.00000000000E+00  0.45593999997E+02  0.45594000000E+02  0.51100000000E-03 0.  1.
         11   -1    0    0    0    0 -0.00000000000E+00 -0.00000000000E+00 -0.45593999997E+02  0.45594000000E+02  0.51100000000E-03 0. -1.
         23    2    1    2    0    0  0.00000000000E+00  0.00000000000E+00 -0.44408920985E-15  0.91188000000E+02  0.91188000000E+02 0.  0.
    9900012    2    3    3    0    0  0.50109609500E+01  0.42963352453E+02 -0.35586554379E+01  0.47787269451E+02  0.19999992735E+02 0.  0.
         12    1    3    3    0    0 -0.50109609500E+01 -0.42963352453E+02  0.35586554379E+01  0.43400730549E+02  0.00000000000E+00 0. -1.
         11    1    4    4    0    0  0.10048611773E+01 -0.17151748695E+01 -0.56570715241E-01  0.19886606864E+01  0.51100000000E-03 0. -1.
        -11    1    4    4    0    0  0.24652693771E+01  0.26976518912E+02 -0.62970285934E+01  0.27811197297E+02  0.51100000000E-03 0.  1.
        -12    1    4    4    0    0  0.15408303956E+01  0.17702008410E+02  0.27949438707E+01  0.17987411468E+02  0.00000000000E+00 0.  1.
</event>
<event>
 8    1  0.4798632E-010  0.9118800E+02  0.7816164E-02  0.1184000E+00
        -11   -1    0    0    0    0  0.00000000000E+00  0.00000000000E+00  0.45593999997E+02  0.45594000000E+02  0.51100000000E-03 0. -1.
         11   -1    0    0    0    0 -0.00000000000E+00 -0.00000000000E+00 -0.45593999997E+02  0.45594000000E+02  0.51100000000E-03 0.  1.
         23    2    1    2    0    0  0.35527136788E-14  0.00000000000E+00  0.71054273576E-14  0.91188000000E+02  0.91188000000E+02 0.  0.
    9900012    2    3    3    0    0  0.27954665826E+02 -0.34199567723E+01 -0.33022170345E+02  0.47787272125E+02  0.20000004926E+02 0.  0.
         12    1    3    3    0    0 -0.27954665826E+02  0.34199567723E+01  0.33022170345E+02  0.43400727875E+02  0.00000000000E+00 0. -1.
         11    1    4    4    0    0  0.28028887330E+01  0.13334274894E+01 -0.14347742827E+02  0.14679643681E+02  0.51100000000E-03 0. -1.
        -11    1    4    4    0    0  0.13316475668E+02 -0.68835712336E+01 -0.78181228664E+01  0.16906659119E+02  0.51100000000E-03 0.  1.
         12    1    4    4    0    0  0.11835301425E+02  0.21301869718E+01 -0.10856304652E+02  0.16200969325E+02  0.00000000000E+00 0. -1.
</event>
<event>
 8    1  0.4798632E-010  0.9118800E+02  0.7816164E-02  0.1184000E+00
        -11   -1    0    0    0    0  0.00000000000E+00  0.00000000000E+00  0.45593999997E+02  0.45594000000E+02  0.51100000000E-03 0. -1.
         11   -1    0    0    0    0 -0.00000000000E+00 -0.00000000000E+00 -0.45593999997E+02  0.45594000000E+02  0.51100000000E-03 0.  1.
         23    2    1    2    0    0  0.00000000000E+00 -0.35527136788E-14  0.00000000000E+00  0.91188000000E+02  0.91188000000E+02 0.  0.
    9900012    2    3    3    0    0  0.27531228692E+02 -0.16125236921E+02  0.29421602239E+02  0.47787279991E+02  0.20000040789E+02 0.  0.
        -12    1    3    3    0    0 -0.27531228692E+02  0.16125236921E+02 -0.29421602239E+02  0.43400720009E+02  0.00000000000E+00 0.  1.
         11    1    4    4    0    0  0.10373574754E+02 -0.39536608341E+00  0.32483926520E+01  0.10877473172E+02  0.51100000000E-03 0. -1.
        -11    1    4    4    0    0  0.20229837999E+01 -0.39768343928E+01  0.12765159213E+02  0.13522461508E+02  0.51100000000E-03 0.  1.
         12    1    4    4    0    0  0.15134670138E+02 -0.11753036445E+02  0.13408050373E+02  0.23387345311E+02  0.00000000000E+00 0. -1.
</event>
<event>
 8    1  0.4798632E-010  0.9118800E+02  0.7816164E-02  0.1184000E+00
        -11   -1    0    0    0    0  0.00000000000E+00  0.00000000000E+00  0.45593999997E+02  0.45594000000E+02  0.51100000000E-03 0. -1.
         11   -1    0    0    0    0 -0.00000000000E+00 -0.00000000000E+00 -0.45593999997E+02  0.45594000000E+02  0.51100000000E-03 0.  1.
         23    2    1    2    0    0  0.00000000000E+00 -0.35527136788E-14  0.00000000000E+00  0.91188000000E+02  0.91188000000E+02 0.  0.
    9900012    2    3    3    0    0  0.30689613967E+02  0.21151430309E+02 -0.22234846425E+02  0.47787264925E+02  0.19999972098E+02 0.  0.
         12    1    3    3    0    0 -0.30689613967E+02 -0.21151430309E+02  0.22234846425E+02  0.43400735075E+02  0.00000000000E+00 0. -1.
         11    1    4    4    0    0  0.76644835760E+01 -0.19531047881E+01 -0.25203094131E+01  0.83012581335E+01  0.51100000000E-03 0. -1.
        -11    1    4    4    0    0  0.20757682815E+02  0.16061435948E+02 -0.12209396988E+02  0.28946856403E+02  0.51100000000E-03 0.  1.
         12    1    4    4    0    0  0.22674475760E+01  0.70430991485E+01 -0.75051400243E+01  0.10539150388E+02  0.00000000000E+00 0. -1.
</event>
<event>
 8    1  0.4798632E-010  0.9118800E+02  0.7816164E-02  0.1184000E+00
        -11   -1    0    0    0    0  0.00000000000E+00  0.00000000000E+00  0.45593999997E+02  0.45594000000E+02  0.51100000000E-03 0. -1.
         11   -1    0    0    0    0 -0.00000000000E+00 -0.00000000000E+00 -0.45593999997E+02  0.45594000000E+02  0.51100000000E-03 0.  1.
         23    2    1    2    0    0  0.00000000000E+00  0.00000000000E+00  0.00000000000E+00  0.91188000000E+02  0.91188000000E+02 0.  0.
    9900012    2    3    3    0    0  0.40356084793E+02 -0.56544338117E+01 -0.14934429051E+02  0.47787269907E+02  0.19999994812E+02 0.  0.
         12    1    3    3    0    0 -0.40356084793E+02  0.56544338117E+01  0.14934429051E+02  0.43400730093E+02  0.00000000000E+00 0. -1.
         11    1    4    4    0    0  0.41791980342E+01  0.24426265140E+01  0.15727824166E+01  0.50897706517E+01  0.51100000000E-03 0. -1.
        -11    1    4    4    0    0  0.29939894404E+02 -0.11454276938E+02 -0.15269146292E+02  0.35506965033E+02  0.51100000000E-03 0.  1.
        -12    1    4    4    0    0  0.62369923553E+01  0.33572166127E+01 -0.12380651755E+01  0.71905342224E+01  0.00000000000E+00 0.  1.
</event>
<event>
 8    1  0.4798632E-010  0.9118800E+02  0.7816164E-02  0.1184000E+00
        -11   -1    0    0    0    0  0.00000000000E+00  0.00000000000E+00  0.45593999997E+02  0.45594000000E+02  0.51100000000E-03 0. -1.
         11   -1    0    0    0    0 -0.00000000000E+00 -0.00000000000E+00 -0.45593999997E+02  0.45594000000E+02  0.51100000000E-03 0.  1.
         23    2    1    2    0    0 -0.88817841970E-15  0.00000000000E+00  0.71054273576E-14  0.91188000000E+02  0.91188000000E+02 0.  0.
    9900012    2    3    3    0    0  0.11613197677E+01 -0.95831133067E+01 -0.42313576083E+02  0.47787269071E+02  0.19999991002E+02 0.  0.
         12    1    3    3    0    0 -0.11613197677E+01  0.95831133067E+01  0.42313576083E+02  0.43400730929E+02  0.00000000000E+00 0. -1.
         11    1    4    4    0    0  0.72363853564E+01 -0.89506569999E+01 -0.28810427256E+02  0.31024510515E+02  0.51100000000E-03 0. -1.
        -11    1    4    4    0    0 -0.63630630992E+01 -0.30123408401E+01 -0.12060491956E+02  0.13964892976E+02  0.51100000000E-03 0.  1.
         12    1    4    4    0    0  0.28799751054E+00  0.23798845333E+01 -0.14426568703E+01  0.27978655799E+01  0.00000000000E+00 0. -1.
</event>
<event>
 8    1  0.4798632E-010  0.9118800E+02  0.7816164E-02  0.1184000E+00
        -11   -1    0    0    0    0  0.00000000000E+00  0.00000000000E+00  0.45593999997E+02  0.45594000000E+02  0.51100000000E-03 0.  1.
         11   -1    0    0    0    0 -0.00000000000E+00 -0.00000000000E+00 -0.45593999997E+02  0.45594000000E+02  0.51100000000E-03 0. -1.
         23    2    1    2    0    0  0.00000000000E+00  0.00000000000E+00  0.00000000000E+00  0.91188000000E+02  0.91188000000E+02 0.  0.
    9900012    2    3    3    0    0 -0.16185908908E+02  0.33047620452E+02 -0.23010756055E+02  0.47787265456E+02  0.19999974519E+02 0.  0.
         12    1    3    3    0    0  0.16185908908E+02 -0.33047620452E+02  0.23010756055E+02  0.43400734544E+02  0.00000000000E+00 0. -1.
         11    1    4    4    0    0 -0.12423744493E+02  0.14482134506E+02 -0.29119296206E+01  0.19301838810E+02  0.51100000000E-03 0. -1.
        -11    1    4    4    0    0 -0.28656975792E+00  0.12410473752E+02 -0.16211546624E+02  0.20418526519E+02  0.51100000000E-03 0.  1.
        -12    1    4    4    0    0 -0.34755946573E+01  0.61550121946E+01 -0.38872798105E+01  0.80669001272E+01  0.00000000000E+00 0.  1.
</event>
<event>
 8    1  0.4798632E-010  0.9118800E+02  0.7816164E-02  0.1184000E+00
        -11   -1    0    0    0    0  0.00000000000E+00  0.00000000000E+00  0.45593999997E+02  0.45594000000E+02  0.51100000000E-03 0. -1.
         11   -1    0    0    0    0 -0.00000000000E+00 -0.00000000000E+00 -0.45593999997E+02  0.45594000000E+02  0.51100000000E-03 0.  1.
         23    2    1    2    0    0  0.00000000000E+00  0.00000000000E+00  0.00000000000E+00  0.91188000000E+02  0.91188000000E+02 0.  0.
    9900012    2    3    3    0    0 -0.65716467104E+01  0.43217760382E+01 -0.42682009123E+02  0.47787329598E+02  0.20000266967E+02 0.  0.
         12    1    3    3    0    0  0.65716467104E+01 -0.43217760382E+01  0.42682009123E+02  0.43400670402E+02  0.00000000000E+00 0. -1.
         11    1    4    4    0    0 -0.11253009603E+02  0.44949367500E+01 -0.15118251610E+02  0.19375144220E+02  0.51100000000E-03 0. -1.
        -11    1    4    4    0    0 -0.38521957755E+00 -0.14652503343E+01 -0.40503969738E+01  0.43244732131E+01  0.51100000000E-03 0.  1.
         12    1    4    4    0    0  0.50665824706E+01  0.12920896224E+01 -0.23513360538E+02  0.24087712165E+02  0.00000000000E+00 0. -1.
</event>
<event>
 8    1  0.4798632E-010  0.9118800E+02  0.7816164E-02  0.1184000E+00
        -11   -1    0    0    0    0  0.00000000000E+00  0.00000000000E+00  0.45593999997E+02  0.45594000000E+02  0.51100000000E-03 0. -1.
         11   -1    0    0    0    0 -0.00000000000E+00 -0.00000000000E+00 -0.45593999997E+02  0.45594000000E+02  0.51100000000E-03 0.  1.
         23    2    1    2    0    0  0.00000000000E+00  0.00000000000E+00  0.00000000000E+00  0.91188000000E+02  0.91188000000E+02 0.  0.
    9900012    2    3    3    0    0 -0.23649454224E+02 -0.25680571053E+02  0.25784399393E+02  0.47787266518E+02  0.19999979362E+02 0.  0.
        -12    1    3    3    0    0  0.23649454224E+02  0.25680571053E+02 -0.25784399393E+02  0.43400733482E+02  0.00000000000E+00 0.  1.
         11    1    4    4    0    0 -0.13920397506E+02 -0.17231022339E+02  0.94613918028E+01  0.24087414404E+02  0.51100000000E-03 0. -1.
        -11    1    4    4    0    0 -0.74066094838E+01 -0.35099520327E+01  0.16296413840E+02  0.18241456401E+02  0.51100000000E-03 0.  1.
         12    1    4    4    0    0 -0.23224472340E+01 -0.49395966813E+01  0.26593750197E-01  0.54583957127E+01  0.00000000000E+00 0. -1.
</event>
<event>
 8    1  0.4798632E-010  0.9118800E+02  0.7816164E-02  0.1184000E+00
        -11   -1    0    0    0    0  0.00000000000E+00  0.00000000000E+00  0.45593999997E+02  0.45594000000E+02  0.51100000000E-03 0.  1.
         11   -1    0    0    0    0 -0.00000000000E+00 -0.00000000000E+00 -0.45593999997E+02  0.45594000000E+02  0.51100000000E-03 0. -1.
         23    2    1    2    0    0  0.00000000000E+00 -0.71054273576E-14  0.00000000000E+00  0.91188000000E+02  0.91188000000E+02 0.  0.
    9900012    2    3    3    0    0  0.11074185182E+02  0.34304409704E+02  0.24170124813E+02  0.47787250743E+02  0.19999907437E+02 0.  0.
        -12    1    3    3    0    0 -0.11074185182E+02 -0.34304409704E+02 -0.24170124813E+02  0.43400749257E+02  0.00000000000E+00 0.  1.
         11    1    4    4    0    0  0.12319943663E+02  0.18093215144E+02  0.11656424982E+02  0.24799550192E+02  0.51100000000E-03 0. -1.
        -11    1    4    4    0    0 -0.28330921061E+01 -0.11788048867E+00  0.23992519881E+01  0.37143932283E+01  0.51100000000E-03 0.  1.
        -12    1    4    4    0    0  0.15873336251E+01  0.16329075048E+02  0.10114447843E+02  0.19273307323E+02  0.00000000000E+00 0.  1.
</event>
<event>
 8    1  0.4798632E-010  0.9118800E+02  0.7816164E-02  0.1184000E+00
        -11   -1    0    0    0    0  0.00000000000E+00  0.00000000000E+00  0.45593999997E+02  0.45594000000E+02  0.51100000000E-03 0.  1.
         11   -1    0    0    0    0 -0.00000000000E+00 -0.00000000000E+00 -0.45593999997E+02  0.45594000000E+02  0.51100000000E-03 0. -1.
         23    2    1    2    0    0  0.71054273576E-14  0.00000000000E+00  0.17763568394E-14  0.91188000000E+02  0.91188000000E+02 0.  0.
    9900012    2    3    3    0    0  0.35921241580E+02  0.21442311056E+02 -0.11554889781E+02  0.47787265237E+02  0.19999973522E+02 0.  0.
         12    1    3    3    0    0 -0.35921241580E+02 -0.21442311056E+02  0.11554889781E+02  0.43400734763E+02  0.00000000000E+00 0. -1.
         11    1    4    4    0    0  0.41317887917E+01  0.24711537505E+00 -0.58502377867E+01  0.71664514964E+01  0.51100000000E-03 0. -1.
        -11    1    4    4    0    0  0.20338368995E+02  0.77252502187E+01  0.83078421202E+00  0.21771976185E+02  0.51100000000E-03 0.  1.
        -12    1    4    4    0    0  0.11451083793E+02  0.13469945462E+02 -0.65354362064E+01  0.18848837556E+02  0.00000000000E+00 0.  1.
</event>
<event>
 8    1  0.4798632E-010  0.9118800E+02  0.7816164E-02  0.1184000E+00
        -11   -1    0    0    0    0  0.00000000000E+00  0.00000000000E+00  0.45593999997E+02  0.45594000000E+02  0.51100000000E-03 0.  1.
         11   -1    0    0    0    0 -0.00000000000E+00 -0.00000000000E+00 -0.45593999997E+02  0.45594000000E+02  0.51100000000E-03 0. -1.
         23    2    1    2    0    0  0.00000000000E+00  0.71054273576E-14  0.00000000000E+00  0.91188000000E+02  0.91188000000E+02 0.  0.
    9900012    2    3    3    0    0  0.82076310326E+01 -0.39036372812E+02  0.17100281259E+02  0.47787271566E+02  0.20000002376E+02 0.  0.
        -12    1    3    3    0    0 -0.82076310326E+01  0.39036372812E+02 -0.17100281259E+02  0.43400728434E+02  0.00000000000E+00 0.  1.
         11    1    4    4    0    0  0.13571977584E+01 -0.11462930361E+02 -0.31876389393E+01  0.11975049080E+02  0.51100000000E-03 0. -1.
        -11    1    4    4    0    0  0.84861548255E+01 -0.24622903559E+02  0.17000428728E+02  0.31101716682E+02  0.51100000000E-03 0.  1.
         12    1    4    4    0    0 -0.16357215513E+01 -0.29505388925E+01  0.32874914709E+01  0.47105058031E+01  0.00000000000E+00 0. -1.
</event>
<event>
 8    1  0.4798632E-010  0.9118800E+02  0.7816164E-02  0.1184000E+00
        -11   -1    0    0    0    0  0.00000000000E+00  0.00000000000E+00  0.45593999997E+02  0.45594000000E+02  0.51100000000E-03 0.  1.
         11   -1    0    0    0    0 -0.00000000000E+00 -0.00000000000E+00 -0.45593999997E+02  0.45594000000E+02  0.51100000000E-03 0. -1.
         23    2    1    2    0    0  0.00000000000E+00  0.00000000000E+00 -0.71054273576E-14  0.91188000000E+02  0.91188000000E+02 0.  0.
    9900012    2    3    3    0    0 -0.14960012257E+02 -0.14345035050E+02 -0.38131888057E+02  0.47787275535E+02  0.20000020475E+02 0.  0.
         12    1    3    3    0    0  0.14960012257E+02  0.14345035050E+02  0.38131888057E+02  0.43400724465E+02  0.00000000000E+00 0. -1.
         11    1    4    4    0    0 -0.10067632145E+01 -0.38627823896E+01 -0.24279332775E+02  0.24605297402E+02  0.51100000000E-03 0. -1.
        -11    1    4    4    0    0 -0.11477638390E+02 -0.10803847177E+02 -0.10261489536E+02  0.18808441312E+02  0.51100000000E-03 0.  1.
        -12    1    4    4    0    0 -0.24756106527E+01  0.32159451719E+00 -0.35910657451E+01  0.43735368208E+01  0.00000000000E+00 0.  1.
</event>
<event>
 8    1  0.4798632E-010  0.9118800E+02  0.7816164E-02  0.1184000E+00
        -11   -1    0    0    0    0  0.00000000000E+00  0.00000000000E+00  0.45593999997E+02  0.45594000000E+02  0.51100000000E-03 0.  1.
         11   -1    0    0    0    0 -0.00000000000E+00 -0.00000000000E+00 -0.45593999997E+02  0.45594000000E+02  0.51100000000E-03 0. -1.
         23    2    1    2    0    0  0.00000000000E+00  0.00000000000E+00 -0.88817841970E-15  0.91188000000E+02  0.91188000000E+02 0.  0.
    9900012    2    3    3    0    0 -0.38985437326E+02  0.18904017634E+02 -0.25294605666E+01  0.47787258336E+02  0.19999942057E+02 0.  0.
        -12    1    3    3    0    0  0.38985437326E+02 -0.18904017634E+02  0.25294605666E+01  0.43400741664E+02  0.00000000000E+00 0.  1.
         11    1    4    4    0    0 -0.15827453516E+02  0.11394288714E+02  0.60782398155E+01  0.20427508405E+02  0.51100000000E-03 0. -1.
        -11    1    4    4    0    0 -0.99034363925E+01 -0.51309736706E+00 -0.61597000153E+01  0.11674040681E+02  0.51100000000E-03 0.  1.
         12    1    4    4    0    0 -0.13254547418E+02  0.80228262865E+01 -0.24480003667E+01  0.15685709250E+02  0.00000000000E+00 0. -1.
</event>
<event>
 8    1  0.4798632E-010  0.9118800E+02  0.7816164E-02  0.1184000E+00
        -11   -1    0    0    0    0  0.00000000000E+00  0.00000000000E+00  0.45593999997E+02  0.45594000000E+02  0.51100000000E-03 0. -1.
         11   -1    0    0    0    0 -0.00000000000E+00 -0.00000000000E+00 -0.45593999997E+02  0.45594000000E+02  0.51100000000E-03 0.  1.
         23    2    1    2    0    0  0.00000000000E+00  0.00000000000E+00  0.35527136788E-14  0.91188000000E+02  0.91188000000E+02 0.  0.
    9900012    2    3    3    0    0  0.21136815312E+02  0.24990611263E+02  0.28501375877E+02  0.47787262222E+02  0.19999959773E+02 0.  0.
        -12    1    3    3    0    0 -0.21136815312E+02 -0.24990611263E+02 -0.28501375877E+02  0.43400737778E+02  0.00000000000E+00 0.  1.
         11    1    4    4    0    0  0.16799014374E+02  0.15058059046E+02  0.19176422886E+02  0.29608904423E+02  0.51100000000E-03 0. -1.
        -11    1    4    4    0    0 -0.15307716872E+01 -0.11495711377E+01 -0.78638003635E+00  0.20695819824E+01  0.51100000000E-03 0.  1.
        -12    1    4    4    0    0  0.58685726251E+01  0.11082123355E+02  0.10111333027E+02  0.16108775816E+02  0.00000000000E+00 0.  1.
</event>
<event>
 8    1  0.4798632E-010  0.9118800E+02  0.7816164E-02  0.1184000E+00
        -11   -1    0    0    0    0  0.00000000000E+00  0.00000000000E+00  0.45593999997E+02  0.45594000000E+02  0.51100000000E-03 0. -1.
         11   -1    0    0    0    0 -0.00000000000E+00 -0.00000000000E+00 -0.45593999997E+02  0.45594000000E+02  0.51100000000E-03 0.  1.
         23    2    1    2    0    0  0.00000000000E+00  0.35527136788E-14  0.00000000000E+00  0.91188000000E+02  0.91188000000E+02 0.  0.
    9900012    2    3    3    0    0  0.11181285081E+02 -0.30865562645E+02  0.28388714910E+02  0.47787271576E+02  0.20000002425E+02 0.  0.
        -12    1    3    3    0    0 -0.11181285081E+02  0.30865562645E+02 -0.28388714910E+02  0.43400728424E+02  0.00000000000E+00 0.  1.
         11    1    4    4    0    0  0.72678276704E+01 -0.18975016185E+02  0.69107569971E+01  0.21462318626E+02  0.51100000000E-03 0. -1.
        -11    1    4    4    0    0  0.61362936183E+01 -0.11215203373E+02  0.19233768807E+02  0.23094864123E+02  0.51100000000E-03 0.  1.
        -12    1    4    4    0    0 -0.22228362072E+01 -0.67534308609E+00  0.22441891062E+01  0.32300888274E+01  0.00000000000E+00 0.  1.
</event>
<event>
 8    1  0.4798632E-010  0.9118800E+02  0.7816164E-02  0.1184000E+00
        -11   -1    0    0    0    0  0.00000000000E+00  0.00000000000E+00  0.45593999997E+02  0.45594000000E+02  0.51100000000E-03 0. -1.
         11   -1    0    0    0    0 -0.00000000000E+00 -0.00000000000E+00 -0.45593999997E+02  0.45594000000E+02  0.51100000000E-03 0.  1.
         23    2    1    2    0    0 -0.35527136788E-14  0.00000000000E+00  0.71054273576E-14  0.91188000000E+02  0.91188000000E+02 0.  0.
    9900012    2    3    3    0    0  0.18489569552E+02  0.18942465592E+02 -0.34393917240E+02  0.47787277333E+02  0.20000028672E+02 0.  0.
         12    1    3    3    0    0 -0.18489569552E+02 -0.18942465592E+02  0.34393917240E+02  0.43400722667E+02  0.00000000000E+00 0. -1.
         11    1    4    4    0    0  0.16995690109E+01 -0.86949086104E+00 -0.37855672283E+00  0.19462411551E+01  0.51100000000E-03 0. -1.
        -11    1    4    4    0    0  0.11648931404E+02  0.35776657225E+01 -0.21479875890E+02  0.24695796472E+02  0.51100000000E-03 0.  1.
        -12    1    4    4    0    0  0.51410691371E+01  0.16234290730E+02 -0.12535484627E+02  0.21145239706E+02  0.00000000000E+00 0.  1.
</event>
<event>
 8    1  0.4798632E-010  0.9118800E+02  0.7816164E-02  0.1184000E+00
        -11   -1    0    0    0    0  0.00000000000E+00  0.00000000000E+00  0.45593999997E+02  0.45594000000E+02  0.51100000000E-03 0. -1.
         11   -1    0    0    0    0 -0.00000000000E+00 -0.00000000000E+00 -0.45593999997E+02  0.45594000000E+02  0.51100000000E-03 0.  1.
         23    2    1    2    0    0  0.11102230246E-15  0.88817841970E-15  0.00000000000E+00  0.91188000000E+02  0.91188000000E+02 0.  0.
    9900012    2    3    3    0    0  0.79221736283E+00 -0.63538585541E+01  0.42925798124E+02  0.47787271073E+02  0.20000000128E+02 0.  0.
        -12    1    3    3    0    0 -0.79221736283E+00  0.63538585541E+01 -0.42925798124E+02  0.43400728927E+02  0.00000000000E+00 0.  1.
         11    1    4    4    0    0  0.29975149496E+01 -0.17906975232E+01  0.51022491481E+01  0.61826078739E+01  0.51100000000E-03 0. -1.
        -11    1    4    4    0    0  0.26157560457E+01 -0.45448443336E+01  0.22504184680E+01  0.57063274748E+01  0.51100000000E-03 0.  1.
        -12    1    4    4    0    0 -0.48210536325E+01 -0.18316697301E-01  0.35573130508E+02  0.35898335724E+02  0.00000000000E+00 0.  1.
</event>
<event>
 8    1  0.4798632E-010  0.9118800E+02  0.7816164E-02  0.1184000E+00
        -11   -1    0    0    0    0  0.00000000000E+00  0.00000000000E+00  0.45593999997E+02  0.45594000000E+02  0.51100000000E-03 0. -1.
         11   -1    0    0    0    0 -0.00000000000E+00 -0.00000000000E+00 -0.45593999997E+02  0.45594000000E+02  0.51100000000E-03 0.  1.
         23    2    1    2    0    0  0.35527136788E-14 -0.22204460493E-15 -0.71054273576E-14  0.91188000000E+02  0.91188000000E+02 0.  0.
    9900012    2    3    3    0    0  0.30787001300E+02 -0.13307804426E+01 -0.30561624016E+02  0.47787270880E+02  0.19999999250E+02 0.  0.
         12    1    3    3    0    0 -0.30787001300E+02  0.13307804426E+01  0.30561624016E+02  0.43400729120E+02  0.00000000000E+00 0. -1.
         11    1    4    4    0    0  0.10732403344E+01 -0.26910513768E+01  0.12542420700E+01  0.31570121570E+01  0.51100000000E-03 0. -1.
        -11    1    4    4    0    0  0.25835693608E+02  0.15229642003E+01 -0.21627623399E+02  0.33727682670E+02  0.51100000000E-03 0.  1.
         12    1    4    4    0    0  0.38780673574E+01 -0.16269326616E+00 -0.10188242688E+02  0.10902576053E+02  0.00000000000E+00 0. -1.
</event>
<event>
 8    1  0.4798632E-010  0.9118800E+02  0.7816164E-02  0.1184000E+00
        -11   -1    0    0    0    0  0.00000000000E+00  0.00000000000E+00  0.45593999997E+02  0.45594000000E+02  0.51100000000E-03 0. -1.
         11   -1    0    0    0    0 -0.00000000000E+00 -0.00000000000E+00 -0.45593999997E+02  0.45594000000E+02  0.51100000000E-03 0.  1.
         23    2    1    2    0    0  0.71054273576E-14  0.88817841970E-15 -0.71054273576E-14  0.91188000000E+02  0.91188000000E+02 0.  0.
    9900012    2    3    3    0    0  0.30945499454E+02  0.36888841899E+01 -0.30205817834E+02  0.47787271503E+02  0.20000002091E+02 0.  0.
         12    1    3    3    0    0 -0.30945499454E+02 -0.36888841899E+01  0.30205817834E+02  0.43400728497E+02  0.00000000000E+00 0. -1.
         11    1    4    4    0    0  0.53447384113E+01 -0.29271830946E+01 -0.73534925233E+01  0.95503131941E+01  0.51100000000E-03 0. -1.
        -11    1    4    4    0    0  0.22440823003E+02 -0.22956643090E+00 -0.13371420127E+02  0.26123516499E+02  0.51100000000E-03 0.  1.
        -12    1    4    4    0    0  0.31599380397E+01  0.68456337153E+01 -0.94809051834E+01  0.12113441810E+02  0.00000000000E+00 0.  1.
</event>
<event>
 8    1  0.4798632E-010  0.9118800E+02  0.7816164E-02  0.1184000E+00
        -11   -1    0    0    0    0  0.00000000000E+00  0.00000000000E+00  0.45593999997E+02  0.45594000000E+02  0.51100000000E-03 0.  1.
         11   -1    0    0    0    0 -0.00000000000E+00 -0.00000000000E+00 -0.45593999997E+02  0.45594000000E+02  0.51100000000E-03 0. -1.
         23    2    1    2    0    0 -0.88817841970E-15  0.00000000000E+00  0.00000000000E+00  0.91188000000E+02  0.91188000000E+02 0.  0.
    9900012    2    3    3    0    0 -0.60069231894E+01  0.41711718606E+02 -0.10376544033E+02  0.47787271189E+02  0.20000000659E+02 0.  0.
         12    1    3    3    0    0  0.60069231894E+01 -0.41711718606E+02  0.10376544033E+02  0.43400728811E+02  0.00000000000E+00 0. -1.
         11    1    4    4    0    0 -0.11226371466E+02  0.27884355546E+02 -0.35663203545E+01  0.30270238546E+02  0.51100000000E-03 0.  1.
        -11    1    4    4    0    0  0.38584279839E+01  0.27332540804E+01 -0.34243333327E+01  0.58381678127E+01  0.51100000000E-03 0. -1.
         12    1    4    4    0    0  0.13610202932E+01  0.11094108979E+02 -0.33858903454E+01  0.11678864830E+02  0.00000000000E+00 0. -1.
</event>
<event>
 8    1  0.4798632E-010  0.9118800E+02  0.7816164E-02  0.1184000E+00
        -11   -1    0    0    0    0  0.00000000000E+00  0.00000000000E+00  0.45593999997E+02  0.45594000000E+02  0.51100000000E-03 0.  1.
         11   -1    0    0    0    0 -0.00000000000E+00 -0.00000000000E+00 -0.45593999997E+02  0.45594000000E+02  0.51100000000E-03 0. -1.
         23    2    1    2    0    0 -0.71054273576E-14  0.00000000000E+00  0.00000000000E+00  0.91188000000E+02  0.91188000000E+02 0.  0.
    9900012    2    3    3    0    0 -0.30853358010E+02  0.29101273952E+02 -0.92091947720E+01  0.47787272881E+02  0.20000008372E+02 0.  0.
         12    1    3    3    0    0  0.30853358010E+02 -0.29101273952E+02  0.92091947720E+01  0.43400727119E+02  0.00000000000E+00 0. -1.
         11    1    4    4    0    0 -0.83103885309E+01  0.18524934907E+01 -0.73113571311E+01  0.11222755144E+02  0.51100000000E-03 0. -1.
        -11    1    4    4    0    0 -0.23291592824E+02  0.26027895196E+02 -0.11449356491E+01  0.34946537776E+02  0.51100000000E-03 0.  1.
         12    1    4    4    0    0  0.74862334467E+00  0.12208852653E+01 -0.75290199185E+00  0.16179799605E+01  0.00000000000E+00 0. -1.
</event>
<event>
 8    1  0.4798632E-010  0.9118800E+02  0.7816164E-02  0.1184000E+00
        -11   -1    0    0    0    0  0.00000000000E+00  0.00000000000E+00  0.45593999997E+02  0.45594000000E+02  0.51100000000E-03 0. -1.
         11   -1    0    0    0    0 -0.00000000000E+00 -0.00000000000E+00 -0.45593999997E+02  0.45594000000E+02  0.51100000000E-03 0.  1.
         23    2    1    2    0    0 -0.35527136788E-14  0.00000000000E+00  0.00000000000E+00  0.91188000000E+02  0.91188000000E+02 0.  0.
    9900012    2    3    3    0    0 -0.30568073579E+02 -0.21888701196E+02  0.21681811916E+02  0.47787270394E+02  0.19999997036E+02 0.  0.
        -12    1    3    3    0    0  0.30568073579E+02  0.21888701196E+02 -0.21681811916E+02  0.43400729606E+02  0.00000000000E+00 0.  1.
         11    1    4    4    0    0 -0.16098594015E+02 -0.70978295710E+01  0.11693693775E+01  0.17632678154E+02  0.51100000000E-03 0. -1.
        -11    1    4    4    0    0 -0.15145347358E+02 -0.14944709374E+02  0.19150214751E+02  0.28626152555E+02  0.51100000000E-03 0.  1.
        -12    1    4    4    0    0  0.67586779371E+00  0.15383774847E+00  0.13622277872E+01  0.15284396853E+01  0.00000000000E+00 0.  1.
</event>
<event>
 8    1  0.4798632E-010  0.9118800E+02  0.7816164E-02  0.1184000E+00
        -11   -1    0    0    0    0  0.00000000000E+00  0.00000000000E+00  0.45593999997E+02  0.45594000000E+02  0.51100000000E-03 0. -1.
         11   -1    0    0    0    0 -0.00000000000E+00 -0.00000000000E+00 -0.45593999997E+02  0.45594000000E+02  0.51100000000E-03 0.  1.
         23    2    1    2    0    0  0.00000000000E+00  0.35527136788E-14  0.00000000000E+00  0.91188000000E+02  0.91188000000E+02 0.  0.
    9900012    2    3    3    0    0  0.16171002352E+02  0.27719162398E+02  0.29219341247E+02  0.47787272079E+02  0.20000004719E+02 0.  0.
        -12    1    3    3    0    0 -0.16171002352E+02 -0.27719162398E+02 -0.29219341247E+02  0.43400727921E+02  0.00000000000E+00 0.  1.
         11    1    4    4    0    0  0.15227335621E+02  0.21944300498E+02  0.23343477951E+02  0.35473117111E+02  0.51100000000E-03 0. -1.
        -11    1    4    4    0    0  0.42452497665E+01  0.60024327221E+01  0.30391931704E+01  0.79553780269E+01  0.51100000000E-03 0.  1.
         12    1    4    4    0    0 -0.33015830358E+01 -0.22757082203E+00  0.28366701260E+01  0.43587769414E+01  0.00000000000E+00 0. -1.
</event>
<event>
 8    1  0.4798632E-010  0.9118800E+02  0.7816164E-02  0.1184000E+00
        -11   -1    0    0    0    0  0.00000000000E+00  0.00000000000E+00  0.45593999997E+02  0.45594000000E+02  0.51100000000E-03 0. -1.
         11   -1    0    0    0    0 -0.00000000000E+00 -0.00000000000E+00 -0.45593999997E+02  0.45594000000E+02  0.51100000000E-03 0.  1.
         23    2    1    2    0    0 -0.35527136788E-14  0.35527136788E-14 -0.35527136788E-14  0.91188000000E+02  0.91188000000E+02 0.  0.
    9900012    2    3    3    0    0  0.25379037125E+02  0.19039542358E+02 -0.29614582791E+02  0.47787271751E+02  0.20000003224E+02 0.  0.
         12    1    3    3    0    0 -0.25379037125E+02 -0.19039542358E+02  0.29614582791E+02  0.43400728249E+02  0.00000000000E+00 0. -1.
         11    1    4    4    0    0  0.20636499796E+02  0.20408822413E+02 -0.19506386129E+02  0.34969762027E+02  0.51100000000E-03 0. -1.
        -11    1    4    4    0    0 -0.23638028367E+00 -0.81126978170E+00 -0.67116064719E+01  0.67645913396E+01  0.51100000000E-03 0.  1.
        -12    1    4    4    0    0  0.49789176123E+01 -0.55801027319E+00 -0.33965901907E+01  0.60529183853E+01  0.00000000000E+00 0.  1.
</event>
<event>
 8    1  0.4798632E-010  0.9118800E+02  0.7816164E-02  0.1184000E+00
        -11   -1    0    0    0    0  0.00000000000E+00  0.00000000000E+00  0.45593999997E+02  0.45594000000E+02  0.51100000000E-03 0. -1.
         11   -1    0    0    0    0 -0.00000000000E+00 -0.00000000000E+00 -0.45593999997E+02  0.45594000000E+02  0.51100000000E-03 0.  1.
         23    2    1    2    0    0  0.00000000000E+00  0.35527136788E-14  0.00000000000E+00  0.91188000000E+02  0.91188000000E+02 0.  0.
    9900012    2    3    3    0    0  0.21893731382E+02 -0.20234113046E+02  0.31541526556E+02  0.47787277632E+02  0.20000030034E+02 0.  0.
        -12    1    3    3    0    0 -0.21893731382E+02  0.20234113046E+02 -0.31541526556E+02  0.43400722368E+02  0.00000000000E+00 0.  1.
         11    1    4    4    0    0  0.15445800814E+02 -0.16183155932E+02  0.30837924047E+02  0.38097832727E+02  0.51100000000E-03 0. -1.
        -11    1    4    4    0    0  0.70508050588E+01 -0.41121994128E+01 -0.66830205640E+00  0.81896681183E+01  0.51100000000E-03 0.  1.
         12    1    4    4    0    0 -0.60287449095E+00  0.61242299066E-01  0.13719045657E+01  0.14997767862E+01  0.00000000000E+00 0. -1.
</event>
<event>
 8    1  0.4798632E-010  0.9118800E+02  0.7816164E-02  0.1184000E+00
        -11   -1    0    0    0    0  0.00000000000E+00  0.00000000000E+00  0.45593999997E+02  0.45594000000E+02  0.51100000000E-03 0. -1.
         11   -1    0    0    0    0 -0.00000000000E+00 -0.00000000000E+00 -0.45593999997E+02  0.45594000000E+02  0.51100000000E-03 0.  1.
         23    2    1    2    0    0  0.00000000000E+00  0.00000000000E+00  0.00000000000E+00  0.91188000000E+02  0.91188000000E+02 0.  0.
    9900012    2    3    3    0    0 -0.12910646800E+02  0.40528247625E+02 -0.86255577622E+01  0.47787263796E+02  0.19999966952E+02 0.  0.
         12    1    3    3    0    0  0.12910646800E+02 -0.40528247625E+02  0.86255577622E+01  0.43400736204E+02  0.00000000000E+00 0. -1.
         11    1    4    4    0    0 -0.38359688489E+01  0.18342910108E+02  0.31325072366E+01  0.18999726580E+02  0.51100000000E-03 0. -1.
        -11    1    4    4    0    0 -0.11122963801E+02  0.18577307200E+02 -0.11756949009E+02  0.24638638696E+02  0.51100000000E-03 0.  1.
         12    1    4    4    0    0  0.20482858503E+01  0.36080303165E+01 -0.11159900040E-02  0.41488985207E+01  0.00000000000E+00 0. -1.
</event>
<event>
 8    1  0.4798632E-010  0.9118800E+02  0.7816164E-02  0.1184000E+00
        -11   -1    0    0    0    0  0.00000000000E+00  0.00000000000E+00  0.45593999997E+02  0.45594000000E+02  0.51100000000E-03 0. -1.
         11   -1    0    0    0    0 -0.00000000000E+00 -0.00000000000E+00 -0.45593999997E+02  0.45594000000E+02  0.51100000000E-03 0.  1.
         23    2    1    2    0    0  0.00000000000E+00  0.00000000000E+00 -0.71054273576E-14  0.91188000000E+02  0.91188000000E+02 0.  0.
    9900012    2    3    3    0    0 -0.21595089482E+02 -0.24574780542E+01 -0.37566422169E+02  0.47787272326E+02  0.20000005841E+02 0.  0.
         12    1    3    3    0    0  0.21595089482E+02  0.24574780542E+01  0.37566422169E+02  0.43400727674E+02  0.00000000000E+00 0. -1.
         11    1    4    4    0    0 -0.25588804774E+01  0.95256853731E+00  0.17284201030E+01  0.32315155005E+01  0.51100000000E-03 0. -1.
        -11    1    4    4    0    0 -0.18420394216E+02 -0.15505065905E+01 -0.31546097175E+02  0.36563249869E+02  0.51100000000E-03 0.  1.
         12    1    4    4    0    0 -0.61581478854E+00 -0.18595400010E+01 -0.77487450966E+01  0.79925069560E+01  0.00000000000E+00 0. -1.
</event>
<event>
 8    1  0.4798632E-010  0.9118800E+02  0.7816164E-02  0.1184000E+00
        -11   -1    0    0    0    0  0.00000000000E+00  0.00000000000E+00  0.45593999997E+02  0.45594000000E+02  0.51100000000E-03 0.  1.
         11   -1    0    0    0    0 -0.00000000000E+00 -0.00000000000E+00 -0.45593999997E+02  0.45594000000E+02  0.51100000000E-03 0. -1.
         23    2    1    2    0    0  0.00000000000E+00  0.00000000000E+00 -0.17763568394E-14  0.91188000000E+02  0.91188000000E+02 0.  0.
    9900012    2    3    3    0    0 -0.29746106761E+01 -0.40838675617E+02  0.14386724413E+02  0.47787267585E+02  0.19999984228E+02 0.  0.
        -12    1    3    3    0    0  0.29746106761E+01  0.40838675617E+02 -0.14386724413E+02  0.43400732415E+02  0.00000000000E+00 0.  1.
         11    1    4    4    0    0 -0.51588380033E+01 -0.32321703056E+02  0.51018028174E+01  0.33126039459E+02  0.51100000000E-03 0. -1.
        -11    1    4    4    0    0  0.41529002483E+01 -0.49348827450E+01  0.81993289172E+01  0.10432096775E+02  0.51100000000E-03 0.  1.
        -12    1    4    4    0    0 -0.19686729211E+01 -0.35820898161E+01  0.10855926788E+01  0.42291313511E+01  0.00000000000E+00 0.  1.
</event>
<event>
 8    1  0.4798632E-010  0.9118800E+02  0.7816164E-02  0.1184000E+00
        -11   -1    0    0    0    0  0.00000000000E+00  0.00000000000E+00  0.45593999997E+02  0.45594000000E+02  0.51100000000E-03 0. -1.
         11   -1    0    0    0    0 -0.00000000000E+00 -0.00000000000E+00 -0.45593999997E+02  0.45594000000E+02  0.51100000000E-03 0.  1.
         23    2    1    2    0    0  0.00000000000E+00  0.00000000000E+00  0.71054273576E-14  0.91188000000E+02  0.91188000000E+02 0.  0.
    9900012    2    3    3    0    0  0.27666566010E+02  0.21669679469E+02 -0.25467808575E+02  0.47787272394E+02  0.20000006154E+02 0.  0.
         12    1    3    3    0    0 -0.27666566010E+02 -0.21669679469E+02  0.25467808575E+02  0.43400727606E+02  0.00000000000E+00 0. -1.
         11    1    4    4    0    0  0.70001518555E+00  0.80052688586E+01 -0.68308971096E+01  0.10546824467E+02  0.51100000000E-03 0. -1.
        -11    1    4    4    0    0  0.24697332806E+02  0.14532806566E+02 -0.19500701819E+02  0.34661766922E+02  0.51100000000E-03 0.  1.
        -12    1    4    4    0    0  0.22692180185E+01 -0.86839595562E+00  0.86379035401E+00  0.25786810053E+01  0.00000000000E+00 0.  1.
</event>
<event>
 8    1  0.4798632E-010  0.9118800E+02  0.7816164E-02  0.1184000E+00
        -11   -1    0    0    0    0  0.00000000000E+00  0.00000000000E+00  0.45593999997E+02  0.45594000000E+02  0.51100000000E-03 0. -1.
         11   -1    0    0    0    0 -0.00000000000E+00 -0.00000000000E+00 -0.45593999997E+02  0.45594000000E+02  0.51100000000E-03 0.  1.
         23    2    1    2    0    0  0.00000000000E+00 -0.44408920985E-15  0.00000000000E+00  0.91188000000E+02  0.91188000000E+02 0.  0.
    9900012    2    3    3    0    0  0.26152925535E+02 -0.30133075369E+01  0.34504599547E+02  0.47787275049E+02  0.20000018261E+02 0.  0.
        -12    1    3    3    0    0 -0.26152925535E+02  0.30133075369E+01 -0.34504599547E+02  0.43400724951E+02  0.00000000000E+00 0.  1.
         11    1    4    4    0    0  0.10809654313E+02  0.91211961010E+00  0.61467899338E+01  0.12468504935E+02  0.51100000000E-03 0. -1.
        -11    1    4    4    0    0  0.26910591500E+01 -0.62333473018E+01  0.16431956261E+02  0.17779358953E+02  0.51100000000E-03 0.  1.
        -12    1    4    4    0    0  0.12652212071E+02  0.23079201548E+01  0.11925853352E+02  0.17539411162E+02  0.00000000000E+00 0.  1.
</event>
<event>
 8    1  0.4798632E-010  0.9118800E+02  0.7816164E-02  0.1184000E+00
        -11   -1    0    0    0    0  0.00000000000E+00  0.00000000000E+00  0.45593999997E+02  0.45594000000E+02  0.51100000000E-03 0. -1.
         11   -1    0    0    0    0 -0.00000000000E+00 -0.00000000000E+00 -0.45593999997E+02  0.45594000000E+02  0.51100000000E-03 0.  1.
         23    2    1    2    0    0  0.00000000000E+00 -0.52735593670E-15  0.35527136788E-14  0.91188000000E+02  0.91188000000E+02 0.  0.
    9900012    2    3    3    0    0 -0.32704244090E+02 -0.86068831911E-01 -0.28531525276E+02  0.47787275076E+02  0.20000018382E+02 0.  0.
         12    1    3    3    0    0  0.32704244090E+02  0.86068831911E-01  0.28531525276E+02  0.43400724924E+02  0.00000000000E+00 0. -1.
         11    1    4    4    0    0 -0.15907189736E+02  0.81090366534E+01 -0.10354951175E+02  0.20640256172E+02  0.51100000000E-03 0. -1.
        -11    1    4    4    0    0 -0.46709658301E+01  0.11270495357E+01 -0.34564906969E+01  0.59190785297E+01  0.51100000000E-03 0.  1.
         12    1    4    4    0    0 -0.12126088524E+02 -0.93221550210E+01 -0.14720083404E+02  0.21227940374E+02  0.00000000000E+00 0. -1.
</event>
<event>
 8    1  0.4798632E-010  0.9118800E+02  0.7816164E-02  0.1184000E+00
        -11   -1    0    0    0    0  0.00000000000E+00  0.00000000000E+00  0.45593999997E+02  0.45594000000E+02  0.51100000000E-03 0.  1.
         11   -1    0    0    0    0 -0.00000000000E+00 -0.00000000000E+00 -0.45593999997E+02  0.45594000000E+02  0.51100000000E-03 0. -1.
         23    2    1    2    0    0  0.00000000000E+00  0.00000000000E+00  0.00000000000E+00  0.91188000000E+02  0.91188000000E+02 0.  0.
    9900012    2    3    3    0    0 -0.15031331302E+02  0.39568590055E+02  0.95921337046E+01  0.47787271104E+02  0.20000000273E+02 0.  0.
         12    1    3    3    0    0  0.15031331302E+02 -0.39568590055E+02 -0.95921337046E+01  0.43400728896E+02  0.00000000000E+00 0. -1.
         11    1    4    4    0    0 -0.87553721849E+01  0.27389201459E+02 -0.12457153451E+01  0.28781534108E+02  0.51100000000E-03 0. -1.
        -11    1    4    4    0    0 -0.69389073629E+01  0.55069747783E+01  0.54196712694E+01  0.10384991263E+02  0.51100000000E-03 0.  1.
         12    1    4    4    0    0  0.66294824539E+00  0.66724138183E+01  0.54181777802E+01  0.86207457332E+01  0.00000000000E+00 0. -1.
</event>
<event>
 8    1  0.4890575E-010  0.9118800E+02  0.7816164E-02  0.1184000E+00
        -11   -1    0    0    0    0  0.00000000000E+00  0.00000000000E+00  0.45593999997E+02  0.45594000000E+02  0.51100000000E-03 0. -1.
         11   -1    0    0    0    0 -0.00000000000E+00 -0.00000000000E+00 -0.45593999997E+02  0.45594000000E+02  0.51100000000E-03 0.  1.
         23    2    1    2    0    0  0.44408920985E-15  0.00000000000E+00  0.00000000000E+00  0.91188000000E+02  0.91188000000E+02 0.  0.
    9900012    2    3    3    0    0  0.23840641386E+01  0.19225168009E+02  0.38837248530E+02  0.47787277424E+02  0.20000029085E+02 0.  0.
        -12    1    3    3    0    0 -0.23840641386E+01 -0.19225168009E+02 -0.38837248530E+02  0.43400722576E+02  0.00000000000E+00 0.  1.
         11    1    4    4    0    0 -0.27701454047E+01  0.14256420960E+02  0.19673761693E+02  0.24453550735E+02  0.51100000000E-03 0. -1.
        -11    1    4    4    0    0  0.11237378294E+01 -0.35449605927E+01  0.38324128729E+01  0.53401236880E+01  0.51100000000E-03 0.  1.
        -12    1    4    4    0    0  0.40304717138E+01  0.85137076420E+01  0.15331073964E+02  0.17993603000E+02  0.00000000000E+00 0.  1.
</event>
<event>
 8    1  0.4798632E-010  0.9118800E+02  0.7816164E-02  0.1184000E+00
        -11   -1    0    0    0    0  0.00000000000E+00  0.00000000000E+00  0.45593999997E+02  0.45594000000E+02  0.51100000000E-03 0. -1.
         11   -1    0    0    0    0 -0.00000000000E+00 -0.00000000000E+00 -0.45593999997E+02  0.45594000000E+02  0.51100000000E-03 0.  1.
         23    2    1    2    0    0  0.00000000000E+00  0.00000000000E+00  0.00000000000E+00  0.91188000000E+02  0.91188000000E+02 0.  0.
    9900012    2    3    3    0    0  0.38747055439E+02 -0.61752341511E+01  0.18551433976E+02  0.47787268157E+02  0.19999986833E+02 0.  0.
        -12    1    3    3    0    0 -0.38747055439E+02  0.61752341511E+01 -0.18551433976E+02  0.43400731843E+02  0.00000000000E+00 0.  1.
         11    1    4    4    0    0  0.23382093119E+02  0.25993590686E+01  0.63748876663E+01  0.24374538748E+02  0.51100000000E-03 0. -1.
        -11    1    4    4    0    0  0.15793154158E+02 -0.85320684475E+01  0.13197142672E+02  0.22279687727E+02  0.51100000000E-03 0.  1.
         12    1    4    4    0    0 -0.42819183782E+00 -0.24252477223E+00 -0.10205963630E+01  0.11330416812E+01  0.00000000000E+00 0. -1.
</event>
<event>
 8    1  0.4798632E-010  0.9118800E+02  0.7816164E-02  0.1184000E+00
        -11   -1    0    0    0    0  0.00000000000E+00  0.00000000000E+00  0.45593999997E+02  0.45594000000E+02  0.51100000000E-03 0. -1.
         11   -1    0    0    0    0 -0.00000000000E+00 -0.00000000000E+00 -0.45593999997E+02  0.45594000000E+02  0.51100000000E-03 0.  1.
         23    2    1    2    0    0  0.00000000000E+00  0.00000000000E+00  0.00000000000E+00  0.91188000000E+02  0.91188000000E+02 0.  0.
    9900012    2    3    3    0    0  0.22936855403E+02 -0.35693418268E+02 -0.91380570007E+01  0.47787268103E+02  0.19999986589E+02 0.  0.
         12    1    3    3    0    0 -0.22936855403E+02  0.35693418268E+02  0.91380570007E+01  0.43400731897E+02  0.00000000000E+00 0. -1.
         11    1    4    4    0    0  0.17899179731E+02 -0.30081825506E+02 -0.36951484478E+01  0.35198735533E+02  0.51100000000E-03 0. -1.
        -11    1    4    4    0    0  0.97442737890E+00  0.17377256581E+01 -0.34081969917E+01  0.39477849707E+01  0.51100000000E-03 0.  1.
        -12    1    4    4    0    0  0.40632482938E+01 -0.73493184201E+01 -0.20347115611E+01  0.86407475993E+01  0.00000000000E+00 0.  1.
</event>
<event>
 8    1  0.4798632E-010  0.9118800E+02  0.7816164E-02  0.1184000E+00
        -11   -1    0    0    0    0  0.00000000000E+00  0.00000000000E+00  0.45593999997E+02  0.45594000000E+02  0.51100000000E-03 0. -1.
         11   -1    0    0    0    0 -0.00000000000E+00 -0.00000000000E+00 -0.45593999997E+02  0.45594000000E+02  0.51100000000E-03 0.  1.
         23    2    1    2    0    0  0.00000000000E+00  0.35527136788E-14  0.00000000000E+00  0.91188000000E+02  0.91188000000E+02 0.  0.
    9900012    2    3    3    0    0  0.16145683348E+02  0.28039832975E+02 -0.28925902296E+02  0.47787272498E+02  0.20000006627E+02 0.  0.
         12    1    3    3    0    0 -0.16145683348E+02 -0.28039832975E+02  0.28925902296E+02  0.43400727502E+02  0.00000000000E+00 0. -1.
         11    1    4    4    0    0  0.39277889141E+01  0.12528041069E+02 -0.29815714015E+01  0.13463621618E+02  0.51100000000E-03 0. -1.
        -11    1    4    4    0    0  0.64087985320E+01  0.24539513377E+01 -0.34697525240E+01  0.76898477638E+01  0.51100000000E-03 0.  1.
         12    1    4    4    0    0  0.58090959023E+01  0.13057840568E+02 -0.22474578371E+02  0.26633803117E+02  0.00000000000E+00 0. -1.
</event>
<event>
 8    1  0.4798632E-010  0.9118800E+02  0.7816164E-02  0.1184000E+00
        -11   -1    0    0    0    0  0.00000000000E+00  0.00000000000E+00  0.45593999997E+02  0.45594000000E+02  0.51100000000E-03 0. -1.
         11   -1    0    0    0    0 -0.00000000000E+00 -0.00000000000E+00 -0.45593999997E+02  0.45594000000E+02  0.51100000000E-03 0.  1.
         23    2    1    2    0    0  0.00000000000E+00  0.17763568394E-14  0.00000000000E+00  0.91188000000E+02  0.91188000000E+02 0.  0.
    9900012    2    3    3    0    0  0.19732809527E+02  0.14308572217E+02 -0.35909658039E+02  0.47787279371E+02  0.20000037962E+02 0.  0.
         12    1    3    3    0    0 -0.19732809527E+02 -0.14308572217E+02  0.35909658039E+02  0.43400720629E+02  0.00000000000E+00 0. -1.
         11    1    4    4    0    0  0.13748973947E+02  0.13856642320E+02 -0.21418011836E+02  0.28978820753E+02  0.51100000000E-03 0. -1.
        -11    1    4    4    0    0  0.42408486306E+01 -0.75872057136E+00 -0.15758573774E+02  0.16336863275E+02  0.51100000000E-03 0.  1.
         12    1    4    4    0    0  0.17429869492E+01  0.12106504680E+01  0.12669275720E+01  0.24715953418E+01  0.00000000000E+00 0. -1.
</event>
<event>
 8    1  0.4798632E-010  0.9118800E+02  0.7816164E-02  0.1184000E+00
        -11   -1    0    0    0    0  0.00000000000E+00  0.00000000000E+00  0.45593999997E+02  0.45594000000E+02  0.51100000000E-03 0. -1.
         11   -1    0    0    0    0 -0.00000000000E+00 -0.00000000000E+00 -0.45593999997E+02  0.45594000000E+02  0.51100000000E-03 0.  1.
         23    2    1    2    0    0  0.00000000000E+00  0.35527136788E-14 -0.35527136788E-14  0.91188000000E+02  0.91188000000E+02 0.  0.
    9900012    2    3    3    0    0  0.21888695632E+02  0.19997138834E+02  0.31695786542E+02  0.47787269101E+02  0.19999991140E+02 0.  0.
        -12    1    3    3    0    0 -0.21888695632E+02 -0.19997138834E+02 -0.31695786542E+02  0.43400730899E+02  0.00000000000E+00 0.  1.
         11    1    4    4    0    0  0.52959020717E+01  0.69075552081E+01  0.54931079048E+01  0.10292479411E+02  0.51100000000E-03 0. -1.
        -11    1    4    4    0    0 -0.12472231515E+01  0.79727939186E+01  0.59616931898E+01  0.10033084990E+02  0.51100000000E-03 0.  1.
        -12    1    4    4    0    0  0.17840016712E+02  0.51167897074E+01  0.20240985447E+02  0.27461704701E+02  0.00000000000E+00 0.  1.
</event>
<event>
 8    1  0.4798632E-010  0.9118800E+02  0.7816164E-02  0.1184000E+00
        -11   -1    0    0    0    0  0.00000000000E+00  0.00000000000E+00  0.45593999997E+02  0.45594000000E+02  0.51100000000E-03 0. -1.
         11   -1    0    0    0    0 -0.00000000000E+00 -0.00000000000E+00 -0.45593999997E+02  0.45594000000E+02  0.51100000000E-03 0.  1.
         23    2    1    2    0    0  0.00000000000E+00  0.00000000000E+00  0.00000000000E+00  0.91188000000E+02  0.91188000000E+02 0.  0.
    9900012    2    3    3    0    0  0.10052405203E+02 -0.10830866794E+02  0.40807658983E+02  0.47787267776E+02  0.19999985099E+02 0.  0.
        -12    1    3    3    0    0 -0.10052405203E+02  0.10830866794E+02 -0.40807658983E+02  0.43400732224E+02  0.00000000000E+00 0.  1.
         11    1    4    4    0    0  0.25350037240E+01  0.47847253473E+01  0.65333195447E+01  0.84855232640E+01  0.51100000000E-03 0. -1.
        -11    1    4    4    0    0  0.11668112533E+01 -0.11623392344E+02  0.19474437972E+02  0.22709434883E+02  0.51100000000E-03 0.  1.
         12    1    4    4    0    0  0.63505902256E+01 -0.39921997974E+01  0.14799901466E+02  0.16592309630E+02  0.00000000000E+00 0. -1.
</event>
<event>
 8    1  0.4798632E-010  0.9118800E+02  0.7816164E-02  0.1184000E+00
        -11   -1    0    0    0    0  0.00000000000E+00  0.00000000000E+00  0.45593999997E+02  0.45594000000E+02  0.51100000000E-03 0. -1.
         11   -1    0    0    0    0 -0.00000000000E+00 -0.00000000000E+00 -0.45593999997E+02  0.45594000000E+02  0.51100000000E-03 0.  1.
         23    2    1    2    0    0  0.00000000000E+00  0.00000000000E+00  0.00000000000E+00  0.91188000000E+02  0.91188000000E+02 0.  0.
    9900012    2    3    3    0    0  0.31200643490E+02 -0.18732794512E+02  0.23647950857E+02  0.47787270465E+02  0.19999997358E+02 0.  0.
        -12    1    3    3    0    0 -0.31200643490E+02  0.18732794512E+02 -0.23647950857E+02  0.43400729535E+02  0.00000000000E+00 0.  1.
         11    1    4    4    0    0  0.19251824008E+02 -0.16820283687E+02  0.13755172381E+02  0.29030319296E+02  0.51100000000E-03 0. -1.
        -11    1    4    4    0    0  0.57270262504E+01  0.21975951157E+01 -0.28389893929E+00  0.61407534419E+01  0.51100000000E-03 0.  1.
        -12    1    4    4    0    0  0.62217932313E+01 -0.41101059409E+01  0.10176677416E+02  0.12616197727E+02  0.00000000000E+00 0.  1.
</event>
<event>
 8    1  0.4798632E-010  0.9118800E+02  0.7816164E-02  0.1184000E+00
        -11   -1    0    0    0    0  0.00000000000E+00  0.00000000000E+00  0.45593999997E+02  0.45594000000E+02  0.51100000000E-03 0. -1.
         11   -1    0    0    0    0 -0.00000000000E+00 -0.00000000000E+00 -0.45593999997E+02  0.45594000000E+02  0.51100000000E-03 0.  1.
         23    2    1    2    0    0  0.22204460493E-14  0.17763568394E-14 -0.71054273576E-14  0.91188000000E+02  0.91188000000E+02 0.  0.
    9900012    2    3    3    0    0  0.27693829511E+01  0.15955466765E+02  0.40266322820E+02  0.47787272413E+02  0.20000006242E+02 0.  0.
        -12    1    3    3    0    0 -0.27693829511E+01 -0.15955466765E+02 -0.40266322820E+02  0.43400727587E+02  0.00000000000E+00 0.  1.
         11    1    4    4    0    0  0.43652328536E+01  0.14254356126E+02  0.30295102874E+02  0.33764407071E+02  0.51100000000E-03 0. -1.
        -11    1    4    4    0    0 -0.54648923109E+01  0.22852816119E+00  0.71964998171E+01  0.90391859683E+01  0.51100000000E-03 0.  1.
        -12    1    4    4    0    0  0.38690424084E+01  0.14725824770E+01  0.27747201285E+01  0.49836793738E+01  0.00000000000E+00 0.  1.
</event>
<event>
 8    1  0.4798632E-010  0.9118800E+02  0.7816164E-02  0.1184000E+00
        -11   -1    0    0    0    0  0.00000000000E+00  0.00000000000E+00  0.45593999997E+02  0.45594000000E+02  0.51100000000E-03 0. -1.
         11   -1    0    0    0    0 -0.00000000000E+00 -0.00000000000E+00 -0.45593999997E+02  0.45594000000E+02  0.51100000000E-03 0.  1.
         23    2    1    2    0    0  0.00000000000E+00 -0.88817841970E-15  0.00000000000E+00  0.91188000000E+02  0.91188000000E+02 0.  0.
    9900012    2    3    3    0    0  0.38299792398E+02  0.43416782465E+01  0.19947425641E+02  0.47787262018E+02  0.19999958843E+02 0.  0.
        -12    1    3    3    0    0 -0.38299792398E+02 -0.43416782465E+01 -0.19947425641E+02  0.43400737982E+02  0.00000000000E+00 0.  1.
         11    1    4    4    0    0  0.15860327145E+02  0.16813984261E+01 -0.48671628881E+00  0.15956627802E+02  0.51100000000E-03 0. -1.
        -11    1    4    4    0    0  0.16442161920E+01  0.19233334452E+01 -0.18448521780E+00  0.25370639496E+01  0.51100000000E-03 0.  1.
         12    1    4    4    0    0  0.20795249061E+02  0.73694637513E+00  0.20618627148E+02  0.29293570266E+02  0.00000000000E+00 0. -1.
</event>
<event>
 8    1  0.4798632E-010  0.9118800E+02  0.7816164E-02  0.1184000E+00
        -11   -1    0    0    0    0  0.00000000000E+00  0.00000000000E+00  0.45593999997E+02  0.45594000000E+02  0.51100000000E-03 0. -1.
         11   -1    0    0    0    0 -0.00000000000E+00 -0.00000000000E+00 -0.45593999997E+02  0.45594000000E+02  0.51100000000E-03 0.  1.
         23    2    1    2    0    0  0.35527136788E-14  0.35527136788E-14  0.00000000000E+00  0.91188000000E+02  0.91188000000E+02 0.  0.
    9900012    2    3    3    0    0  0.29018308120E+02  0.17461701617E+02 -0.27141295885E+02  0.47787272220E+02  0.20000005359E+02 0.  0.
         12    1    3    3    0    0 -0.29018308120E+02 -0.17461701617E+02  0.27141295885E+02  0.43400727780E+02  0.00000000000E+00 0. -1.
         11    1    4    4    0    0  0.15494608105E+02  0.11549568896E+02 -0.55749373864E+01  0.20113561324E+02  0.51100000000E-03 0.  1.
        -11    1    4    4    0    0  0.76442678936E+01 -0.15324442882E+01 -0.10869291987E+02  0.13376274731E+02  0.51100000000E-03 0. -1.
        -12    1    4    4    0    0  0.58794321208E+01  0.74445770094E+01 -0.10697066512E+02  0.14297436164E+02  0.00000000000E+00 0.  1.
</event>
<event>
 8    1  0.5249499E-010  0.9118800E+02  0.7816164E-02  0.1184000E+00
        -11   -1    0    0    0    0  0.00000000000E+00  0.00000000000E+00  0.45593999997E+02  0.45594000000E+02  0.51100000000E-03 0. -1.
         11   -1    0    0    0    0 -0.00000000000E+00 -0.00000000000E+00 -0.45593999997E+02  0.45594000000E+02  0.51100000000E-03 0.  1.
         23    2    1    2    0    0  0.00000000000E+00 -0.38857805862E-15  0.00000000000E+00  0.91188000000E+02  0.91188000000E+02 0.  0.
    9900012    2    3    3    0    0 -0.55179369817E+01 -0.48929628461E+00 -0.43045761379E+02  0.47787255627E+02  0.19999929707E+02 0.  0.
         12    1    3    3    0    0  0.55179369817E+01  0.48929628461E+00  0.43045761379E+02  0.43400744373E+02  0.00000000000E+00 0. -1.
         11    1    4    4    0    0  0.29677789607E+01 -0.76095211980E+01 -0.13257177899E+02  0.15571297022E+02  0.51100000000E-03 0. -1.
        -11    1    4    4    0    0 -0.63080422609E+01  0.34105503196E+01 -0.12604080527E+02  0.14501244665E+02  0.51100000000E-03 0.  1.
        -12    1    4    4    0    0 -0.21776736815E+01  0.37096745938E+01 -0.17184502953E+02  0.17714713941E+02  0.00000000000E+00 0.  1.
</event>
<event>
 8    1  0.4798632E-010  0.9118800E+02  0.7816164E-02  0.1184000E+00
        -11   -1    0    0    0    0  0.00000000000E+00  0.00000000000E+00  0.45593999997E+02  0.45594000000E+02  0.51100000000E-03 0. -1.
         11   -1    0    0    0    0 -0.00000000000E+00 -0.00000000000E+00 -0.45593999997E+02  0.45594000000E+02  0.51100000000E-03 0.  1.
         23    2    1    2    0    0  0.35527136788E-14  0.00000000000E+00  0.00000000000E+00  0.91188000000E+02  0.91188000000E+02 0.  0.
    9900012    2    3    3    0    0  0.29656864242E+02  0.49028220629E+01  0.31305846702E+02  0.47787270760E+02  0.19999998704E+02 0.  0.
        -12    1    3    3    0    0 -0.29656864242E+02 -0.49028220629E+01 -0.31305846702E+02  0.43400729240E+02  0.00000000000E+00 0.  1.
         11    1    4    4    0    0 -0.21744826919E+01  0.84800445867E-01  0.50349767134E+01  0.54851214078E+01  0.51100000000E-03 0. -1.
        -11    1    4    4    0    0  0.15047166603E+02 -0.61540475010E+00  0.86473561913E+01  0.17365849105E+02  0.51100000000E-03 0.  1.
         12    1    4    4    0    0  0.16784180331E+02  0.54334263672E+01  0.17623513797E+02  0.24936300247E+02  0.00000000000E+00 0. -1.
</event>
<event>
 8    1  0.4798632E-010  0.9118800E+02  0.7816164E-02  0.1184000E+00
        -11   -1    0    0    0    0  0.00000000000E+00  0.00000000000E+00  0.45593999997E+02  0.45594000000E+02  0.51100000000E-03 0.  1.
         11   -1    0    0    0    0 -0.00000000000E+00 -0.00000000000E+00 -0.45593999997E+02  0.45594000000E+02  0.51100000000E-03 0. -1.
         23    2    1    2    0    0 -0.71054273576E-14  0.00000000000E+00  0.00000000000E+00  0.91188000000E+02  0.91188000000E+02 0.  0.
    9900012    2    3    3    0    0  0.37227528860E+02  0.10489340733E+02 -0.19690310204E+02  0.47787268555E+02  0.19999988651E+02 0.  0.
        -12    1    3    3    0    0 -0.37227528860E+02 -0.10489340733E+02  0.19690310204E+02  0.43400731445E+02  0.00000000000E+00 0.  1.
         11    1    4    4    0    0  0.23549475853E+02  0.35179288083E+01 -0.12072105120E+02  0.26696242401E+02  0.51100000000E-03 0. -1.
        -11    1    4    4    0    0  0.19742830751E+01  0.98930371991E+00 -0.76340744587E+01  0.79470503089E+01  0.51100000000E-03 0.  1.
         12    1    4    4    0    0  0.11703769932E+02  0.59821082044E+01  0.15869374846E-01  0.13143975845E+02  0.00000000000E+00 0. -1.
</event>
<event>
 8    1  0.4798632E-010  0.9118800E+02  0.7816164E-02  0.1184000E+00
        -11   -1    0    0    0    0  0.00000000000E+00  0.00000000000E+00  0.45593999997E+02  0.45594000000E+02  0.51100000000E-03 0. -1.
         11   -1    0    0    0    0 -0.00000000000E+00 -0.00000000000E+00 -0.45593999997E+02  0.45594000000E+02  0.51100000000E-03 0.  1.
         23    2    1    2    0    0  0.00000000000E+00 -0.17763568394E-14  0.00000000000E+00  0.91188000000E+02  0.91188000000E+02 0.  0.
    9900012    2    3    3    0    0  0.31969125534E+02  0.90368541652E+01  0.27927289279E+02  0.47787271814E+02  0.20000003509E+02 0.  0.
        -12    1    3    3    0    0 -0.31969125534E+02 -0.90368541652E+01 -0.27927289279E+02  0.43400728186E+02  0.00000000000E+00 0.  1.
         11    1    4    4    0    0  0.28998284128E+01  0.42744834669E+01  0.75587523543E+01  0.91550505814E+01  0.51100000000E-03 0. -1.
        -11    1    4    4    0    0  0.19344740081E+02 -0.37683564276E+01  0.14261294444E+02  0.24327021981E+02  0.51100000000E-03 0.  1.
        -12    1    4    4    0    0  0.97245570396E+01  0.85307271259E+01  0.61072424812E+01  0.14305199252E+02  0.00000000000E+00 0.  1.
</event>
<event>
 8    1  0.4798632E-010  0.9118800E+02  0.7816164E-02  0.1184000E+00
        -11   -1    0    0    0    0  0.00000000000E+00  0.00000000000E+00  0.45593999997E+02  0.45594000000E+02  0.51100000000E-03 0. -1.
         11   -1    0    0    0    0 -0.00000000000E+00 -0.00000000000E+00 -0.45593999997E+02  0.45594000000E+02  0.51100000000E-03 0.  1.
         23    2    1    2    0    0 -0.88817841970E-15  0.00000000000E+00 -0.71054273576E-14  0.91188000000E+02  0.91188000000E+02 0.  0.
    9900012    2    3    3    0    0  0.77823276563E+01  0.27994344951E+02  0.32239338988E+02  0.47787274760E+02  0.20000016939E+02 0.  0.
        -12    1    3    3    0    0 -0.77823276563E+01 -0.27994344951E+02 -0.32239338988E+02  0.43400725240E+02  0.00000000000E+00 0.  1.
         11    1    4    4    0    0 -0.54243393549E+01  0.67124576182E+01  0.12473383640E+02  0.15167921559E+02  0.51100000000E-03 0. -1.
        -11    1    4    4    0    0  0.79338203487E+01  0.80333767305E+01  0.59406584619E+01  0.12758215794E+02  0.51100000000E-03 0.  1.
        -12    1    4    4    0    0  0.52728466624E+01  0.13248510602E+02  0.13825296886E+02  0.19861137407E+02  0.00000000000E+00 0.  1.
</event>
<event>
 8    1  0.4798632E-010  0.9118800E+02  0.7816164E-02  0.1184000E+00
        -11   -1    0    0    0    0  0.00000000000E+00  0.00000000000E+00  0.45593999997E+02  0.45594000000E+02  0.51100000000E-03 0. -1.
         11   -1    0    0    0    0 -0.00000000000E+00 -0.00000000000E+00 -0.45593999997E+02  0.45594000000E+02  0.51100000000E-03 0.  1.
         23    2    1    2    0    0  0.35527136788E-14  0.00000000000E+00  0.00000000000E+00  0.91188000000E+02  0.91188000000E+02 0.  0.
    9900012    2    3    3    0    0  0.19213287626E+02  0.17679227111E+02  0.34668683377E+02  0.47787273050E+02  0.20000009145E+02 0.  0.
        -12    1    3    3    0    0 -0.19213287626E+02 -0.17679227111E+02 -0.34668683377E+02  0.43400726950E+02  0.00000000000E+00 0.  1.
         11    1    4    4    0    0  0.59799828308E+01  0.15968797252E+02  0.20570187331E+02  0.26718818975E+02  0.51100000000E-03 0. -1.
        -11    1    4    4    0    0  0.37547324308E+01 -0.31711789402E+01  0.54614224709E+01  0.73472122036E+01  0.51100000000E-03 0.  1.
         12    1    4    4    0    0  0.94785723649E+01  0.48816087994E+01  0.86370735751E+01  0.13721241871E+02  0.00000000000E+00 0. -1.
</event>
<event>
 8    1  0.4798632E-010  0.9118800E+02  0.7816164E-02  0.1184000E+00
        -11   -1    0    0    0    0  0.00000000000E+00  0.00000000000E+00  0.45593999997E+02  0.45594000000E+02  0.51100000000E-03 0. -1.
         11   -1    0    0    0    0 -0.00000000000E+00 -0.00000000000E+00 -0.45593999997E+02  0.45594000000E+02  0.51100000000E-03 0.  1.
         23    2    1    2    0    0  0.00000000000E+00 -0.17763568394E-14 -0.35527136788E-14  0.91188000000E+02  0.91188000000E+02 0.  0.
    9900012    2    3    3    0    0  0.37088626975E+02  0.96469265099E+01  0.20371402816E+02  0.47787268501E+02  0.19999988401E+02 0.  0.
        -12    1    3    3    0    0 -0.37088626975E+02 -0.96469265099E+01 -0.20371402816E+02  0.43400731499E+02  0.00000000000E+00 0.  1.
         11    1    4    4    0    0  0.13119852861E+02 -0.39165331902E+01  0.23173881786E+01  0.13886686414E+02  0.51100000000E-03 0. -1.
        -11    1    4    4    0    0  0.30416607971E+00  0.73587129386E+00 -0.72724946340E+00  0.10783856492E+01  0.51100000000E-03 0.  1.
         12    1    4    4    0    0  0.23664608034E+02  0.12827588406E+02  0.18781264101E+02  0.32822196437E+02  0.00000000000E+00 0. -1.
</event>
<event>
 8    1  0.4798632E-010  0.9118800E+02  0.7816164E-02  0.1184000E+00
        -11   -1    0    0    0    0  0.00000000000E+00  0.00000000000E+00  0.45593999997E+02  0.45594000000E+02  0.51100000000E-03 0. -1.
         11   -1    0    0    0    0 -0.00000000000E+00 -0.00000000000E+00 -0.45593999997E+02  0.45594000000E+02  0.51100000000E-03 0.  1.
         23    2    1    2    0    0  0.00000000000E+00 -0.11102230246E-15  0.00000000000E+00  0.91188000000E+02  0.91188000000E+02 0.  0.
    9900012    2    3    3    0    0 -0.30832389909E+02  0.59728614053E+00  0.30538984372E+02  0.47787278984E+02  0.20000036200E+02 0.  0.
        -12    1    3    3    0    0  0.30832389909E+02 -0.59728614053E+00 -0.30538984372E+02  0.43400721016E+02  0.00000000000E+00 0.  1.
         11    1    4    4    0    0 -0.30152700860E+01 -0.47290981100E+01  0.92693379787E+00  0.56846661425E+01  0.51100000000E-03 0. -1.
        -11    1    4    4    0    0 -0.13529521144E+02  0.26757154246E+01  0.76580847572E+01  0.15775096128E+02  0.51100000000E-03 0.  1.
         12    1    4    4    0    0 -0.14287598679E+02  0.26506688259E+01  0.21953965817E+02  0.26327516714E+02  0.00000000000E+00 0. -1.
</event>
<event>
 8    1  0.4798632E-010  0.9118800E+02  0.7816164E-02  0.1184000E+00
        -11   -1    0    0    0    0  0.00000000000E+00  0.00000000000E+00  0.45593999997E+02  0.45594000000E+02  0.51100000000E-03 0. -1.
         11   -1    0    0    0    0 -0.00000000000E+00 -0.00000000000E+00 -0.45593999997E+02  0.45594000000E+02  0.51100000000E-03 0.  1.
         23    2    1    2    0    0 -0.35527136788E-14  0.00000000000E+00 -0.35527136788E-14  0.91188000000E+02  0.91188000000E+02 0.  0.
    9900012    2    3    3    0    0 -0.23341549738E+02  0.24761083485E+02 -0.26938511918E+02  0.47787278533E+02  0.20000034144E+02 0.  0.
         12    1    3    3    0    0  0.23341549738E+02 -0.24761083485E+02  0.26938511918E+02  0.43400721467E+02  0.00000000000E+00 0. -1.
         11    1    4    4    0    0 -0.64312917507E+01  0.27927263521E+01 -0.10326073164E+02  0.12481531208E+02  0.51100000000E-03 0. -1.
        -11    1    4    4    0    0 -0.12791497218E+02  0.87118986758E+01 -0.28087329695E+01  0.15729226325E+02  0.51100000000E-03 0.  1.
        -12    1    4    4    0    0 -0.41187607691E+01  0.13256458457E+02 -0.13803705784E+02  0.19576521000E+02  0.00000000000E+00 0.  1.
</event>
<event>
 8    1  0.4798632E-010  0.9118800E+02  0.7816164E-02  0.1184000E+00
        -11   -1    0    0    0    0  0.00000000000E+00  0.00000000000E+00  0.45593999997E+02  0.45594000000E+02  0.51100000000E-03 0. -1.
         11   -1    0    0    0    0 -0.00000000000E+00 -0.00000000000E+00 -0.45593999997E+02  0.45594000000E+02  0.51100000000E-03 0.  1.
         23    2    1    2    0    0  0.88817841970E-15  0.00000000000E+00  0.35527136788E-14  0.91188000000E+02  0.91188000000E+02 0.  0.
    9900012    2    3    3    0    0  0.74648163555E+01  0.30604699781E+02 -0.29853863900E+02  0.47787258973E+02  0.19999944960E+02 0.  0.
         12    1    3    3    0    0 -0.74648163555E+01 -0.30604699781E+02  0.29853863900E+02  0.43400741027E+02  0.00000000000E+00 0. -1.
         11    1    4    4    0    0  0.48658699836E+01  0.68781586915E+01 -0.11661936345E+02  0.14387026005E+02  0.51100000000E-03 0. -1.
        -11    1    4    4    0    0 -0.69867961132E+00  0.14876932810E+02 -0.25233475111E+01  0.15105580623E+02  0.51100000000E-03 0.  1.
        -12    1    4    4    0    0  0.32976259832E+01  0.88496082802E+01 -0.15668580044E+02  0.18294652345E+02  0.00000000000E+00 0.  1.
</event>
<event>
 8    1  0.4798632E-010  0.9118800E+02  0.7816164E-02  0.1184000E+00
        -11   -1    0    0    0    0  0.00000000000E+00  0.00000000000E+00  0.45593999997E+02  0.45594000000E+02  0.51100000000E-03 0. -1.
         11   -1    0    0    0    0 -0.00000000000E+00 -0.00000000000E+00 -0.45593999997E+02  0.45594000000E+02  0.51100000000E-03 0.  1.
         23    2    1    2    0    0  0.44408920985E-15  0.00000000000E+00 -0.71054273576E-14  0.91188000000E+02  0.91188000000E+02 0.  0.
    9900012    2    3    3    0    0 -0.15030051702E+01 -0.20129702664E+02  0.38420820050E+02  0.47787269969E+02  0.19999995098E+02 0.  0.
        -12    1    3    3    0    0  0.15030051702E+01  0.20129702664E+02 -0.38420820050E+02  0.43400730031E+02  0.00000000000E+00 0.  1.
         11    1    4    4    0    0 -0.55134830794E+01 -0.11047841583E+02  0.19183782389E+02  0.22813829278E+02  0.51100000000E-03 0. -1.
        -11    1    4    4    0    0  0.32236016360E+01 -0.64718588309E+01  0.19717771737E+01  0.74942958120E+01  0.51100000000E-03 0.  1.
        -12    1    4    4    0    0  0.78687627326E+00 -0.26100022498E+01  0.17265260487E+02  0.17479144879E+02  0.00000000000E+00 0.  1.
</event>
<event>
 8    1  0.4798632E-010  0.9118800E+02  0.7816164E-02  0.1184000E+00
        -11   -1    0    0    0    0  0.00000000000E+00  0.00000000000E+00  0.45593999997E+02  0.45594000000E+02  0.51100000000E-03 0. -1.
         11   -1    0    0    0    0 -0.00000000000E+00 -0.00000000000E+00 -0.45593999997E+02  0.45594000000E+02  0.51100000000E-03 0.  1.
         23    2    1    2    0    0  0.71054273576E-14 -0.44408920985E-15 -0.35527136788E-14  0.91188000000E+02  0.91188000000E+02 0.  0.
    9900012    2    3    3    0    0 -0.35573164399E+02  0.14961148187E+01  0.24818027507E+02  0.47787275648E+02  0.20000020989E+02 0.  0.
        -12    1    3    3    0    0  0.35573164399E+02 -0.14961148187E+01 -0.24818027507E+02  0.43400724352E+02  0.00000000000E+00 0.  1.
         11    1    4    4    0    0 -0.16205870207E+02  0.13167466489E+01  0.74944634432E+01  0.17903380503E+02  0.51100000000E-03 0. -1.
        -11    1    4    4    0    0 -0.36232750289E+00 -0.43318587282E+01  0.10795868951E+01  0.44790388908E+01  0.51100000000E-03 0.  1.
        -12    1    4    4    0    0 -0.19004966690E+02  0.45112268979E+01  0.16243977169E+02  0.25404856254E+02  0.00000000000E+00 0.  1.
</event>
<event>
 8    1  0.4798632E-010  0.9118800E+02  0.7816164E-02  0.1184000E+00
        -11   -1    0    0    0    0  0.00000000000E+00  0.00000000000E+00  0.45593999997E+02  0.45594000000E+02  0.51100000000E-03 0. -1.
         11   -1    0    0    0    0 -0.00000000000E+00 -0.00000000000E+00 -0.45593999997E+02  0.45594000000E+02  0.51100000000E-03 0.  1.
         23    2    1    2    0    0  0.35527136788E-14  0.00000000000E+00  0.17763568394E-14  0.91188000000E+02  0.91188000000E+02 0.  0.
    9900012    2    3    3    0    0 -0.24279518972E+02 -0.34699607462E+02 -0.94902909952E+01  0.47787269330E+02  0.19999992184E+02 0.  0.
         12    1    3    3    0    0  0.24279518972E+02  0.34699607462E+02  0.94902909952E+01  0.43400730670E+02  0.00000000000E+00 0. -1.
         11    1    4    4    0    0 -0.17705696212E+01 -0.14297439429E+02 -0.72765275066E+01  0.16139998260E+02  0.51100000000E-03 0. -1.
        -11    1    4    4    0    0 -0.14069947484E+02 -0.72858868338E+01 -0.25427313639E+01  0.16047213222E+02  0.51100000000E-03 0.  1.
        -12    1    4    4    0    0 -0.84390018666E+01 -0.13116281199E+02  0.32896787530E+00  0.15600057848E+02  0.00000000000E+00 0.  1.
</event>
<event>
 8    1  0.4798632E-010  0.9118800E+02  0.7816164E-02  0.1184000E+00
        -11   -1    0    0    0    0  0.00000000000E+00  0.00000000000E+00  0.45593999997E+02  0.45594000000E+02  0.51100000000E-03 0. -1.
         11   -1    0    0    0    0 -0.00000000000E+00 -0.00000000000E+00 -0.45593999997E+02  0.45594000000E+02  0.51100000000E-03 0.  1.
         23    2    1    2    0    0  0.00000000000E+00  0.44408920985E-15  0.35527136788E-14  0.91188000000E+02  0.91188000000E+02 0.  0.
    9900012    2    3    3    0    0  0.32219745633E+02 -0.31389190777E+01 -0.28907760008E+02  0.47787269472E+02  0.19999992832E+02 0.  0.
         12    1    3    3    0    0 -0.32219745633E+02  0.31389190777E+01  0.28907760008E+02  0.43400730528E+02  0.00000000000E+00 0. -1.
         11    1    4    4    0    0  0.82508176036E+01 -0.50236711446E+01 -0.33811036664E+01  0.10234506591E+02  0.51100000000E-03 0. -1.
        -11    1    4    4    0    0  0.25224671080E+02  0.28659678206E+00 -0.24850806099E+02  0.35410856144E+02  0.51100000000E-03 0.  1.
        -12    1    4    4    0    0 -0.12557430500E+01  0.15981552849E+01 -0.67585024257E+00  0.21419067376E+01  0.00000000000E+00 0.  1.
</event>
<event>
 8    1  0.6087892E-010  0.9118800E+02  0.7816164E-02  0.1184000E+00
        -11   -1    0    0    0    0  0.00000000000E+00  0.00000000000E+00  0.45593999997E+02  0.45594000000E+02  0.51100000000E-03 0. -1.
         11   -1    0    0    0    0 -0.00000000000E+00 -0.00000000000E+00 -0.45593999997E+02  0.45594000000E+02  0.51100000000E-03 0.  1.
         23    2    1    2    0    0  0.00000000000E+00  0.27755575616E-15  0.00000000000E+00  0.91188000000E+02  0.91188000000E+02 0.  0.
    9900012    2    3    3    0    0  0.32053787205E+02 -0.49411241330E+00 -0.29256358536E+02  0.47787263416E+02  0.19999965217E+02 0.  0.
         12    1    3    3    0    0 -0.32053787205E+02  0.49411241330E+00  0.29256358536E+02  0.43400736584E+02  0.00000000000E+00 0. -1.
         11    1    4    4    0    0 -0.34310160187E+00 -0.47617479143E+00  0.16033535232E+01  0.17073968264E+01  0.51100000000E-03 0. -1.
        -11    1    4    4    0    0  0.20988892508E+02 -0.46246364670E+01 -0.23008754361E+02  0.31485292577E+02  0.51100000000E-03 0.  1.
        -12    1    4    4    0    0  0.11407996299E+02  0.46066988451E+01 -0.78509576989E+01  0.14594574012E+02  0.00000000000E+00 0.  1.
</event>
<event>
 8    1  0.4798632E-010  0.9118800E+02  0.7816164E-02  0.1184000E+00
        -11   -1    0    0    0    0  0.00000000000E+00  0.00000000000E+00  0.45593999997E+02  0.45594000000E+02  0.51100000000E-03 0. -1.
         11   -1    0    0    0    0 -0.00000000000E+00 -0.00000000000E+00 -0.45593999997E+02  0.45594000000E+02  0.51100000000E-03 0.  1.
         23    2    1    2    0    0 -0.44408920985E-15  0.00000000000E+00  0.00000000000E+00  0.91188000000E+02  0.91188000000E+02 0.  0.
    9900012    2    3    3    0    0  0.31902782321E+01 -0.18610501613E+02 -0.39078058569E+02  0.47787270663E+02  0.19999998260E+02 0.  0.
         12    1    3    3    0    0 -0.31902782321E+01  0.18610501613E+02  0.39078058569E+02  0.43400729337E+02  0.00000000000E+00 0. -1.
         11    1    4    4    0    0  0.44297632098E+01  0.22843962004E+01 -0.59326914429E+01  0.77484253957E+01  0.51100000000E-03 0.  1.
        -11    1    4    4    0    0  0.21894285750E+00 -0.15188971718E+02 -0.29304606181E+02  0.33007767896E+02  0.51100000000E-03 0. -1.
         12    1    4    4    0    0 -0.14584278352E+01 -0.57059260951E+01 -0.38407609455E+01  0.70310773707E+01  0.00000000000E+00 0. -1.
</event>
<event>
 8    1  0.4798632E-010  0.9118800E+02  0.7816164E-02  0.1184000E+00
        -11   -1    0    0    0    0  0.00000000000E+00  0.00000000000E+00  0.45593999997E+02  0.45594000000E+02  0.51100000000E-03 0. -1.
         11   -1    0    0    0    0 -0.00000000000E+00 -0.00000000000E+00 -0.45593999997E+02  0.45594000000E+02  0.51100000000E-03 0.  1.
         23    2    1    2    0    0  0.00000000000E+00 -0.88817841970E-15  0.00000000000E+00  0.91188000000E+02  0.91188000000E+02 0.  0.
    9900012    2    3    3    0    0  0.29014986237E+02  0.46702136852E+01 -0.31936539876E+02  0.47787275335E+02  0.20000019562E+02 0.  0.
         12    1    3    3    0    0 -0.29014986237E+02 -0.46702136852E+01  0.31936539876E+02  0.43400724665E+02  0.00000000000E+00 0. -1.
         11    1    4    4    0    0  0.56549503503E+01  0.42318687186E+01  0.32550378915E+00  0.70705819629E+01  0.51100000000E-03 0. -1.
        -11    1    4    4    0    0  0.70215335377E+01  0.38478648164E+01 -0.84841685233E+01  0.11665723838E+02  0.51100000000E-03 0.  1.
         12    1    4    4    0    0  0.16338502349E+02 -0.34095198499E+01 -0.23777875142E+02  0.29050969534E+02  0.00000000000E+00 0. -1.
</event>
<event>
 8    1  0.4798632E-010  0.9118800E+02  0.7816164E-02  0.1184000E+00
        -11   -1    0    0    0    0  0.00000000000E+00  0.00000000000E+00  0.45593999997E+02  0.45594000000E+02  0.51100000000E-03 0. -1.
         11   -1    0    0    0    0 -0.00000000000E+00 -0.00000000000E+00 -0.45593999997E+02  0.45594000000E+02  0.51100000000E-03 0.  1.
         23    2    1    2    0    0 -0.35527136788E-14  0.35527136788E-14  0.00000000000E+00  0.91188000000E+02  0.91188000000E+02 0.  0.
    9900012    2    3    3    0    0 -0.24226317962E+02  0.30889812224E+02  0.18507523495E+02  0.47787269509E+02  0.19999992998E+02 0.  0.
        -12    1    3    3    0    0  0.24226317962E+02 -0.30889812224E+02 -0.18507523495E+02  0.43400730491E+02  0.00000000000E+00 0.  1.
         11    1    4    4    0    0 -0.39594321396E+01  0.51077329181E+01  0.12030430214E+02  0.13656401057E+02  0.51100000000E-03 0. -1.
        -11    1    4    4    0    0 -0.41191611258E+01  0.22675412764E+01  0.25135061044E+01  0.53316925097E+01  0.51100000000E-03 0.  1.
         12    1    4    4    0    0 -0.16147724697E+02  0.23514538030E+02  0.39635871769E+01  0.28799175942E+02  0.00000000000E+00 0. -1.
</event>
<event>
 8    1  0.4798632E-010  0.9118800E+02  0.7816164E-02  0.1184000E+00
        -11   -1    0    0    0    0  0.00000000000E+00  0.00000000000E+00  0.45593999997E+02  0.45594000000E+02  0.51100000000E-03 0. -1.
         11   -1    0    0    0    0 -0.00000000000E+00 -0.00000000000E+00 -0.45593999997E+02  0.45594000000E+02  0.51100000000E-03 0.  1.
         23    2    1    2    0    0  0.17763568394E-14  0.00000000000E+00  0.00000000000E+00  0.91188000000E+02  0.91188000000E+02 0.  0.
    9900012    2    3    3    0    0  0.15253100146E+02  0.24957649425E+02 -0.32063729676E+02  0.47787261646E+02  0.19999957151E+02 0.  0.
         12    1    3    3    0    0 -0.15253100146E+02 -0.24957649425E+02  0.32063729676E+02  0.43400738354E+02  0.00000000000E+00 0. -1.
         11    1    4    4    0    0  0.13824690567E+01  0.16024885809E+00 -0.30386650054E+01  0.33422126900E+01  0.51100000000E-03 0. -1.
        -11    1    4    4    0    0  0.30823489891E+01  0.21163519511E+02 -0.23553560795E+02  0.31814551070E+02  0.51100000000E-03 0.  1.
        -12    1    4    4    0    0  0.10788282100E+02  0.36338810558E+01 -0.54715038755E+01  0.12630497886E+02  0.00000000000E+00 0.  1.
</event>
<event>
 8    1  0.4798632E-010  0.9118800E+02  0.7816164E-02  0.1184000E+00
        -11   -1    0    0    0    0  0.00000000000E+00  0.00000000000E+00  0.45593999997E+02  0.45594000000E+02  0.51100000000E-03 0.  1.
         11   -1    0    0    0    0 -0.00000000000E+00 -0.00000000000E+00 -0.45593999997E+02  0.45594000000E+02  0.51100000000E-03 0. -1.
         23    2    1    2    0    0  0.17763568394E-14  0.00000000000E+00  0.00000000000E+00  0.91188000000E+02  0.91188000000E+02 0.  0.
    9900012    2    3    3    0    0 -0.15959536622E+02  0.36687161346E+02  0.16821680982E+02  0.47787267657E+02  0.19999984556E+02 0.  0.
        -12    1    3    3    0    0  0.15959536622E+02 -0.36687161346E+02 -0.16821680982E+02  0.43400732343E+02  0.00000000000E+00 0.  1.
         11    1    4    4    0    0 -0.16128594817E+02  0.26721451386E+02  0.11542106359E+02  0.33277436116E+02  0.51100000000E-03 0. -1.
        -11    1    4    4    0    0  0.98787978216E+00  0.88886014121E+01  0.76576387481E+01  0.11773808771E+02  0.51100000000E-03 0.  1.
         12    1    4    4    0    0 -0.81882158680E+00  0.10771085477E+01 -0.23780641252E+01  0.27360227700E+01  0.00000000000E+00 0. -1.
</event>
<event>
 8    1  0.6680241E-010  0.9118800E+02  0.7816164E-02  0.1184000E+00
        -11   -1    0    0    0    0  0.00000000000E+00  0.00000000000E+00  0.45593999997E+02  0.45594000000E+02  0.51100000000E-03 0. -1.
         11   -1    0    0    0    0 -0.00000000000E+00 -0.00000000000E+00 -0.45593999997E+02  0.45594000000E+02  0.51100000000E-03 0.  1.
         23    2    1    2    0    0  0.17763568394E-14  0.00000000000E+00  0.00000000000E+00  0.91188000000E+02  0.91188000000E+02 0.  0.
    9900012    2    3    3    0    0 -0.10499258792E+02  0.11135866329E+01 -0.42096894477E+02  0.47787273796E+02  0.20000012548E+02 0.  0.
         12    1    3    3    0    0  0.10499258792E+02 -0.11135866329E+01  0.42096894477E+02  0.43400726204E+02  0.00000000000E+00 0. -1.
         11    1    4    4    0    0  0.17200793584E+01  0.27156638669E+01 -0.18240205036E+01  0.36960187088E+01  0.51100000000E-03 0. -1.
        -11    1    4    4    0    0 -0.14328631569E+02  0.27837755831E+00 -0.27508326843E+02  0.31017659852E+02  0.51100000000E-03 0.  1.
        -12    1    4    4    0    0  0.21092934187E+01 -0.18804547923E+01 -0.12764547130E+02  0.13073595236E+02  0.00000000000E+00 0.  1.
</event>
<event>
 8    1  0.4798632E-010  0.9118800E+02  0.7816164E-02  0.1184000E+00
        -11   -1    0    0    0    0  0.00000000000E+00  0.00000000000E+00  0.45593999997E+02  0.45594000000E+02  0.51100000000E-03 0.  1.
         11   -1    0    0    0    0 -0.00000000000E+00 -0.00000000000E+00 -0.45593999997E+02  0.45594000000E+02  0.51100000000E-03 0. -1.
         23    2    1    2    0    0 -0.71054273576E-14  0.00000000000E+00 -0.14210854715E-13  0.91188000000E+02  0.91188000000E+02 0.  0.
    9900012    2    3    3    0    0 -0.22055591517E+02  0.21930347944E+01 -0.37314420335E+02  0.47787257107E+02  0.19999936453E+02 0.  0.
         12    1    3    3    0    0  0.22055591517E+02 -0.21930347944E+01  0.37314420335E+02  0.43400742893E+02  0.00000000000E+00 0. -1.
         11    1    4    4    0    0  0.80572957276E+00  0.29657189065E+01 -0.79921539461E+00  0.31754423763E+01  0.51100000000E-03 0. -1.
        -11    1    4    4    0    0 -0.23512982339E+02  0.59157857537E+00 -0.36023189512E+02  0.43021860566E+02  0.51100000000E-03 0.  1.
         12    1    4    4    0    0  0.65166124907E+00 -0.13642626875E+01 -0.49201542792E+00  0.15899541645E+01  0.00000000000E+00 0. -1.
</event>
<event>
 8    1  0.4798632E-010  0.9118800E+02  0.7816164E-02  0.1184000E+00
        -11   -1    0    0    0    0  0.00000000000E+00  0.00000000000E+00  0.45593999997E+02  0.45594000000E+02  0.51100000000E-03 0. -1.
         11   -1    0    0    0    0 -0.00000000000E+00 -0.00000000000E+00 -0.45593999997E+02  0.45594000000E+02  0.51100000000E-03 0.  1.
         23    2    1    2    0    0 -0.35527136788E-14  0.00000000000E+00  0.00000000000E+00  0.91188000000E+02  0.91188000000E+02 0.  0.
    9900012    2    3    3    0    0  0.15291256379E+02 -0.32915630746E+02 -0.23798357857E+02  0.47787272981E+02  0.20000008831E+02 0.  0.
         12    1    3    3    0    0 -0.15291256379E+02  0.32915630746E+02  0.23798357857E+02  0.43400727019E+02  0.00000000000E+00 0. -1.
         11    1    4    4    0    0  0.13197762737E+02 -0.16328252417E+02 -0.66042910084E+01  0.22009303221E+02  0.51100000000E-03 0. -1.
        -11    1    4    4    0    0  0.29112956173E+01 -0.14988930366E+01 -0.58961427675E+00  0.33271561074E+01  0.51100000000E-03 0.  1.
         12    1    4    4    0    0 -0.81780197545E+00 -0.15088485292E+02 -0.16604452572E+02  0.22450813653E+02  0.00000000000E+00 0. -1.
</event>
<event>
 8    1  0.4798632E-010  0.9118800E+02  0.7816164E-02  0.1184000E+00
        -11   -1    0    0    0    0  0.00000000000E+00  0.00000000000E+00  0.45593999997E+02  0.45594000000E+02  0.51100000000E-03 0. -1.
         11   -1    0    0    0    0 -0.00000000000E+00 -0.00000000000E+00 -0.45593999997E+02  0.45594000000E+02  0.51100000000E-03 0.  1.
         23    2    1    2    0    0  0.00000000000E+00  0.00000000000E+00 -0.44408920985E-15  0.91188000000E+02  0.91188000000E+02 0.  0.
    9900012    2    3    3    0    0 -0.32812652992E+02  0.28131506571E+02 -0.39461847957E+01  0.47787259997E+02  0.19999949631E+02 0.  0.
         12    1    3    3    0    0  0.32812652992E+02 -0.28131506571E+02  0.39461847957E+01  0.43400740003E+02  0.00000000000E+00 0. -1.
         11    1    4    4    0    0 -0.17204913722E+02  0.13943563505E+02 -0.98331979595E+01  0.24230637667E+02  0.51100000000E-03 0.  1.
        -11    1    4    4    0    0 -0.10415269272E+02  0.40546323099E+01  0.11906645949E+01  0.11239909236E+02  0.51100000000E-03 0. -1.
         12    1    4    4    0    0 -0.51924699979E+01  0.10133310757E+02  0.46963485688E+01  0.12316713094E+02  0.00000000000E+00 0. -1.
</event>
<event>
 8    1  0.4798632E-010  0.9118800E+02  0.7816164E-02  0.1184000E+00
        -11   -1    0    0    0    0  0.00000000000E+00  0.00000000000E+00  0.45593999997E+02  0.45594000000E+02  0.51100000000E-03 0. -1.
         11   -1    0    0    0    0 -0.00000000000E+00 -0.00000000000E+00 -0.45593999997E+02  0.45594000000E+02  0.51100000000E-03 0.  1.
         23    2    1    2    0    0 -0.71054273576E-14  0.00000000000E+00  0.35527136788E-14  0.91188000000E+02  0.91188000000E+02 0.  0.
    9900012    2    3    3    0    0 -0.33706879099E+02 -0.63154013121E+01  0.26600476064E+02  0.47787270523E+02  0.19999997622E+02 0.  0.
        -12    1    3    3    0    0  0.33706879099E+02  0.63154013121E+01 -0.26600476064E+02  0.43400729477E+02  0.00000000000E+00 0.  1.
         11    1    4    4    0    0 -0.15685314814E+02 -0.23927353107E+01  0.84992636343E+01  0.17999771267E+02  0.51100000000E-03 0. -1.
        -11    1    4    4    0    0 -0.11931816331E+02 -0.60689287993E+01  0.19027302876E+02  0.23264530786E+02  0.51100000000E-03 0.  1.
        -12    1    4    4    0    0 -0.60897479538E+01  0.21462627979E+01 -0.92609044607E+00  0.65229684694E+01  0.00000000000E+00 0.  1.
</event>
<event>
 8    1  0.4798632E-010  0.9118800E+02  0.7816164E-02  0.1184000E+00
        -11   -1    0    0    0    0  0.00000000000E+00  0.00000000000E+00  0.45593999997E+02  0.45594000000E+02  0.51100000000E-03 0. -1.
         11   -1    0    0    0    0 -0.00000000000E+00 -0.00000000000E+00 -0.45593999997E+02  0.45594000000E+02  0.51100000000E-03 0.  1.
         23    2    1    2    0    0  0.00000000000E+00  0.00000000000E+00  0.35527136788E-14  0.91188000000E+02  0.91188000000E+02 0.  0.
    9900012    2    3    3    0    0 -0.30283184868E+02 -0.26209446761E+02  0.16721749916E+02  0.47787270680E+02  0.19999998340E+02 0.  0.
        -12    1    3    3    0    0  0.30283184868E+02  0.26209446761E+02 -0.16721749916E+02  0.43400729320E+02  0.00000000000E+00 0.  1.
         11    1    4    4    0    0 -0.71575421691E+01  0.16841781623E+01  0.46884604834E+01  0.87205807117E+01  0.51100000000E-03 0. -1.
        -11    1    4    4    0    0 -0.12155550208E+02 -0.15530868241E+02  0.10816953552E+02  0.22493815897E+02  0.51100000000E-03 0.  1.
         12    1    4    4    0    0 -0.10970092491E+02 -0.12362756682E+02  0.12163358800E+01  0.16572874072E+02  0.00000000000E+00 0. -1.
</event>
<event>
 8    1  0.4798632E-010  0.9118800E+02  0.7816164E-02  0.1184000E+00
        -11   -1    0    0    0    0  0.00000000000E+00  0.00000000000E+00  0.45593999997E+02  0.45594000000E+02  0.51100000000E-03 0. -1.
         11   -1    0    0    0    0 -0.00000000000E+00 -0.00000000000E+00 -0.45593999997E+02  0.45594000000E+02  0.51100000000E-03 0.  1.
         23    2    1    2    0    0 -0.53290705182E-14  0.35527136788E-14  0.00000000000E+00  0.91188000000E+02  0.91188000000E+02 0.  0.
    9900012    2    3    3    0    0  0.12628235604E+02 -0.15731487394E+02 -0.38427494770E+02  0.47787258251E+02  0.19999941668E+02 0.  0.
         12    1    3    3    0    0 -0.12628235604E+02  0.15731487394E+02  0.38427494770E+02  0.43400741749E+02  0.00000000000E+00 0. -1.
         11    1    4    4    0    0  0.11783321064E+02 -0.14049224212E+02 -0.31595626180E+02  0.36530958792E+02  0.51100000000E-03 0.  1.
        -11    1    4    4    0    0 -0.39025531551E+01 -0.41876809976E+00 -0.39109207206E+01  0.55408112216E+01  0.51100000000E-03 0. -1.
        -12    1    4    4    0    0  0.47474676947E+01 -0.12634950818E+01 -0.29209478691E+01  0.57154882371E+01  0.00000000000E+00 0.  1.
</event>
<event>
 8    1  0.4798632E-010  0.9118800E+02  0.7816164E-02  0.1184000E+00
        -11   -1    0    0    0    0  0.00000000000E+00  0.00000000000E+00  0.45593999997E+02  0.45594000000E+02  0.51100000000E-03 0. -1.
         11   -1    0    0    0    0 -0.00000000000E+00 -0.00000000000E+00 -0.45593999997E+02  0.45594000000E+02  0.51100000000E-03 0.  1.
         23    2    1    2    0    0  0.00000000000E+00 -0.35527136788E-14  0.00000000000E+00  0.91188000000E+02  0.91188000000E+02 0.  0.
    9900012    2    3    3    0    0  0.18660042304E+02  0.30695171313E+02  0.24356367993E+02  0.47787269793E+02  0.19999994295E+02 0.  0.
        -12    1    3    3    0    0 -0.18660042304E+02 -0.30695171313E+02 -0.24356367993E+02  0.43400730207E+02  0.00000000000E+00 0.  1.
         11    1    4    4    0    0  0.14994314510E+02  0.18795758133E+02  0.65715195819E+01  0.24925787075E+02  0.51100000000E-03 0. -1.
        -11    1    4    4    0    0  0.14550362803E+01  0.18693277788E+01  0.91238512837E+01  0.94263555752E+01  0.51100000000E-03 0.  1.
         12    1    4    4    0    0  0.22106915132E+01  0.10030085400E+02  0.86609971272E+01  0.13435127143E+02  0.00000000000E+00 0. -1.
</event>
<event>
 8    1  0.4798632E-010  0.9118800E+02  0.7816164E-02  0.1184000E+00
        -11   -1    0    0    0    0  0.00000000000E+00  0.00000000000E+00  0.45593999997E+02  0.45594000000E+02  0.51100000000E-03 0.  1.
         11   -1    0    0    0    0 -0.00000000000E+00 -0.00000000000E+00 -0.45593999997E+02  0.45594000000E+02  0.51100000000E-03 0. -1.
         23    2    1    2    0    0  0.71054273576E-14  0.00000000000E+00  0.00000000000E+00  0.91188000000E+02  0.91188000000E+02 0.  0.
    9900012    2    3    3    0    0 -0.24045721613E+02  0.28511935626E+02 -0.22192268633E+02  0.47787262816E+02  0.19999962484E+02 0.  0.
         12    1    3    3    0    0  0.24045721613E+02 -0.28511935626E+02  0.22192268633E+02  0.43400737184E+02  0.00000000000E+00 0. -1.
         11    1    4    4    0    0 -0.45871600887E-01  0.42522727087E+01  0.23628589057E+01  0.48648771683E+01  0.51100000000E-03 0. -1.
        -11    1    4    4    0    0 -0.78214750883E+01  0.65380495839E+01 -0.28967470863E+01  0.10597769051E+02  0.51100000000E-03 0.  1.
         12    1    4    4    0    0 -0.16178374923E+02  0.17721613333E+02 -0.21658380453E+02  0.32324616597E+02  0.00000000000E+00 0. -1.
</event>
<event>
 8    1  0.4798632E-010  0.9118800E+02  0.7816164E-02  0.1184000E+00
        -11   -1    0    0    0    0  0.00000000000E+00  0.00000000000E+00  0.45593999997E+02  0.45594000000E+02  0.51100000000E-03 0. -1.
         11   -1    0    0    0    0 -0.00000000000E+00 -0.00000000000E+00 -0.45593999997E+02  0.45594000000E+02  0.51100000000E-03 0.  1.
         23    2    1    2    0    0 -0.88817841970E-15 -0.71054273576E-14  0.35527136788E-14  0.91188000000E+02  0.91188000000E+02 0.  0.
    9900012    2    3    3    0    0 -0.64867595397E+01 -0.34125668760E+02  0.26018908501E+02  0.47787275154E+02  0.20000018735E+02 0.  0.
        -12    1    3    3    0    0  0.64867595397E+01  0.34125668760E+02 -0.26018908501E+02  0.43400724846E+02  0.00000000000E+00 0.  1.
         11    1    4    4    0    0 -0.48462673336E+01 -0.24099880632E+00  0.13431883758E+01  0.50347336342E+01  0.51100000000E-03 0. -1.
        -11    1    4    4    0    0  0.24919213035E+01 -0.38501581064E+01  0.35731850548E+01  0.58138662630E+01  0.51100000000E-03 0.  1.
         12    1    4    4    0    0 -0.41324135096E+01 -0.30034511847E+02  0.21102535070E+02  0.36938675256E+02  0.00000000000E+00 0. -1.
</event>
<event>
 8    1  0.4798632E-010  0.9118800E+02  0.7816164E-02  0.1184000E+00
        -11   -1    0    0    0    0  0.00000000000E+00  0.00000000000E+00  0.45593999997E+02  0.45594000000E+02  0.51100000000E-03 0. -1.
         11   -1    0    0    0    0 -0.00000000000E+00 -0.00000000000E+00 -0.45593999997E+02  0.45594000000E+02  0.51100000000E-03 0.  1.
         23    2    1    2    0    0  0.00000000000E+00  0.17763568394E-14  0.00000000000E+00  0.91188000000E+02  0.91188000000E+02 0.  0.
    9900012    2    3    3    0    0 -0.38689018423E+01  0.89419889492E+01  0.42292974618E+02  0.47787271091E+02  0.20000000210E+02 0.  0.
        -12    1    3    3    0    0  0.38689018423E+01 -0.89419889492E+01 -0.42292974618E+02  0.43400728909E+02  0.00000000000E+00 0.  1.
         11    1    4    4    0    0 -0.11388122670E+02  0.19755576629E+01  0.24251708954E+02  0.26865173617E+02  0.51100000000E-03 0. -1.
        -11    1    4    4    0    0  0.67806727997E+01  0.63299561381E+01  0.14217236634E+02  0.16975738160E+02  0.51100000000E-03 0.  1.
         12    1    4    4    0    0  0.73854802793E+00  0.63647514816E+00  0.38240290309E+01  0.39463593137E+01  0.00000000000E+00 0. -1.
</event>
<event>
 8    1  0.4798632E-010  0.9118800E+02  0.7816164E-02  0.1184000E+00
        -11   -1    0    0    0    0  0.00000000000E+00  0.00000000000E+00  0.45593999997E+02  0.45594000000E+02  0.51100000000E-03 0. -1.
         11   -1    0    0    0    0 -0.00000000000E+00 -0.00000000000E+00 -0.45593999997E+02  0.45594000000E+02  0.51100000000E-03 0.  1.
         23    2    1    2    0    0  0.00000000000E+00  0.00000000000E+00 -0.55511151231E-16  0.91188000000E+02  0.91188000000E+02 0.  0.
    9900012    2    3    3    0    0  0.29827874908E+02 -0.31524543965E+02 -0.35255583684E+00  0.47787270866E+02  0.19999999188E+02 0.  0.
         12    1    3    3    0    0 -0.29827874908E+02  0.31524543965E+02  0.35255583684E+00  0.43400729134E+02  0.00000000000E+00 0. -1.
         11    1    4    4    0    0  0.26526518426E+01 -0.29635800663E+01  0.62106498489E+01  0.73750620617E+01  0.51100000000E-03 0. -1.
        -11    1    4    4    0    0  0.12884005528E+02 -0.17800876514E+02 -0.31172773726E+01  0.22194283534E+02  0.51100000000E-03 0.  1.
         12    1    4    4    0    0  0.14291217537E+02 -0.10760087384E+02 -0.34459283131E+01  0.18217925271E+02  0.00000000000E+00 0. -1.
</event>
<event>
 8    1  0.4798632E-010  0.9118800E+02  0.7816164E-02  0.1184000E+00
        -11   -1    0    0    0    0  0.00000000000E+00  0.00000000000E+00  0.45593999997E+02  0.45594000000E+02  0.51100000000E-03 0. -1.
         11   -1    0    0    0    0 -0.00000000000E+00 -0.00000000000E+00 -0.45593999997E+02  0.45594000000E+02  0.51100000000E-03 0.  1.
         23    2    1    2    0    0  0.00000000000E+00  0.17763568394E-14  0.00000000000E+00  0.91188000000E+02  0.91188000000E+02 0.  0.
    9900012    2    3    3    0    0 -0.19083410199E+02 -0.10754915399E+02 -0.37467034749E+02  0.47787269097E+02  0.19999991122E+02 0.  0.
         12    1    3    3    0    0  0.19083410199E+02  0.10754915399E+02  0.37467034749E+02  0.43400730903E+02  0.00000000000E+00 0. -1.
         11    1    4    4    0    0 -0.60998215749E+01 -0.10069747852E+01 -0.33820093761E+01  0.70469716294E+01  0.51100000000E-03 0. -1.
        -11    1    4    4    0    0 -0.12176414762E+02 -0.21673788878E+01 -0.29133381681E+02  0.31649905784E+02  0.51100000000E-03 0.  1.
        -12    1    4    4    0    0 -0.80717386121E+00 -0.75805617255E+01 -0.49516436911E+01  0.90903916836E+01  0.00000000000E+00 0.  1.
</event>
<event>
 8    1  0.4798632E-010  0.9118800E+02  0.7816164E-02  0.1184000E+00
        -11   -1    0    0    0    0  0.00000000000E+00  0.00000000000E+00  0.45593999997E+02  0.45594000000E+02  0.51100000000E-03 0. -1.
         11   -1    0    0    0    0 -0.00000000000E+00 -0.00000000000E+00 -0.45593999997E+02  0.45594000000E+02  0.51100000000E-03 0.  1.
         23    2    1    2    0    0 -0.35527136788E-14 -0.35527136788E-14  0.00000000000E+00  0.91188000000E+02  0.91188000000E+02 0.  0.
    9900012    2    3    3    0    0  0.24217701564E+02  0.22173433178E+02 -0.28380714173E+02  0.47787272530E+02  0.20000006774E+02 0.  0.
         12    1    3    3    0    0 -0.24217701564E+02 -0.22173433178E+02  0.28380714173E+02  0.43400727470E+02  0.00000000000E+00 0. -1.
         11    1    4    4    0    0 -0.39203327717E+00  0.50100487444E+01  0.79706602849E+00  0.50881817014E+01  0.51100000000E-03 0. -1.
        -11    1    4    4    0    0  0.22497226694E+02  0.17301553709E+02 -0.24228588503E+02  0.37316128829E+02  0.51100000000E-03 0.  1.
        -12    1    4    4    0    0  0.21125081470E+01 -0.13816927559E+00 -0.49491916987E+01  0.53829619997E+01  0.00000000000E+00 0.  1.
</event>
<event>
 8    1  0.4798632E-010  0.9118800E+02  0.7816164E-02  0.1184000E+00
        -11   -1    0    0    0    0  0.00000000000E+00  0.00000000000E+00  0.45593999997E+02  0.45594000000E+02  0.51100000000E-03 0. -1.
         11   -1    0    0    0    0 -0.00000000000E+00 -0.00000000000E+00 -0.45593999997E+02  0.45594000000E+02  0.51100000000E-03 0.  1.
         23    2    1    2    0    0  0.00000000000E+00  0.00000000000E+00  0.00000000000E+00  0.91188000000E+02  0.91188000000E+02 0.  0.
    9900012    2    3    3    0    0  0.21756396481E+02 -0.18408084917E+02  0.32732649782E+02  0.47787254155E+02  0.19999922993E+02 0.  0.
        -12    1    3    3    0    0 -0.21756396481E+02  0.18408084917E+02 -0.32732649782E+02  0.43400745845E+02  0.00000000000E+00 0.  1.
         11    1    4    4    0    0  0.43256870946E+01  0.23104400547E+00 -0.81413220851E+00  0.44076934656E+01  0.51100000000E-03 0. -1.
        -11    1    4    4    0    0  0.34936027532E+01  0.40370857239E+00  0.71785780252E+01  0.79937615384E+01  0.51100000000E-03 0.  1.
         12    1    4    4    0    0  0.13937106634E+02 -0.19042837494E+02  0.26368203966E+02  0.35385799151E+02  0.00000000000E+00 0. -1.
</event>
<event>
 8    1  0.4798632E-010  0.9118800E+02  0.7816164E-02  0.1184000E+00
        -11   -1    0    0    0    0  0.00000000000E+00  0.00000000000E+00  0.45593999997E+02  0.45594000000E+02  0.51100000000E-03 0.  1.
         11   -1    0    0    0    0 -0.00000000000E+00 -0.00000000000E+00 -0.45593999997E+02  0.45594000000E+02  0.51100000000E-03 0. -1.
         23    2    1    2    0    0 -0.16653345369E-15  0.00000000000E+00  0.00000000000E+00  0.91188000000E+02  0.91188000000E+02 0.  0.
    9900012    2    3    3    0    0 -0.40919420845E+00  0.40451820028E+02 -0.15719608568E+02  0.47787271008E+02  0.19999999834E+02 0.  0.
         12    1    3    3    0    0  0.40919420845E+00 -0.40451820028E+02  0.15719608568E+02  0.43400728992E+02  0.00000000000E+00 0. -1.
         11    1    4    4    0    0 -0.33124910270E-01  0.11575055355E+02 -0.11747363089E+02  0.16491923586E+02  0.51100000000E-03 0. -1.
        -11    1    4    4    0    0 -0.17464729683E+01  0.26580688835E+02 -0.15957744296E+00  0.26638480662E+02  0.51100000000E-03 0.  1.
         12    1    4    4    0    0  0.13704036701E+01  0.22960758378E+01 -0.38126680356E+01  0.46568667602E+01  0.00000000000E+00 0. -1.
</event>
<event>
 8    1  0.4798632E-010  0.9118800E+02  0.7816164E-02  0.1184000E+00
        -11   -1    0    0    0    0  0.00000000000E+00  0.00000000000E+00  0.45593999997E+02  0.45594000000E+02  0.51100000000E-03 0. -1.
         11   -1    0    0    0    0 -0.00000000000E+00 -0.00000000000E+00 -0.45593999997E+02  0.45594000000E+02  0.51100000000E-03 0.  1.
         23    2    1    2    0    0  0.00000000000E+00  0.00000000000E+00 -0.71054273576E-14  0.91188000000E+02  0.91188000000E+02 0.  0.
    9900012    2    3    3    0    0  0.41918182947E+01  0.50603542236E+01  0.42900452909E+02  0.47787223678E+02  0.19999784038E+02 0.  0.
        -12    1    3    3    0    0 -0.41918182947E+01 -0.50603542236E+01 -0.42900452909E+02  0.43400776322E+02  0.00000000000E+00 0.  1.
         11    1    4    4    0    0  0.29556105288E+00 -0.30537149712E+01  0.33876765104E+02  0.34015404534E+02  0.51100000000E-03 0. -1.
        -11    1    4    4    0    0  0.77573441188E+00  0.27527891970E+01  0.47147088687E-01  0.28603907688E+01  0.51100000000E-03 0.  1.
         12    1    4    4    0    0  0.31205228300E+01  0.53612799977E+01  0.89765407167E+01  0.10911428375E+02  0.00000000000E+00 0. -1.
</event>
<event>
 8    1  0.4798632E-010  0.9118800E+02  0.7816164E-02  0.1184000E+00
        -11   -1    0    0    0    0  0.00000000000E+00  0.00000000000E+00  0.45593999997E+02  0.45594000000E+02  0.51100000000E-03 0. -1.
         11   -1    0    0    0    0 -0.00000000000E+00 -0.00000000000E+00 -0.45593999997E+02  0.45594000000E+02  0.51100000000E-03 0.  1.
         23    2    1    2    0    0  0.00000000000E+00  0.35527136788E-14  0.00000000000E+00  0.91188000000E+02  0.91188000000E+02 0.  0.
    9900012    2    3    3    0    0  0.67041461292E+01 -0.26212980855E+02  0.33934605728E+02  0.47787269516E+02  0.19999993030E+02 0.  0.
        -12    1    3    3    0    0 -0.67041461292E+01  0.26212980855E+02 -0.33934605728E+02  0.43400730484E+02  0.00000000000E+00 0.  1.
         11    1    4    4    0    0 -0.74941029076E+00 -0.18464907468E+02  0.19429186126E+02  0.26814318887E+02  0.51100000000E-03 0. -1.
        -11    1    4    4    0    0  0.57113497192E+01  0.48511327232E+00  0.23642013183E+01  0.62003466545E+01  0.51100000000E-03 0.  1.
        -12    1    4    4    0    0  0.17422067008E+01 -0.82331866592E+01  0.12141218283E+02  0.14772603974E+02  0.00000000000E+00 0.  1.
</event>
<event>
 8    1  0.4798632E-010  0.9118800E+02  0.7816164E-02  0.1184000E+00
        -11   -1    0    0    0    0  0.00000000000E+00  0.00000000000E+00  0.45593999997E+02  0.45594000000E+02  0.51100000000E-03 0. -1.
         11   -1    0    0    0    0 -0.00000000000E+00 -0.00000000000E+00 -0.45593999997E+02  0.45594000000E+02  0.51100000000E-03 0.  1.
         23    2    1    2    0    0  0.00000000000E+00  0.17763568394E-14  0.00000000000E+00  0.91188000000E+02  0.91188000000E+02 0.  0.
    9900012    2    3    3    0    0 -0.22614778514E+02  0.15263700472E+02 -0.33752251109E+02  0.47787271731E+02  0.20000003132E+02 0.  0.
         12    1    3    3    0    0  0.22614778514E+02 -0.15263700472E+02  0.33752251109E+02  0.43400728269E+02  0.00000000000E+00 0. -1.
         11    1    4    4    0    0 -0.17699976171E+01  0.12307810945E+02 -0.94996099844E+01  0.15647929318E+02  0.51100000000E-03 0. -1.
        -11    1    4    4    0    0 -0.11573031865E+01  0.33559379182E+00 -0.17601252807E+01  0.21330764457E+01  0.51100000000E-03 0.  1.
         12    1    4    4    0    0 -0.19687477710E+02  0.26202957346E+01 -0.22492515844E+02  0.30006265968E+02  0.00000000000E+00 0. -1.
</event>
<event>
 8    1  0.4798632E-010  0.9118800E+02  0.7816164E-02  0.1184000E+00
        -11   -1    0    0    0    0  0.00000000000E+00  0.00000000000E+00  0.45593999997E+02  0.45594000000E+02  0.51100000000E-03 0. -1.
         11   -1    0    0    0    0 -0.00000000000E+00 -0.00000000000E+00 -0.45593999997E+02  0.45594000000E+02  0.51100000000E-03 0.  1.
         23    2    1    2    0    0  0.44408920985E-15  0.00000000000E+00  0.00000000000E+00  0.91188000000E+02  0.91188000000E+02 0.  0.
    9900012    2    3    3    0    0 -0.17062328614E+01 -0.37600134362E+02  0.21608843629E+02  0.47787268927E+02  0.19999990347E+02 0.  0.
        -12    1    3    3    0    0  0.17062328614E+01  0.37600134362E+02 -0.21608843629E+02  0.43400731073E+02  0.00000000000E+00 0.  1.
         11    1    4    4    0    0 -0.60627063154E+01 -0.20052589996E+02  0.11087761122E+02  0.23702346306E+02  0.51100000000E-03 0. -1.
        -11    1    4    4    0    0  0.97295961718E+00  0.17076335214E+01  0.18462798961E+01  0.26965556504E+01  0.51100000000E-03 0.  1.
        -12    1    4    4    0    0  0.33835138368E+01 -0.19255177887E+02  0.86748026114E+01  0.21388366971E+02  0.00000000000E+00 0.  1.
</event>
<event>
 8    1  0.4798632E-010  0.9118800E+02  0.7816164E-02  0.1184000E+00
        -11   -1    0    0    0    0  0.00000000000E+00  0.00000000000E+00  0.45593999997E+02  0.45594000000E+02  0.51100000000E-03 0. -1.
         11   -1    0    0    0    0 -0.00000000000E+00 -0.00000000000E+00 -0.45593999997E+02  0.45594000000E+02  0.51100000000E-03 0.  1.
         23    2    1    2    0    0  0.88817841970E-15  0.88817841970E-15  0.00000000000E+00  0.91188000000E+02  0.91188000000E+02 0.  0.
    9900012    2    3    3    0    0  0.67284397634E+01 -0.75390090953E+01 -0.42208010908E+02  0.47787254101E+02  0.19999922747E+02 0.  0.
         12    1    3    3    0    0 -0.67284397634E+01  0.75390090953E+01  0.42208010908E+02  0.43400745899E+02  0.00000000000E+00 0. -1.
         11    1    4    4    0    0  0.10456978956E+02 -0.73064409212E+01 -0.26823127201E+02  0.29702064590E+02  0.51100000000E-03 0. -1.
        -11    1    4    4    0    0  0.12501516608E+01 -0.18791315537E+01 -0.11059878585E+02  0.11287822162E+02  0.51100000000E-03 0.  1.
         12    1    4    4    0    0 -0.49786908529E+01  0.16465633796E+01 -0.43250051215E+01  0.67973673487E+01  0.00000000000E+00 0. -1.
</event>
<event>
 8    1  0.4798632E-010  0.9118800E+02  0.7816164E-02  0.1184000E+00
        -11   -1    0    0    0    0  0.00000000000E+00  0.00000000000E+00  0.45593999997E+02  0.45594000000E+02  0.51100000000E-03 0. -1.
         11   -1    0    0    0    0 -0.00000000000E+00 -0.00000000000E+00 -0.45593999997E+02  0.45594000000E+02  0.51100000000E-03 0.  1.
         23    2    1    2    0    0 -0.35527136788E-14  0.00000000000E+00  0.71054273576E-14  0.91188000000E+02  0.91188000000E+02 0.  0.
    9900012    2    3    3    0    0 -0.20780037497E+02  0.79927094468E+01  0.37254932826E+02  0.47787269792E+02  0.19999994290E+02 0.  0.
        -12    1    3    3    0    0  0.20780037497E+02 -0.79927094468E+01 -0.37254932826E+02  0.43400730208E+02  0.00000000000E+00 0.  1.
         11    1    4    4    0    0 -0.35272420422E+00  0.18705360029E+01  0.63851467198E+01  0.66628385991E+01  0.51100000000E-03 0. -1.
        -11    1    4    4    0    0 -0.15288592322E+02  0.69734145785E+01  0.31672584938E+02  0.35854179714E+02  0.51100000000E-03 0.  1.
        -12    1    4    4    0    0 -0.51387209710E+01 -0.85124113464E+00 -0.80279883131E+00  0.52702514789E+01  0.00000000000E+00 0.  1.
</event>
<event>
 8    1  0.4798632E-010  0.9118800E+02  0.7816164E-02  0.1184000E+00
        -11   -1    0    0    0    0  0.00000000000E+00  0.00000000000E+00  0.45593999997E+02  0.45594000000E+02  0.51100000000E-03 0. -1.
         11   -1    0    0    0    0 -0.00000000000E+00 -0.00000000000E+00 -0.45593999997E+02  0.45594000000E+02  0.51100000000E-03 0.  1.
         23    2    1    2    0    0  0.35527136788E-14  0.00000000000E+00  0.00000000000E+00  0.91188000000E+02  0.91188000000E+02 0.  0.
    9900012    2    3    3    0    0  0.25537357439E+02  0.92253884478E+01 -0.33857924275E+02  0.47787268979E+02  0.19999990581E+02 0.  0.
         12    1    3    3    0    0 -0.25537357439E+02 -0.92253884478E+01  0.33857924275E+02  0.43400731021E+02  0.00000000000E+00 0. -1.
         11    1    4    4    0    0  0.20635583152E+02  0.98025566853E+01 -0.28176812170E+02  0.36274648915E+02  0.51100000000E-03 0.  1.
        -11    1    4    4    0    0  0.39170140963E+01 -0.42425441580E+00  0.15347318117E+01  0.42282849046E+01  0.51100000000E-03 0. -1.
        -12    1    4    4    0    0  0.98476019012E+00 -0.15291382167E+00 -0.72158439171E+01  0.72843351588E+01  0.00000000000E+00 0.  1.
</event>
<event>
 8    1  0.4798632E-010  0.9118800E+02  0.7816164E-02  0.1184000E+00
        -11   -1    0    0    0    0  0.00000000000E+00  0.00000000000E+00  0.45593999997E+02  0.45594000000E+02  0.51100000000E-03 0. -1.
         11   -1    0    0    0    0 -0.00000000000E+00 -0.00000000000E+00 -0.45593999997E+02  0.45594000000E+02  0.51100000000E-03 0.  1.
         23    2    1    2    0    0  0.00000000000E+00  0.35527136788E-14  0.00000000000E+00  0.91188000000E+02  0.91188000000E+02 0.  0.
    9900012    2    3    3    0    0  0.22924314860E+02  0.30574995610E+02 -0.20573496648E+02  0.47787270366E+02  0.19999996908E+02 0.  0.
         12    1    3    3    0    0 -0.22924314860E+02 -0.30574995610E+02  0.20573496648E+02  0.43400729634E+02  0.00000000000E+00 0. -1.
         11    1    4    4    0    0  0.61259877970E+01  0.17461711439E+02 -0.86680598278E+01  0.20434636143E+02  0.51100000000E-03 0. -1.
        -11    1    4    4    0    0  0.81673309409E+01  0.35972172553E+01  0.11949584568E+01  0.90040653404E+01  0.51100000000E-03 0.  1.
        -12    1    4    4    0    0  0.86309961226E+01  0.95160669165E+01 -0.13100395277E+02  0.18348568883E+02  0.00000000000E+00 0.  1.
</event>
<event>
 8    1  0.4798632E-010  0.9118800E+02  0.7816164E-02  0.1184000E+00
        -11   -1    0    0    0    0  0.00000000000E+00  0.00000000000E+00  0.45593999997E+02  0.45594000000E+02  0.51100000000E-03 0. -1.
         11   -1    0    0    0    0 -0.00000000000E+00 -0.00000000000E+00 -0.45593999997E+02  0.45594000000E+02  0.51100000000E-03 0.  1.
         23    2    1    2    0    0  0.00000000000E+00  0.00000000000E+00  0.00000000000E+00  0.91188000000E+02  0.91188000000E+02 0.  0.
    9900012    2    3    3    0    0 -0.33608714825E+02  0.99899140113E+01 -0.25578880196E+02  0.47787271824E+02  0.20000003553E+02 0.  0.
         12    1    3    3    0    0  0.33608714825E+02 -0.99899140113E+01  0.25578880196E+02  0.43400728176E+02  0.00000000000E+00 0. -1.
         11    1    4    4    0    0 -0.53835500852E+01 -0.35321929470E+01 -0.11513608148E+01  0.65409961414E+01  0.51100000000E-03 0. -1.
        -11    1    4    4    0    0 -0.27393944104E+02  0.15223371680E+02 -0.23128125482E+02  0.38949831931E+02  0.51100000000E-03 0.  1.
        -12    1    4    4    0    0 -0.83122063656E+00 -0.17012647216E+01 -0.12993938991E+01  0.22964437517E+01  0.00000000000E+00 0.  1.
</event>
<event>
 8    1  0.5009118E-010  0.9118800E+02  0.7816164E-02  0.1184000E+00
        -11   -1    0    0    0    0  0.00000000000E+00  0.00000000000E+00  0.45593999997E+02  0.45594000000E+02  0.51100000000E-03 0. -1.
         11   -1    0    0    0    0 -0.00000000000E+00 -0.00000000000E+00 -0.45593999997E+02  0.45594000000E+02  0.51100000000E-03 0.  1.
         23    2    1    2    0    0  0.00000000000E+00  0.17763568394E-14  0.00000000000E+00  0.91188000000E+02  0.91188000000E+02 0.  0.
    9900012    2    3    3    0    0 -0.19443024887E+02  0.10730581032E+02 -0.37288690767E+02  0.47787273679E+02  0.20000012014E+02 0.  0.
         12    1    3    3    0    0  0.19443024887E+02 -0.10730581032E+02  0.37288690767E+02  0.43400726321E+02  0.00000000000E+00 0. -1.
         11    1    4    4    0    0  0.28133832100E+01 -0.28692327159E+00 -0.61474464128E+00  0.28940216456E+01  0.51100000000E-03 0. -1.
        -11    1    4    4    0    0 -0.15406670642E+02  0.39167026630E+01 -0.24768877026E+02  0.29431332443E+02  0.51100000000E-03 0.  1.
        -12    1    4    4    0    0 -0.68497374556E+01  0.71008016408E+01 -0.11905069100E+02  0.15461919590E+02  0.00000000000E+00 0.  1.
</event>
<event>
 8    1  0.4798632E-010  0.9118800E+02  0.7816164E-02  0.1184000E+00
        -11   -1    0    0    0    0  0.00000000000E+00  0.00000000000E+00  0.45593999997E+02  0.45594000000E+02  0.51100000000E-03 0. -1.
         11   -1    0    0    0    0 -0.00000000000E+00 -0.00000000000E+00 -0.45593999997E+02  0.45594000000E+02  0.51100000000E-03 0.  1.
         23    2    1    2    0    0  0.00000000000E+00  0.35527136788E-14 -0.71054273576E-14  0.91188000000E+02  0.91188000000E+02 0.  0.
    9900012    2    3    3    0    0 -0.63525575536E+01  0.22002902432E+02 -0.36866502600E+02  0.47787288982E+02  0.20000081784E+02 0.  0.
         12    1    3    3    0    0  0.63525575536E+01 -0.22002902432E+02  0.36866502600E+02  0.43400711018E+02  0.00000000000E+00 0. -1.
         11    1    4    4    0    0  0.51666419175E+00  0.83340574129E+01 -0.66790193936E+01  0.10692649586E+02  0.51100000000E-03 0. -1.
        -11    1    4    4    0    0 -0.28806519950E+01  0.16402829204E+02 -0.24573917474E+02  0.29685491105E+02  0.51100000000E-03 0.  1.
        -12    1    4    4    0    0 -0.39885697503E+01 -0.27339841847E+01 -0.56135657321E+01  0.74091482914E+01  0.00000000000E+00 0.  1.
</event>
<event>
 8    1  0.4798632E-010  0.9118800E+02  0.7816164E-02  0.1184000E+00
        -11   -1    0    0    0    0  0.00000000000E+00  0.00000000000E+00  0.45593999997E+02  0.45594000000E+02  0.51100000000E-03 0.  1.
         11   -1    0    0    0    0 -0.00000000000E+00 -0.00000000000E+00 -0.45593999997E+02  0.45594000000E+02  0.51100000000E-03 0. -1.
         23    2    1    2    0    0  0.44408920985E-15  0.00000000000E+00  0.00000000000E+00  0.91188000000E+02  0.91188000000E+02 0.  0.
    9900012    2    3    3    0    0  0.39294202266E+01  0.32749879853E+02  0.28206883345E+02  0.47787271415E+02  0.20000001690E+02 0.  0.
        -12    1    3    3    0    0 -0.39294202266E+01 -0.32749879853E+02 -0.28206883345E+02  0.43400728585E+02  0.00000000000E+00 0.  1.
         11    1    4    4    0    0 -0.38490831297E+01  0.83363106551E+01  0.23751953078E+00  0.91850929264E+01  0.51100000000E-03 0. -1.
        -11    1    4    4    0    0  0.83625609853E+01  0.22729337693E+02  0.23312933451E+02  0.33616187834E+02  0.51100000000E-03 0.  1.
         12    1    4    4    0    0 -0.58405762911E+00  0.16842315047E+01  0.46564303633E+01  0.49859906542E+01  0.00000000000E+00 0. -1.
</event>
<event>
 8    1  0.4798632E-010  0.9118800E+02  0.7816164E-02  0.1184000E+00
        -11   -1    0    0    0    0  0.00000000000E+00  0.00000000000E+00  0.45593999997E+02  0.45594000000E+02  0.51100000000E-03 0. -1.
         11   -1    0    0    0    0 -0.00000000000E+00 -0.00000000000E+00 -0.45593999997E+02  0.45594000000E+02  0.51100000000E-03 0.  1.
         23    2    1    2    0    0  0.00000000000E+00 -0.88817841970E-15  0.00000000000E+00  0.91188000000E+02  0.91188000000E+02 0.  0.
    9900012    2    3    3    0    0  0.18947260641E+02  0.23349811866E+00  0.39045743185E+02  0.47787271112E+02  0.20000000309E+02 0.  0.
        -12    1    3    3    0    0 -0.18947260641E+02 -0.23349811866E+00 -0.39045743185E+02  0.43400728888E+02  0.00000000000E+00 0.  1.
         11    1    4    4    0    0  0.81940011439E+01  0.37131335860E+01  0.16122653060E+02  0.18462636804E+02  0.51100000000E-03 0. -1.
        -11    1    4    4    0    0  0.11033137353E+02 -0.80398451947E+01  0.18228485945E+02  0.22773821170E+02  0.51100000000E-03 0.  1.
        -12    1    4    4    0    0 -0.27987785564E+00  0.45602097273E+01  0.46946041792E+01  0.65508131381E+01  0.00000000000E+00 0.  1.
</event>
<event>
 8    1  0.4798632E-010  0.9118800E+02  0.7816164E-02  0.1184000E+00
        -11   -1    0    0    0    0  0.00000000000E+00  0.00000000000E+00  0.45593999997E+02  0.45594000000E+02  0.51100000000E-03 0. -1.
         11   -1    0    0    0    0 -0.00000000000E+00 -0.00000000000E+00 -0.45593999997E+02  0.45594000000E+02  0.51100000000E-03 0.  1.
         23    2    1    2    0    0  0.35527136788E-14  0.00000000000E+00  0.35527136788E-14  0.91188000000E+02  0.91188000000E+02 0.  0.
    9900012    2    3    3    0    0 -0.27935234786E+02  0.13219543736E+02 -0.30471119339E+02  0.47787276585E+02  0.20000025264E+02 0.  0.
         12    1    3    3    0    0  0.27935234786E+02 -0.13219543736E+02  0.30471119339E+02  0.43400723415E+02  0.00000000000E+00 0. -1.
         11    1    4    4    0    0  0.94663275334E+00 -0.22814966861E+01 -0.44825843299E+01  0.51180956648E+01  0.51100000000E-03 0. -1.
        -11    1    4    4    0    0 -0.18714801222E+02  0.76872027085E+01 -0.11310633203E+02  0.23179027028E+02  0.51100000000E-03 0.  1.
         12    1    4    4    0    0 -0.10167066317E+02  0.78138377135E+01 -0.14677901807E+02  0.19490153893E+02  0.00000000000E+00 0. -1.
</event>
<event>
 8    1  0.4798632E-010  0.9118800E+02  0.7816164E-02  0.1184000E+00
        -11   -1    0    0    0    0  0.00000000000E+00  0.00000000000E+00  0.45593999997E+02  0.45594000000E+02  0.51100000000E-03 0. -1.
         11   -1    0    0    0    0 -0.00000000000E+00 -0.00000000000E+00 -0.45593999997E+02  0.45594000000E+02  0.51100000000E-03 0.  1.
         23    2    1    2    0    0  0.00000000000E+00  0.00000000000E+00  0.00000000000E+00  0.91188000000E+02  0.91188000000E+02 0.  0.
    9900012    2    3    3    0    0 -0.27917684422E+02  0.57250049227E+01  0.32733018329E+02  0.47787271046E+02  0.20000000006E+02 0.  0.
        -12    1    3    3    0    0  0.27917684422E+02 -0.57250049227E+01 -0.32733018329E+02  0.43400728954E+02  0.00000000000E+00 0.  1.
         11    1    4    4    0    0 -0.13935327685E+02  0.30886835213E+01  0.19419870209E+02  0.24101134470E+02  0.51100000000E-03 0. -1.
        -11    1    4    4    0    0 -0.15210321541E+02 -0.63770735933E+00  0.76681102853E+01  0.17045834320E+02  0.51100000000E-03 0.  1.
        -12    1    4    4    0    0  0.12279648035E+01  0.32740287608E+01  0.56450378349E+01  0.66403022554E+01  0.00000000000E+00 0.  1.
</event>
<event>
 8    1  0.4801224E-010  0.9118800E+02  0.7816164E-02  0.1184000E+00
        -11   -1    0    0    0    0  0.00000000000E+00  0.00000000000E+00  0.45593999997E+02  0.45594000000E+02  0.51100000000E-03 0. -1.
         11   -1    0    0    0    0 -0.00000000000E+00 -0.00000000000E+00 -0.45593999997E+02  0.45594000000E+02  0.51100000000E-03 0.  1.
         23    2    1    2    0    0 -0.35527136788E-14 -0.35527136788E-14  0.00000000000E+00  0.91188000000E+02  0.91188000000E+02 0.  0.
    9900012    2    3    3    0    0  0.25630678167E+02  0.26190847525E+02 -0.23253629414E+02  0.47787269151E+02  0.19999991366E+02 0.  0.
         12    1    3    3    0    0 -0.25630678167E+02 -0.26190847525E+02  0.23253629414E+02  0.43400730849E+02  0.00000000000E+00 0. -1.
         11    1    4    4    0    0  0.23337947214E+01  0.25676651534E+01  0.29669720757E+01  0.45653505562E+01  0.51100000000E-03 0. -1.
        -11    1    4    4    0    0  0.23904474548E+02  0.21958650402E+02 -0.25616332504E+02  0.41349760847E+02  0.51100000000E-03 0.  1.
        -12    1    4    4    0    0 -0.60759110247E+00  0.16645319698E+01 -0.60426898536E+00  0.18721577479E+01  0.00000000000E+00 0.  1.
</event>
<event>
 8    1  0.4798632E-010  0.9118800E+02  0.7816164E-02  0.1184000E+00
        -11   -1    0    0    0    0  0.00000000000E+00  0.00000000000E+00  0.45593999997E+02  0.45594000000E+02  0.51100000000E-03 0. -1.
         11   -1    0    0    0    0 -0.00000000000E+00 -0.00000000000E+00 -0.45593999997E+02  0.45594000000E+02  0.51100000000E-03 0.  1.
         23    2    1    2    0    0 -0.17763568394E-14 -0.88817841970E-15  0.00000000000E+00  0.91188000000E+02  0.91188000000E+02 0.  0.
    9900012    2    3    3    0    0 -0.14049245182E+02 -0.53279222272E+01  0.40716721088E+02  0.47787315425E+02  0.20000202349E+02 0.  0.
        -12    1    3    3    0    0  0.14049245182E+02  0.53279222272E+01 -0.40716721088E+02  0.43400684575E+02  0.00000000000E+00 0.  1.
         11    1    4    4    0    0 -0.19461207976E+01  0.21981684211E+01  0.23392275310E+02  0.23575790019E+02  0.51100000000E-03 0. -1.
        -11    1    4    4    0    0 -0.93093086325E+01 -0.81330400369E+01  0.17408854749E+02  0.21351294841E+02  0.51100000000E-03 0.  1.
         12    1    4    4    0    0 -0.27938157517E+01  0.60694938861E+00 -0.84408971005E-01  0.28602305657E+01  0.00000000000E+00 0. -1.
</event>
<event>
 8    1  0.4798632E-010  0.9118800E+02  0.7816164E-02  0.1184000E+00
        -11   -1    0    0    0    0  0.00000000000E+00  0.00000000000E+00  0.45593999997E+02  0.45594000000E+02  0.51100000000E-03 0. -1.
         11   -1    0    0    0    0 -0.00000000000E+00 -0.00000000000E+00 -0.45593999997E+02  0.45594000000E+02  0.51100000000E-03 0.  1.
         23    2    1    2    0    0  0.35527136788E-14 -0.35527136788E-14  0.35527136788E-14  0.91188000000E+02  0.91188000000E+02 0.  0.
    9900012    2    3    3    0    0 -0.13903052281E+02  0.27240357596E+02 -0.30794344254E+02  0.47787267486E+02  0.19999983775E+02 0.  0.
         12    1    3    3    0    0  0.13903052281E+02 -0.27240357596E+02  0.30794344254E+02  0.43400732514E+02  0.00000000000E+00 0. -1.
         11    1    4    4    0    0 -0.34958840132E+01  0.11357511399E+02 -0.25863020420E+01  0.12161547136E+02  0.51100000000E-03 0. -1.
        -11    1    4    4    0    0  0.39449707532E+00 -0.65652465796E+00  0.39690983024E+00  0.86266461815E+00  0.51100000000E-03 0.  1.
        -12    1    4    4    0    0 -0.10801665343E+02  0.16539370855E+02 -0.28604952043E+02  0.34763055732E+02  0.00000000000E+00 0.  1.
</event>
<event>
 8    1  0.4798632E-010  0.9118800E+02  0.7816164E-02  0.1184000E+00
        -11   -1    0    0    0    0  0.00000000000E+00  0.00000000000E+00  0.45593999997E+02  0.45594000000E+02  0.51100000000E-03 0. -1.
         11   -1    0    0    0    0 -0.00000000000E+00 -0.00000000000E+00 -0.45593999997E+02  0.45594000000E+02  0.51100000000E-03 0.  1.
         23    2    1    2    0    0  0.00000000000E+00 -0.44408920985E-15  0.00000000000E+00  0.91188000000E+02  0.91188000000E+02 0.  0.
    9900012    2    3    3    0    0  0.35188467487E+02  0.35436224888E+01 -0.25156270875E+02  0.47787268799E+02  0.19999989763E+02 0.  0.
         12    1    3    3    0    0 -0.35188467487E+02 -0.35436224888E+01  0.25156270875E+02  0.43400731201E+02  0.00000000000E+00 0. -1.
         11    1    4    4    0    0  0.13930403945E+02 -0.79548401410E+01 -0.10036670212E+02  0.18922747817E+02  0.51100000000E-03 0. -1.
        -11    1    4    4    0    0  0.11404547820E+02  0.58404426648E+01 -0.10625548922E+02  0.16645623198E+02  0.51100000000E-03 0.  1.
        -12    1    4    4    0    0  0.98535157219E+01  0.56580199650E+01 -0.44940517408E+01  0.12218897784E+02  0.00000000000E+00 0.  1.
</event>
<event>
 8    1  0.4798632E-010  0.9118800E+02  0.7816164E-02  0.1184000E+00
        -11   -1    0    0    0    0  0.00000000000E+00  0.00000000000E+00  0.45593999997E+02  0.45594000000E+02  0.51100000000E-03 0. -1.
         11   -1    0    0    0    0 -0.00000000000E+00 -0.00000000000E+00 -0.45593999997E+02  0.45594000000E+02  0.51100000000E-03 0.  1.
         23    2    1    2    0    0  0.00000000000E+00  0.00000000000E+00  0.00000000000E+00  0.91188000000E+02  0.91188000000E+02 0.  0.
    9900012    2    3    3    0    0  0.80293438940E+01  0.69346869848E+01 -0.42083998693E+02  0.47787271977E+02  0.20000004253E+02 0.  0.
         12    1    3    3    0    0 -0.80293438940E+01 -0.69346869848E+01  0.42083998693E+02  0.43400728023E+02  0.00000000000E+00 0. -1.
         11    1    4    4    0    0  0.44039843049E+01  0.47327617763E+00  0.45786320956E+00  0.44529436419E+01  0.51100000000E-03 0. -1.
        -11    1    4    4    0    0  0.53355903351E+00  0.36819488836E+01 -0.26615430648E+02  0.26874199181E+02  0.51100000000E-03 0.  1.
         12    1    4    4    0    0  0.30918005556E+01  0.27794619236E+01 -0.15926431255E+02  0.16460129154E+02  0.00000000000E+00 0. -1.
</event>
<event>
 8    1  0.4798632E-010  0.9118800E+02  0.7816164E-02  0.1184000E+00
        -11   -1    0    0    0    0  0.00000000000E+00  0.00000000000E+00  0.45593999997E+02  0.45594000000E+02  0.51100000000E-03 0.  1.
         11   -1    0    0    0    0 -0.00000000000E+00 -0.00000000000E+00 -0.45593999997E+02  0.45594000000E+02  0.51100000000E-03 0. -1.
         23    2    1    2    0    0  0.00000000000E+00  0.00000000000E+00 -0.44408920985E-15  0.91188000000E+02  0.91188000000E+02 0.  0.
    9900012    2    3    3    0    0 -0.39892192669E+02  0.16626806469E+02 -0.39731336281E+01  0.47787268207E+02  0.19999987065E+02 0.  0.
         12    1    3    3    0    0  0.39892192669E+02 -0.16626806469E+02  0.39731336281E+01  0.43400731793E+02  0.00000000000E+00 0. -1.
         11    1    4    4    0    0 -0.14326292355E+02 -0.41785653545E+00 -0.66053641093E+01  0.15781257618E+02  0.51100000000E-03 0. -1.
        -11    1    4    4    0    0 -0.18230407634E+02  0.14353360085E+02 -0.13385879158E+01  0.23241310766E+02  0.51100000000E-03 0.  1.
         12    1    4    4    0    0 -0.73354926800E+01  0.26913029200E+01  0.39708183970E+01  0.87646998242E+01  0.00000000000E+00 0. -1.
</event>
<event>
 8    1  0.4798632E-010  0.9118800E+02  0.7816164E-02  0.1184000E+00
        -11   -1    0    0    0    0  0.00000000000E+00  0.00000000000E+00  0.45593999997E+02  0.45594000000E+02  0.51100000000E-03 0. -1.
         11   -1    0    0    0    0 -0.00000000000E+00 -0.00000000000E+00 -0.45593999997E+02  0.45594000000E+02  0.51100000000E-03 0.  1.
         23    2    1    2    0    0  0.00000000000E+00 -0.35527136788E-14  0.00000000000E+00  0.91188000000E+02  0.91188000000E+02 0.  0.
    9900012    2    3    3    0    0 -0.16766228817E+02  0.23150075138E+02  0.32658710466E+02  0.47787265249E+02  0.19999973575E+02 0.  0.
        -12    1    3    3    0    0  0.16766228817E+02 -0.23150075138E+02 -0.32658710466E+02  0.43400734751E+02  0.00000000000E+00 0.  1.
         11    1    4    4    0    0 -0.11978296668E+02  0.40286487081E+01  0.17229958178E+02  0.21367757499E+02  0.51100000000E-03 0. -1.
        -11    1    4    4    0    0 -0.44789474960E+01  0.77080409491E+01  0.26877857663E+01  0.93112329222E+01  0.51100000000E-03 0.  1.
         12    1    4    4    0    0 -0.30898465335E+00  0.11413385481E+02  0.12740966522E+02  0.17108274827E+02  0.00000000000E+00 0. -1.
</event>
<event>
 8    1  0.4798632E-010  0.9118800E+02  0.7816164E-02  0.1184000E+00
        -11   -1    0    0    0    0  0.00000000000E+00  0.00000000000E+00  0.45593999997E+02  0.45594000000E+02  0.51100000000E-03 0. -1.
         11   -1    0    0    0    0 -0.00000000000E+00 -0.00000000000E+00 -0.45593999997E+02  0.45594000000E+02  0.51100000000E-03 0.  1.
         23    2    1    2    0    0 -0.17763568394E-14  0.00000000000E+00  0.71054273576E-14  0.91188000000E+02  0.91188000000E+02 0.  0.
    9900012    2    3    3    0    0 -0.94739437363E+01 -0.84542921791E+01  0.41501704912E+02  0.47787283683E+02  0.20000057626E+02 0.  0.
        -12    1    3    3    0    0  0.94739437363E+01  0.84542921791E+01 -0.41501704912E+02  0.43400716317E+02  0.00000000000E+00 0.  1.
         11    1    4    4    0    0 -0.25758725841E+01 -0.40622635186E+01  0.34993437552E+02  0.35322482591E+02  0.51100000000E-03 0. -1.
        -11    1    4    4    0    0  0.13047696608E+00 -0.26186005790E+00 -0.12061465814E+01  0.12411223813E+01  0.51100000000E-03 0.  1.
         12    1    4    4    0    0 -0.70285481183E+01 -0.41301686026E+01  0.77144139420E+01  0.11223678711E+02  0.00000000000E+00 0. -1.
</event>
<event>
 8    1  0.4798632E-010  0.9118800E+02  0.7816164E-02  0.1184000E+00
        -11   -1    0    0    0    0  0.00000000000E+00  0.00000000000E+00  0.45593999997E+02  0.45594000000E+02  0.51100000000E-03 0. -1.
         11   -1    0    0    0    0 -0.00000000000E+00 -0.00000000000E+00 -0.45593999997E+02  0.45594000000E+02  0.51100000000E-03 0.  1.
         23    2    1    2    0    0  0.22204460493E-14  0.88817841970E-15  0.00000000000E+00  0.91188000000E+02  0.91188000000E+02 0.  0.
    9900012    2    3    3    0    0  0.39594641355E+01  0.65448209140E+01  0.42721312539E+02  0.47787279014E+02  0.20000036337E+02 0.  0.
        -12    1    3    3    0    0 -0.39594641355E+01 -0.65448209140E+01 -0.42721312539E+02  0.43400720986E+02  0.00000000000E+00 0.  1.
         11    1    4    4    0    0 -0.58972537858E+01 -0.15696909765E+01  0.13663311980E+02  0.14964211523E+02  0.51100000000E-03 0. -1.
        -11    1    4    4    0    0  0.37079284391E+01  0.73300786924E+00  0.23765520047E+01  0.44647545888E+01  0.51100000000E-03 0.  1.
         12    1    4    4    0    0  0.61487894822E+01  0.73815040213E+01  0.26681448554E+02  0.28358312902E+02  0.00000000000E+00 0. -1.
</event>
<event>
 8    1  0.4798632E-010  0.9118800E+02  0.7816164E-02  0.1184000E+00
        -11   -1    0    0    0    0  0.00000000000E+00  0.00000000000E+00  0.45593999997E+02  0.45594000000E+02  0.51100000000E-03 0. -1.
         11   -1    0    0    0    0 -0.00000000000E+00 -0.00000000000E+00 -0.45593999997E+02  0.45594000000E+02  0.51100000000E-03 0.  1.
         23    2    1    2    0    0  0.00000000000E+00 -0.17763568394E-14  0.71054273576E-14  0.91188000000E+02  0.91188000000E+02 0.  0.
    9900012    2    3    3    0    0  0.16752871382E+02 -0.10981607975E+02  0.38501551740E+02  0.47787263835E+02  0.19999967131E+02 0.  0.
        -12    1    3    3    0    0 -0.16752871382E+02  0.10981607975E+02 -0.38501551740E+02  0.43400736165E+02  0.00000000000E+00 0.  1.
         11    1    4    4    0    0  0.18788082518E+01 -0.69896501325E+01  0.14698426336E+02  0.16383798902E+02  0.51100000000E-03 0.  1.
        -11    1    4    4    0    0  0.15524478406E+02  0.61334346416E+00  0.15880780660E+02  0.22216768771E+02  0.51100000000E-03 0. -1.
         12    1    4    4    0    0 -0.65041527592E+00 -0.46053013064E+01  0.79223447432E+01  0.91866961626E+01  0.00000000000E+00 0. -1.
</event>
<event>
 8    1  0.4798632E-010  0.9118800E+02  0.7816164E-02  0.1184000E+00
        -11   -1    0    0    0    0  0.00000000000E+00  0.00000000000E+00  0.45593999997E+02  0.45594000000E+02  0.51100000000E-03 0. -1.
         11   -1    0    0    0    0 -0.00000000000E+00 -0.00000000000E+00 -0.45593999997E+02  0.45594000000E+02  0.51100000000E-03 0.  1.
         23    2    1    2    0    0  0.00000000000E+00  0.88817841970E-15  0.00000000000E+00  0.91188000000E+02  0.91188000000E+02 0.  0.
    9900012    2    3    3    0    0 -0.19473334538E+02  0.76587725728E+01  0.38023095808E+02  0.47787269935E+02  0.19999994942E+02 0.  0.
        -12    1    3    3    0    0  0.19473334538E+02 -0.76587725728E+01 -0.38023095808E+02  0.43400730065E+02  0.00000000000E+00 0.  1.
         11    1    4    4    0    0 -0.13476068301E+02  0.12800027014E+01  0.36414167874E+02  0.38848866727E+02  0.51100000000E-03 0. -1.
        -11    1    4    4    0    0 -0.20999220497E+01  0.26403408258E+01  0.33861853264E+00  0.33905361026E+01  0.51100000000E-03 0.  1.
         12    1    4    4    0    0 -0.38973441870E+01  0.37384290457E+01  0.12703094011E+01  0.55478671051E+01  0.00000000000E+00 0. -1.
</event>
<event>
 8    1  0.4798632E-010  0.9118800E+02  0.7816164E-02  0.1184000E+00
        -11   -1    0    0    0    0  0.00000000000E+00  0.00000000000E+00  0.45593999997E+02  0.45594000000E+02  0.51100000000E-03 0. -1.
         11   -1    0    0    0    0 -0.00000000000E+00 -0.00000000000E+00 -0.45593999997E+02  0.45594000000E+02  0.51100000000E-03 0.  1.
         23    2    1    2    0    0  0.00000000000E+00  0.00000000000E+00 -0.35527136788E-14  0.91188000000E+02  0.91188000000E+02 0.  0.
    9900012    2    3    3    0    0  0.38423700006E+02 -0.55598429167E+01  0.19399252386E+02  0.47787267650E+02  0.19999984521E+02 0.  0.
        -12    1    3    3    0    0 -0.38423700006E+02  0.55598429167E+01 -0.19399252386E+02  0.43400732350E+02  0.00000000000E+00 0.  1.
         11    1    4    4    0    0  0.24256584203E+02  0.18915255157E+01  0.19888863007E+02  0.31424936244E+02  0.51100000000E-03 0. -1.
        -11    1    4    4    0    0  0.50456834306E+01 -0.24173863827E+01  0.14157114785E+01  0.57712145565E+01  0.51100000000E-03 0.  1.
         12    1    4    4    0    0  0.91214323731E+01 -0.50339820497E+01 -0.19053220998E+01  0.10591116849E+02  0.00000000000E+00 0. -1.
</event>
<event>
 8    1  0.4798632E-010  0.9118800E+02  0.7816164E-02  0.1184000E+00
        -11   -1    0    0    0    0  0.00000000000E+00  0.00000000000E+00  0.45593999997E+02  0.45594000000E+02  0.51100000000E-03 0. -1.
         11   -1    0    0    0    0 -0.00000000000E+00 -0.00000000000E+00 -0.45593999997E+02  0.45594000000E+02  0.51100000000E-03 0.  1.
         23    2    1    2    0    0  0.00000000000E+00  0.17763568394E-14 -0.71054273576E-14  0.91188000000E+02  0.91188000000E+02 0.  0.
    9900012    2    3    3    0    0 -0.22788057865E+02  0.83965538128E+01 -0.35969797571E+02  0.47787262282E+02  0.19999960048E+02 0.  0.
         12    1    3    3    0    0  0.22788057865E+02 -0.83965538128E+01  0.35969797571E+02  0.43400737718E+02  0.00000000000E+00 0. -1.
         11    1    4    4    0    0  0.38998641983E+00 -0.23031713274E+01  0.92490259482E+00  0.25123957972E+01  0.51100000000E-03 0. -1.
        -11    1    4    4    0    0 -0.10280676805E+02  0.80896919302E+01 -0.18518184088E+02  0.22672859839E+02  0.51100000000E-03 0.  1.
         12    1    4    4    0    0 -0.12897367480E+02  0.26100332100E+01 -0.18376516077E+02  0.22602006646E+02  0.00000000000E+00 0. -1.
</event>
<event>
 8    1  0.4798632E-010  0.9118800E+02  0.7816164E-02  0.1184000E+00
        -11   -1    0    0    0    0  0.00000000000E+00  0.00000000000E+00  0.45593999997E+02  0.45594000000E+02  0.51100000000E-03 0. -1.
         11   -1    0    0    0    0 -0.00000000000E+00 -0.00000000000E+00 -0.45593999997E+02  0.45594000000E+02  0.51100000000E-03 0.  1.
         23    2    1    2    0    0  0.26645352591E-14 -0.88817841970E-15  0.71054273576E-14  0.91188000000E+02  0.91188000000E+02 0.  0.
    9900012    2    3    3    0    0 -0.79039413743E+01  0.70000324711E+01 -0.42096919708E+02  0.47787269675E+02  0.19999993754E+02 0.  0.
         12    1    3    3    0    0  0.79039413743E+01 -0.70000324711E+01  0.42096919708E+02  0.43400730325E+02  0.00000000000E+00 0. -1.
         11    1    4    4    0    0 -0.11867402619E+00  0.50703467953E+01 -0.14170448247E+02  0.15050717721E+02  0.51100000000E-03 0. -1.
        -11    1    4    4    0    0  0.39954999521E+01  0.28732134450E+01 -0.54560312299E+01  0.73476290333E+01  0.51100000000E-03 0.  1.
        -12    1    4    4    0    0 -0.11780767300E+02 -0.94352776917E+00 -0.22470440232E+02  0.25388922920E+02  0.00000000000E+00 0.  1.
</event>
<event>
 8    1  0.4798632E-010  0.9118800E+02  0.7816164E-02  0.1184000E+00
        -11   -1    0    0    0    0  0.00000000000E+00  0.00000000000E+00  0.45593999997E+02  0.45594000000E+02  0.51100000000E-03 0. -1.
         11   -1    0    0    0    0 -0.00000000000E+00 -0.00000000000E+00 -0.45593999997E+02  0.45594000000E+02  0.51100000000E-03 0.  1.
         23    2    1    2    0    0  0.00000000000E+00  0.00000000000E+00  0.00000000000E+00  0.91188000000E+02  0.91188000000E+02 0.  0.
    9900012    2    3    3    0    0 -0.28773119302E+01  0.61906415840E+01 -0.42860475796E+02  0.47787270137E+02  0.19999995861E+02 0.  0.
         12    1    3    3    0    0  0.28773119302E+01 -0.61906415840E+01  0.42860475796E+02  0.43400729863E+02  0.00000000000E+00 0. -1.
         11    1    4    4    0    0  0.20918271627E+01  0.11932295202E+02 -0.27252499866E+02  0.29823718059E+02  0.51100000000E-03 0. -1.
        -11    1    4    4    0    0 -0.56027329829E+01 -0.39205262519E+01 -0.13309305018E+02  0.14963246415E+02  0.51100000000E-03 0.  1.
         12    1    4    4    0    0  0.63359388997E+00 -0.18211273662E+01 -0.22986709126E+01  0.30003056621E+01  0.00000000000E+00 0. -1.
</event>
<event>
 8    1  0.4798632E-010  0.9118800E+02  0.7816164E-02  0.1184000E+00
        -11   -1    0    0    0    0  0.00000000000E+00  0.00000000000E+00  0.45593999997E+02  0.45594000000E+02  0.51100000000E-03 0. -1.
         11   -1    0    0    0    0 -0.00000000000E+00 -0.00000000000E+00 -0.45593999997E+02  0.45594000000E+02  0.51100000000E-03 0.  1.
         23    2    1    2    0    0  0.35527136788E-14  0.00000000000E+00  0.00000000000E+00  0.91188000000E+02  0.91188000000E+02 0.  0.
    9900012    2    3    3    0    0 -0.20752224261E+02 -0.11044019629E+02 -0.36482846308E+02  0.47787271250E+02  0.20000000935E+02 0.  0.
         12    1    3    3    0    0  0.20752224261E+02  0.11044019629E+02  0.36482846308E+02  0.43400728750E+02  0.00000000000E+00 0. -1.
         11    1    4    4    0    0 -0.33703663692E+01 -0.74663375592E+01 -0.22624109482E+02  0.24061502366E+02  0.51100000000E-03 0. -1.
        -11    1    4    4    0    0 -0.14459771523E+02 -0.55851987384E+01 -0.12557782064E+02  0.19949369115E+02  0.51100000000E-03 0.  1.
         12    1    4    4    0    0 -0.29220863685E+01  0.20075166684E+01 -0.13009547621E+01  0.37763997685E+01  0.00000000000E+00 0. -1.
</event>
<event>
 8    1  0.4798632E-010  0.9118800E+02  0.7816164E-02  0.1184000E+00
        -11   -1    0    0    0    0  0.00000000000E+00  0.00000000000E+00  0.45593999997E+02  0.45594000000E+02  0.51100000000E-03 0. -1.
         11   -1    0    0    0    0 -0.00000000000E+00 -0.00000000000E+00 -0.45593999997E+02  0.45594000000E+02  0.51100000000E-03 0.  1.
         23    2    1    2    0    0 -0.35527136788E-14  0.00000000000E+00  0.00000000000E+00  0.91188000000E+02  0.91188000000E+02 0.  0.
    9900012    2    3    3    0    0  0.16812357498E+02  0.25520810232E+02  0.30816494121E+02  0.47787269252E+02  0.19999991829E+02 0.  0.
        -12    1    3    3    0    0 -0.16812357498E+02 -0.25520810232E+02 -0.30816494121E+02  0.43400730748E+02  0.00000000000E+00 0.  1.
         11    1    4    4    0    0  0.11069220181E+02  0.17001061482E+02  0.64634241926E+01  0.21291772577E+02  0.51100000000E-03 0. -1.
        -11    1    4    4    0    0  0.31911024087E+01  0.56621139202E+01  0.17083665971E+02  0.18278246959E+02  0.51100000000E-03 0.  1.
         12    1    4    4    0    0  0.25520349078E+01  0.28576348293E+01  0.72694039582E+01  0.82172497160E+01  0.00000000000E+00 0. -1.
</event>
<event>
 8    1  0.4798632E-010  0.9118800E+02  0.7816164E-02  0.1184000E+00
        -11   -1    0    0    0    0  0.00000000000E+00  0.00000000000E+00  0.45593999997E+02  0.45594000000E+02  0.51100000000E-03 0. -1.
         11   -1    0    0    0    0 -0.00000000000E+00 -0.00000000000E+00 -0.45593999997E+02  0.45594000000E+02  0.51100000000E-03 0.  1.
         23    2    1    2    0    0  0.35527136788E-14  0.00000000000E+00  0.00000000000E+00  0.91188000000E+02  0.91188000000E+02 0.  0.
    9900012    2    3    3    0    0 -0.30169203233E+02 -0.14403717391E+02  0.27676238692E+02  0.47787284723E+02  0.20000062365E+02 0.  0.
        -12    1    3    3    0    0  0.30169203233E+02  0.14403717391E+02 -0.27676238692E+02  0.43400715277E+02  0.00000000000E+00 0.  1.
         11    1    4    4    0    0 -0.10527969491E+02 -0.13378773955E+02  0.12737881741E+02  0.21262252131E+02  0.51100000000E-03 0. -1.
        -11    1    4    4    0    0 -0.17995854270E+02 -0.11320674108E+01  0.16360608675E+02  0.24347522748E+02  0.51100000000E-03 0.  1.
        -12    1    4    4    0    0 -0.16453794725E+01  0.10712397461E+00 -0.14222517237E+01  0.21775098439E+01  0.00000000000E+00 0.  1.
</event>
<event>
 8    1  0.4798632E-010  0.9118800E+02  0.7816164E-02  0.1184000E+00
        -11   -1    0    0    0    0  0.00000000000E+00  0.00000000000E+00  0.45593999997E+02  0.45594000000E+02  0.51100000000E-03 0. -1.
         11   -1    0    0    0    0 -0.00000000000E+00 -0.00000000000E+00 -0.45593999997E+02  0.45594000000E+02  0.51100000000E-03 0.  1.
         23    2    1    2    0    0  0.00000000000E+00  0.35527136788E-14  0.35527136788E-14  0.91188000000E+02  0.91188000000E+02 0.  0.
    9900012    2    3    3    0    0 -0.31488562695E+01 -0.29442418172E+02 -0.31730932563E+02  0.47787269995E+02  0.19999995215E+02 0.  0.
         12    1    3    3    0    0  0.31488562695E+01  0.29442418172E+02  0.31730932563E+02  0.43400730005E+02  0.00000000000E+00 0. -1.
         11    1    4    4    0    0  0.32998512427E+01 -0.38101993593E+01 -0.36158915323E+01  0.62033304938E+01  0.51100000000E-03 0. -1.
        -11    1    4    4    0    0  0.29607161561E+01 -0.24738404328E+01 -0.99847524662E+01  0.10704251899E+02  0.51100000000E-03 0.  1.
        -12    1    4    4    0    0 -0.94094236682E+01 -0.23158378380E+02 -0.18130288565E+02  0.30879687602E+02  0.00000000000E+00 0.  1.
</event>
<event>
 8    1  0.4798632E-010  0.9118800E+02  0.7816164E-02  0.1184000E+00
        -11   -1    0    0    0    0  0.00000000000E+00  0.00000000000E+00  0.45593999997E+02  0.45594000000E+02  0.51100000000E-03 0. -1.
         11   -1    0    0    0    0 -0.00000000000E+00 -0.00000000000E+00 -0.45593999997E+02  0.45594000000E+02  0.51100000000E-03 0.  1.
         23    2    1    2    0    0 -0.44408920985E-15 -0.35527136788E-14  0.00000000000E+00  0.91188000000E+02  0.91188000000E+02 0.  0.
    9900012    2    3    3    0    0  0.39607715499E+01 -0.28950079077E+02  0.32090946541E+02  0.47787266829E+02  0.19999980781E+02 0.  0.
        -12    1    3    3    0    0 -0.39607715499E+01  0.28950079077E+02 -0.32090946541E+02  0.43400733171E+02  0.00000000000E+00 0.  1.
         11    1    4    4    0    0 -0.92150365428E+00 -0.18632290353E+02  0.14917868571E+02  0.23886276725E+02  0.51100000000E-03 0. -1.
        -11    1    4    4    0    0  0.17471074182E+01  0.26246894939E+01  0.21019464926E+01  0.37894008219E+01  0.51100000000E-03 0.  1.
        -12    1    4    4    0    0  0.31351677860E+01 -0.12942478218E+02  0.15071131477E+02  0.20111589283E+02  0.00000000000E+00 0.  1.
</event>
<event>
 8    1  0.4798632E-010  0.9118800E+02  0.7816164E-02  0.1184000E+00
        -11   -1    0    0    0    0  0.00000000000E+00  0.00000000000E+00  0.45593999997E+02  0.45594000000E+02  0.51100000000E-03 0. -1.
         11   -1    0    0    0    0 -0.00000000000E+00 -0.00000000000E+00 -0.45593999997E+02  0.45594000000E+02  0.51100000000E-03 0.  1.
         23    2    1    2    0    0  0.00000000000E+00  0.88817841970E-15  0.00000000000E+00  0.91188000000E+02  0.91188000000E+02 0.  0.
    9900012    2    3    3    0    0 -0.12796152046E+02  0.40211724071E+01  0.41276045408E+02  0.47787271213E+02  0.20000000769E+02 0.  0.
        -12    1    3    3    0    0  0.12796152046E+02 -0.40211724071E+01 -0.41276045408E+02  0.43400728787E+02  0.00000000000E+00 0.  1.
         11    1    4    4    0    0 -0.10375549609E+02 -0.10138048357E+01  0.11964491990E+02  0.15869117769E+02  0.51100000000E-03 0. -1.
        -11    1    4    4    0    0  0.55017289301E+00  0.82355161596E+01  0.18480729141E+02  0.20240152333E+02  0.51100000000E-03 0.  1.
        -12    1    4    4    0    0 -0.29707753303E+01 -0.32005389168E+01  0.10830824277E+02  0.11678001110E+02  0.00000000000E+00 0.  1.
</event>
<event>
 8    1  0.4798632E-010  0.9118800E+02  0.7816164E-02  0.1184000E+00
        -11   -1    0    0    0    0  0.00000000000E+00  0.00000000000E+00  0.45593999997E+02  0.45594000000E+02  0.51100000000E-03 0. -1.
         11   -1    0    0    0    0 -0.00000000000E+00 -0.00000000000E+00 -0.45593999997E+02  0.45594000000E+02  0.51100000000E-03 0.  1.
         23    2    1    2    0    0  0.00000000000E+00  0.00000000000E+00  0.00000000000E+00  0.91188000000E+02  0.91188000000E+02 0.  0.
    9900012    2    3    3    0    0 -0.50802727609E+01 -0.25515182382E+02  0.34738873041E+02  0.47787274160E+02  0.20000014204E+02 0.  0.
        -12    1    3    3    0    0  0.50802727609E+01  0.25515182382E+02 -0.34738873041E+02  0.43400725840E+02  0.00000000000E+00 0.  1.
         11    1    4    4    0    0  0.34271065272E+01 -0.16950598856E+02  0.10720785955E+02  0.20347066434E+02  0.51100000000E-03 0. -1.
        -11    1    4    4    0    0  0.89450981594E-01  0.60560907684E+00  0.19447489842E+01  0.20388263057E+01  0.51100000000E-03 0.  1.
         12    1    4    4    0    0 -0.85968302698E+01 -0.91701926021E+01  0.22073338102E+02  0.25401381420E+02  0.00000000000E+00 0. -1.
</event>
<event>
 8    1  0.4798632E-010  0.9118800E+02  0.7816164E-02  0.1184000E+00
        -11   -1    0    0    0    0  0.00000000000E+00  0.00000000000E+00  0.45593999997E+02  0.45594000000E+02  0.51100000000E-03 0.  1.
         11   -1    0    0    0    0 -0.00000000000E+00 -0.00000000000E+00 -0.45593999997E+02  0.45594000000E+02  0.51100000000E-03 0. -1.
         23    2    1    2    0    0  0.00000000000E+00  0.71054273576E-14  0.00000000000E+00  0.91188000000E+02  0.91188000000E+02 0.  0.
    9900012    2    3    3    0    0  0.17437789559E+02 -0.38530191513E+02 -0.97453072457E+01  0.47787272172E+02  0.20000005140E+02 0.  0.
        -12    1    3    3    0    0 -0.17437789559E+02  0.38530191513E+02  0.97453072457E+01  0.43400727828E+02  0.00000000000E+00 0.  1.
         11    1    4    4    0    0  0.34496905823E+01  0.10669449677E+01 -0.24852325961E+00  0.36194613894E+01  0.51100000000E-03 0. -1.
        -11    1    4    4    0    0  0.59448495286E+01 -0.17830229542E+02 -0.92801171881E+01  0.20961366766E+02  0.51100000000E-03 0.  1.
         12    1    4    4    0    0  0.80432494479E+01 -0.21766906939E+02 -0.21666679801E+00  0.23206444016E+02  0.00000000000E+00 0. -1.
</event>
<event>
 8    1  0.4798632E-010  0.9118800E+02  0.7816164E-02  0.1184000E+00
        -11   -1    0    0    0    0  0.00000000000E+00  0.00000000000E+00  0.45593999997E+02  0.45594000000E+02  0.51100000000E-03 0. -1.
         11   -1    0    0    0    0 -0.00000000000E+00 -0.00000000000E+00 -0.45593999997E+02  0.45594000000E+02  0.51100000000E-03 0.  1.
         23    2    1    2    0    0  0.00000000000E+00  0.00000000000E+00  0.00000000000E+00  0.91188000000E+02  0.91188000000E+02 0.  0.
    9900012    2    3    3    0    0  0.11642014253E+02  0.35156487762E+02 -0.22629808255E+02  0.47787270176E+02  0.19999996040E+02 0.  0.
         12    1    3    3    0    0 -0.11642014253E+02 -0.35156487762E+02  0.22629808255E+02  0.43400729824E+02  0.00000000000E+00 0. -1.
         11    1    4    4    0    0  0.38277604611E+00  0.23253256942E+02 -0.13736816493E+02  0.27010379552E+02  0.51100000000E-03 0. -1.
        -11    1    4    4    0    0  0.11965570836E+02  0.12424518814E+02 -0.68618775632E+01  0.18564183719E+02  0.51100000000E-03 0.  1.
        -12    1    4    4    0    0 -0.70633262962E+00 -0.52128799459E+00 -0.20311141989E+01  0.22127069047E+01  0.00000000000E+00 0.  1.
</event>
<event>
 8    1  0.4798632E-010  0.9118800E+02  0.7816164E-02  0.1184000E+00
        -11   -1    0    0    0    0  0.00000000000E+00  0.00000000000E+00  0.45593999997E+02  0.45594000000E+02  0.51100000000E-03 0. -1.
         11   -1    0    0    0    0 -0.00000000000E+00 -0.00000000000E+00 -0.45593999997E+02  0.45594000000E+02  0.51100000000E-03 0.  1.
         23    2    1    2    0    0 -0.90205620751E-16  0.00000000000E+00  0.00000000000E+00  0.91188000000E+02  0.91188000000E+02 0.  0.
    9900012    2    3    3    0    0  0.52841057065E-01  0.34702344191E+02 -0.26064665890E+02  0.47787282351E+02  0.20000051549E+02 0.  0.
         12    1    3    3    0    0 -0.52841057065E-01 -0.34702344191E+02  0.26064665890E+02  0.43400717649E+02  0.00000000000E+00 0. -1.
         11    1    4    4    0    0  0.10090988810E+01  0.32529017131E+02 -0.17268232884E+02  0.36842191890E+02  0.51100000000E-03 0. -1.
        -11    1    4    4    0    0  0.35997130490E+00 -0.65001039597E-01 -0.82917985289E+01  0.82998631061E+01  0.51100000000E-03 0.  1.
        -12    1    4    4    0    0 -0.13162291288E+01  0.22383280997E+01 -0.50463447708E+00  0.26452273545E+01  0.00000000000E+00 0.  1.
</event>
<event>
 8    1  0.4798632E-010  0.9118800E+02  0.7816164E-02  0.1184000E+00
        -11   -1    0    0    0    0  0.00000000000E+00  0.00000000000E+00  0.45593999997E+02  0.45594000000E+02  0.51100000000E-03 0. -1.
         11   -1    0    0    0    0 -0.00000000000E+00 -0.00000000000E+00 -0.45593999997E+02  0.45594000000E+02  0.51100000000E-03 0.  1.
         23    2    1    2    0    0  0.00000000000E+00 -0.35527136788E-14  0.71054273576E-14  0.91188000000E+02  0.91188000000E+02 0.  0.
    9900012    2    3    3    0    0  0.21880134241E+02 -0.19710691063E+02 -0.31880589711E+02  0.47787267092E+02  0.19999981981E+02 0.  0.
         12    1    3    3    0    0 -0.21880134241E+02  0.19710691063E+02  0.31880589711E+02  0.43400732908E+02  0.00000000000E+00 0. -1.
         11    1    4    4    0    0  0.57335376665E-01  0.10057745945E+01 -0.44992956394E+00  0.11033162529E+01  0.51100000000E-03 0. -1.
        -11    1    4    4    0    0 -0.16919916251E+01 -0.69905972295E+01 -0.80516010465E+01  0.10796275513E+02  0.51100000000E-03 0.  1.
        -12    1    4    4    0    0  0.23514790490E+02 -0.13725868428E+02 -0.23379059101E+02  0.35887675326E+02  0.00000000000E+00 0.  1.
</event>
<event>
 8    1 -0.4798632E-010  0.9118800E+02  0.7816164E-02  0.1184000E+00
        -11   -1    0    0    0    0  0.00000000000E+00  0.00000000000E+00  0.45593999997E+02  0.45594000000E+02  0.51100000000E-03 0. -1.
         11   -1    0    0    0    0 -0.00000000000E+00 -0.00000000000E+00 -0.45593999997E+02  0.45594000000E+02  0.51100000000E-03 0.  1.
         23    2    1    2    0    0 -0.22204460493E-15  0.00000000000E+00  0.00000000000E+00  0.91188000000E+02  0.91188000000E+02 0.  0.
    9900012    2    3    3    0    0 -0.42758899268E+00  0.88964019339E+01 -0.42476987799E+02  0.47787270833E+02  0.19999999038E+02 0.  0.
         12    1    3    3    0    0  0.42758899268E+00 -0.88964019339E+01  0.42476987799E+02  0.43400729167E+02  0.00000000000E+00 0. -1.
         11    1    4    4    0    0  0.34473160263E+01  0.64907851108E-01 -0.14990992654E+02  0.15382394541E+02  0.51100000000E-03 0. -1.
        -11    1    4    4    0    0  0.20326781819E+01  0.15597350923E+01  0.73814432946E+00  0.26663479633E+01  0.51100000000E-03 0.  1.
        -12    1    4    4    0    0 -0.59075832009E+01  0.72717589906E+01 -0.28224139475E+02  0.29738528329E+02  0.00000000000E+00 0.  1.
</event>
<event>
 8    1  0.4798632E-010  0.9118800E+02  0.7816164E-02  0.1184000E+00
        -11   -1    0    0    0    0  0.00000000000E+00  0.00000000000E+00  0.45593999997E+02  0.45594000000E+02  0.51100000000E-03 0. -1.
         11   -1    0    0    0    0 -0.00000000000E+00 -0.00000000000E+00 -0.45593999997E+02  0.45594000000E+02  0.51100000000E-03 0.  1.
         23    2    1    2    0    0  0.00000000000E+00  0.00000000000E+00  0.16653345369E-14  0.91188000000E+02  0.91188000000E+02 0.  0.
    9900012    2    3    3    0    0 -0.41387847071E+02  0.13033614583E+02 -0.89037193281E+00  0.47787288526E+02  0.20000079708E+02 0.  0.
         12    1    3    3    0    0  0.41387847071E+02 -0.13033614583E+02  0.89037193281E+00  0.43400711474E+02  0.00000000000E+00 0. -1.
         11    1    4    4    0    0 -0.14573944397E+01  0.44104944859E+01  0.52692947903E+00  0.46748385106E+01  0.51100000000E-03 0. -1.
        -11    1    4    4    0    0 -0.21293906558E+02  0.57563405680E+00 -0.63383155483E+01  0.22224672221E+02  0.51100000000E-03 0.  1.
        -12    1    4    4    0    0 -0.18636546073E+02  0.80474860399E+01  0.49210141364E+01  0.20887777795E+02  0.00000000000E+00 0.  1.
</event>
<event>
 8    1  0.4798632E-010  0.9118800E+02  0.7816164E-02  0.1184000E+00
        -11   -1    0    0    0    0  0.00000000000E+00  0.00000000000E+00  0.45593999997E+02  0.45594000000E+02  0.51100000000E-03 0. -1.
         11   -1    0    0    0    0 -0.00000000000E+00 -0.00000000000E+00 -0.45593999997E+02  0.45594000000E+02  0.51100000000E-03 0.  1.
         23    2    1    2    0    0 -0.17763568394E-14  0.99920072216E-15  0.00000000000E+00  0.91188000000E+02  0.91188000000E+02 0.  0.
    9900012    2    3    3    0    0 -0.12431332501E+02 -0.75764663366E+00  0.41575368632E+02  0.47787270362E+02  0.19999996890E+02 0.  0.
        -12    1    3    3    0    0  0.12431332501E+02  0.75764663366E+00 -0.41575368632E+02  0.43400729638E+02  0.00000000000E+00 0.  1.
         11    1    4    4    0    0 -0.22247515851E+01  0.47324758929E+00  0.16131718252E+01  0.27885133126E+01  0.51100000000E-03 0.  1.
        -11    1    4    4    0    0  0.70340480068E+00  0.68628586491E+01  0.10612705469E+02  0.12657927350E+02  0.51100000000E-03 0. -1.
        -12    1    4    4    0    0 -0.10909985716E+02 -0.80937528720E+01  0.29349491338E+02  0.32340829700E+02  0.00000000000E+00 0.  1.
</event>
<event>
 8    1  0.4798632E-010  0.9118800E+02  0.7816164E-02  0.1184000E+00
        -11   -1    0    0    0    0  0.00000000000E+00  0.00000000000E+00  0.45593999997E+02  0.45594000000E+02  0.51100000000E-03 0. -1.
         11   -1    0    0    0    0 -0.00000000000E+00 -0.00000000000E+00 -0.45593999997E+02  0.45594000000E+02  0.51100000000E-03 0.  1.
         23    2    1    2    0    0  0.00000000000E+00 -0.35527136788E-14  0.00000000000E+00  0.91188000000E+02  0.91188000000E+02 0.  0.
    9900012    2    3    3    0    0  0.18925877953E+02  0.20471572759E+02 -0.33261824139E+02  0.47787273133E+02  0.20000009523E+02 0.  0.
         12    1    3    3    0    0 -0.18925877953E+02 -0.20471572759E+02  0.33261824139E+02  0.43400726867E+02  0.00000000000E+00 0. -1.
         11    1    4    4    0    0  0.36116623571E+01  0.72652488800E+01 -0.42688739115E+01  0.91679458443E+01  0.51100000000E-03 0. -1.
        -11    1    4    4    0    0  0.16819224422E+02  0.96231338935E+01 -0.16226123873E+02  0.25274060068E+02  0.51100000000E-03 0.  1.
        -12    1    4    4    0    0 -0.15050088263E+01  0.35831899852E+01 -0.12766826355E+02  0.13345267221E+02  0.00000000000E+00 0.  1.
</event>
<event>
 8    1  0.4798632E-010  0.9118800E+02  0.7816164E-02  0.1184000E+00
        -11   -1    0    0    0    0  0.00000000000E+00  0.00000000000E+00  0.45593999997E+02  0.45594000000E+02  0.51100000000E-03 0. -1.
         11   -1    0    0    0    0 -0.00000000000E+00 -0.00000000000E+00 -0.45593999997E+02  0.45594000000E+02  0.51100000000E-03 0.  1.
         23    2    1    2    0    0  0.00000000000E+00  0.00000000000E+00  0.00000000000E+00  0.91188000000E+02  0.91188000000E+02 0.  0.
    9900012    2    3    3    0    0  0.56034179904E+01 -0.79758825570E+01 -0.42291970661E+02  0.47787265235E+02  0.19999973513E+02 0.  0.
         12    1    3    3    0    0 -0.56034179904E+01  0.79758825570E+01  0.42291970661E+02  0.43400734765E+02  0.00000000000E+00 0. -1.
         11    1    4    4    0    0 -0.20552017029E+01 -0.43556308171E+01 -0.29581824118E+00  0.48252339371E+01  0.51100000000E-03 0. -1.
        -11    1    4    4    0    0  0.39727838859E+01 -0.20886343457E+00 -0.21007374019E+02  0.21380748331E+02  0.51100000000E-03 0.  1.
         12    1    4    4    0    0  0.36858358073E+01 -0.34113883053E+01 -0.20988778400E+02  0.21581282967E+02  0.00000000000E+00 0. -1.
</event>
<event>
 8    1  0.4798632E-010  0.9118800E+02  0.7816164E-02  0.1184000E+00
        -11   -1    0    0    0    0  0.00000000000E+00  0.00000000000E+00  0.45593999997E+02  0.45594000000E+02  0.51100000000E-03 0. -1.
         11   -1    0    0    0    0 -0.00000000000E+00 -0.00000000000E+00 -0.45593999997E+02  0.45594000000E+02  0.51100000000E-03 0.  1.
         23    2    1    2    0    0  0.00000000000E+00 -0.44408920985E-15  0.00000000000E+00  0.91188000000E+02  0.91188000000E+02 0.  0.
    9900012    2    3    3    0    0  0.34491407739E+02  0.18227460266E+01 -0.26280100415E+02  0.47787270873E+02  0.19999999219E+02 0.  0.
         12    1    3    3    0    0 -0.34491407739E+02 -0.18227460266E+01  0.26280100415E+02  0.43400729127E+02  0.00000000000E+00 0. -1.
         11    1    4    4    0    0  0.84766216092E+01  0.55861522215E+01  0.10529342514E+00  0.10152305035E+02  0.51100000000E-03 0. -1.
        -11    1    4    4    0    0  0.11884577938E+02  0.24163634901E+00 -0.14441986875E+02  0.18704880808E+02  0.51100000000E-03 0.  1.
         12    1    4    4    0    0  0.14130208191E+02 -0.40050425439E+01 -0.11943406966E+02  0.18930085030E+02  0.00000000000E+00 0. -1.
</event>
<event>
 8    1  0.4798632E-010  0.9118800E+02  0.7816164E-02  0.1184000E+00
        -11   -1    0    0    0    0  0.00000000000E+00  0.00000000000E+00  0.45593999997E+02  0.45594000000E+02  0.51100000000E-03 0.  1.
         11   -1    0    0    0    0 -0.00000000000E+00 -0.00000000000E+00 -0.45593999997E+02  0.45594000000E+02  0.51100000000E-03 0. -1.
         23    2    1    2    0    0  0.00000000000E+00  0.00000000000E+00  0.00000000000E+00  0.91188000000E+02  0.91188000000E+02 0.  0.
    9900012    2    3    3    0    0 -0.31452836592E+02 -0.62470532630E+01  0.29245795568E+02  0.47787272327E+02  0.20000005847E+02 0.  0.
        -12    1    3    3    0    0  0.31452836592E+02  0.62470532630E+01 -0.29245795568E+02  0.43400727673E+02  0.00000000000E+00 0.  1.
         11    1    4    4    0    0 -0.10635736886E+02 -0.63495855481E+01  0.43237827717E+01  0.13119879323E+02  0.51100000000E-03 0. -1.
        -11    1    4    4    0    0 -0.22220574442E+02  0.92279762611E-01  0.24736915030E+02  0.33251727918E+02  0.51100000000E-03 0.  1.
        -12    1    4    4    0    0  0.14034747362E+01  0.10252522552E-01  0.18509776629E+00  0.14156650848E+01  0.00000000000E+00 0.  1.
</event>
<event>
 8    1  0.4798632E-010  0.9118800E+02  0.7816164E-02  0.1184000E+00
        -11   -1    0    0    0    0  0.00000000000E+00  0.00000000000E+00  0.45593999997E+02  0.45594000000E+02  0.51100000000E-03 0. -1.
         11   -1    0    0    0    0 -0.00000000000E+00 -0.00000000000E+00 -0.45593999997E+02  0.45594000000E+02  0.51100000000E-03 0.  1.
         23    2    1    2    0    0  0.00000000000E+00 -0.17763568394E-14  0.00000000000E+00  0.91188000000E+02  0.91188000000E+02 0.  0.
    9900012    2    3    3    0    0 -0.19303700779E+02  0.12694816805E+02  0.36740063172E+02  0.47787268677E+02  0.19999989206E+02 0.  0.
        -12    1    3    3    0    0  0.19303700779E+02 -0.12694816805E+02 -0.36740063172E+02  0.43400731323E+02  0.00000000000E+00 0.  1.
         11    1    4    4    0    0 -0.13607507591E+02  0.13494024748E+02  0.25559498623E+02  0.31945906418E+02  0.51100000000E-03 0. -1.
        -11    1    4    4    0    0 -0.15091863330E+01 -0.38654754075E+01  0.95320396118E+01  0.10396120571E+02  0.51100000000E-03 0.  1.
        -12    1    4    4    0    0 -0.41870068544E+01  0.30662674651E+01  0.16485249368E+01  0.54452416873E+01  0.00000000000E+00 0.  1.
</event>
<event>
 8    1  0.4798632E-010  0.9118800E+02  0.7816164E-02  0.1184000E+00
        -11   -1    0    0    0    0  0.00000000000E+00  0.00000000000E+00  0.45593999997E+02  0.45594000000E+02  0.51100000000E-03 0.  1.
         11   -1    0    0    0    0 -0.00000000000E+00 -0.00000000000E+00 -0.45593999997E+02  0.45594000000E+02  0.51100000000E-03 0. -1.
         23    2    1    2    0    0  0.00000000000E+00  0.00000000000E+00  0.00000000000E+00  0.91188000000E+02  0.91188000000E+02 0.  0.
    9900012    2    3    3    0    0  0.32603795138E+02  0.25205790946E+02 -0.13612054736E+02  0.47787223639E+02  0.19999783858E+02 0.  0.
        -12    1    3    3    0    0 -0.32603795138E+02 -0.25205790946E+02  0.13612054736E+02  0.43400776361E+02  0.00000000000E+00 0.  1.
         11    1    4    4    0    0  0.16442684027E+02  0.21729698773E+02 -0.10091315935E+02  0.29058154179E+02  0.51100000000E-03 0. -1.
        -11    1    4    4    0    0  0.10082362792E+02  0.55141303390E+01 -0.43015191375E+01  0.12270400972E+02  0.51100000000E-03 0.  1.
         12    1    4    4    0    0  0.60787483196E+01 -0.20380381655E+01  0.78078033679E+00  0.64586684875E+01  0.00000000000E+00 0. -1.
</event>
<event>
 8    1  0.4798632E-010  0.9118800E+02  0.7816164E-02  0.1184000E+00
        -11   -1    0    0    0    0  0.00000000000E+00  0.00000000000E+00  0.45593999997E+02  0.45594000000E+02  0.51100000000E-03 0.  1.
         11   -1    0    0    0    0 -0.00000000000E+00 -0.00000000000E+00 -0.45593999997E+02  0.45594000000E+02  0.51100000000E-03 0. -1.
         23    2    1    2    0    0  0.00000000000E+00  0.00000000000E+00  0.00000000000E+00  0.91188000000E+02  0.91188000000E+02 0.  0.
    9900012    2    3    3    0    0 -0.32388988798E+02 -0.24831082178E+02 -0.14764612917E+02  0.47787273830E+02  0.20000012700E+02 0.  0.
         12    1    3    3    0    0  0.32388988798E+02  0.24831082178E+02  0.14764612917E+02  0.43400726170E+02  0.00000000000E+00 0. -1.
         11    1    4    4    0    0 -0.64083295265E+01 -0.14772457595E+02 -0.93219068602E+01  0.18606185490E+02  0.51100000000E-03 0. -1.
        -11    1    4    4    0    0 -0.16612182808E+02 -0.43615804837E+01 -0.60239605809E+01  0.18200991822E+02  0.51100000000E-03 0.  1.
        -12    1    4    4    0    0 -0.93684764641E+01 -0.56970440991E+01  0.58125452381E+00  0.10980096518E+02  0.00000000000E+00 0.  1.
</event>
<event>
 8    1  0.4798632E-010  0.9118800E+02  0.7816164E-02  0.1184000E+00
        -11   -1    0    0    0    0  0.00000000000E+00  0.00000000000E+00  0.45593999997E+02  0.45594000000E+02  0.51100000000E-03 0. -1.
         11   -1    0    0    0    0 -0.00000000000E+00 -0.00000000000E+00 -0.45593999997E+02  0.45594000000E+02  0.51100000000E-03 0.  1.
         23    2    1    2    0    0  0.00000000000E+00  0.35527136788E-14  0.00000000000E+00  0.91188000000E+02  0.91188000000E+02 0.  0.
    9900012    2    3    3    0    0 -0.35558648442E+02 -0.21551368793E+02 -0.12439640705E+02  0.47787266864E+02  0.19999980941E+02 0.  0.
         12    1    3    3    0    0  0.35558648442E+02  0.21551368793E+02  0.12439640705E+02  0.43400733136E+02  0.00000000000E+00 0. -1.
         11    1    4    4    0    0 -0.80250483102E+00  0.10470730553E+01  0.13969071873E+01  0.19213864625E+01  0.51100000000E-03 0. -1.
        -11    1    4    4    0    0 -0.19252198244E+02 -0.20344862502E+02 -0.77945134313E+01  0.29074301494E+02  0.51100000000E-03 0.  1.
        -12    1    4    4    0    0 -0.15503945366E+02 -0.22535793463E+01 -0.60420344613E+01  0.16791578908E+02  0.00000000000E+00 0.  1.
</event>
<event>
 8    1  0.4798632E-010  0.9118800E+02  0.7816164E-02  0.1184000E+00
        -11   -1    0    0    0    0  0.00000000000E+00  0.00000000000E+00  0.45593999997E+02  0.45594000000E+02  0.51100000000E-03 0. -1.
         11   -1    0    0    0    0 -0.00000000000E+00 -0.00000000000E+00 -0.45593999997E+02  0.45594000000E+02  0.51100000000E-03 0.  1.
         23    2    1    2    0    0 -0.71054273576E-14  0.17763568394E-14 -0.88817841970E-15  0.91188000000E+02  0.91188000000E+02 0.  0.
    9900012    2    3    3    0    0  0.42711658453E+02  0.74369426814E+01  0.20072752231E+01  0.47787273761E+02  0.20000012386E+02 0.  0.
        -12    1    3    3    0    0 -0.42711658453E+02 -0.74369426814E+01 -0.20072752231E+01  0.43400726239E+02  0.00000000000E+00 0.  1.
         11    1    4    4    0    0  0.10017652054E+02  0.23135139748E+01 -0.14080111359E+01  0.10377292287E+02  0.51100000000E-03 0. -1.
        -11    1    4    4    0    0  0.16704751060E+02 -0.36784645437E+01 -0.42321784969E+01  0.17620758907E+02  0.51100000000E-03 0.  1.
        -12    1    4    4    0    0  0.15989255339E+02  0.88018932504E+01  0.76474648559E+01  0.19789222567E+02  0.00000000000E+00 0.  1.
</event>
<event>
 8    1  0.4798632E-010  0.9118800E+02  0.7816164E-02  0.1184000E+00
        -11   -1    0    0    0    0  0.00000000000E+00  0.00000000000E+00  0.45593999997E+02  0.45594000000E+02  0.51100000000E-03 0. -1.
         11   -1    0    0    0    0 -0.00000000000E+00 -0.00000000000E+00 -0.45593999997E+02  0.45594000000E+02  0.51100000000E-03 0.  1.
         23    2    1    2    0    0  0.17763568394E-14  0.00000000000E+00  0.00000000000E+00  0.91188000000E+02  0.91188000000E+02 0.  0.
    9900012    2    3    3    0    0 -0.84393698230E+01 -0.22266925338E+02 -0.36284762445E+02  0.47787275205E+02  0.20000018968E+02 0.  0.
         12    1    3    3    0    0  0.84393698230E+01  0.22266925338E+02  0.36284762445E+02  0.43400724795E+02  0.00000000000E+00 0. -1.
         11    1    4    4    0    0 -0.52969892017E+01 -0.92197436703E+01 -0.12104109065E+02  0.16111214245E+02  0.51100000000E-03 0. -1.
        -11    1    4    4    0    0  0.53181592630E+01 -0.10151115502E+02 -0.12379963904E+02  0.16869839074E+02  0.51100000000E-03 0.  1.
        -12    1    4    4    0    0 -0.84605398844E+01 -0.28960661663E+01 -0.11800689477E+02  0.14806221885E+02  0.00000000000E+00 0.  1.
</event>
<event>
 8    1  0.4798632E-010  0.9118800E+02  0.7816164E-02  0.1184000E+00
        -11   -1    0    0    0    0  0.00000000000E+00  0.00000000000E+00  0.45593999997E+02  0.45594000000E+02  0.51100000000E-03 0.  1.
         11   -1    0    0    0    0 -0.00000000000E+00 -0.00000000000E+00 -0.45593999997E+02  0.45594000000E+02  0.51100000000E-03 0. -1.
         23    2    1    2    0    0  0.00000000000E+00  0.00000000000E+00 -0.17763568394E-14  0.91188000000E+02  0.91188000000E+02 0.  0.
    9900012    2    3    3    0    0  0.27741848816E+02  0.31026399508E+02 -0.12303470718E+02  0.47787273809E+02  0.20000012606E+02 0.  0.
         12    1    3    3    0    0 -0.27741848816E+02 -0.31026399508E+02  0.12303470718E+02  0.43400726191E+02  0.00000000000E+00 0. -1.
         11    1    4    4    0    0  0.18018778486E+02  0.15303687217E+02 -0.90228645399E+01  0.25303978053E+02  0.51100000000E-03 0. -1.
        -11    1    4    4    0    0 -0.13910179158E+01  0.93030305787E+01 -0.12677567638E+01  0.94914970507E+01  0.51100000000E-03 0.  1.
        -12    1    4    4    0    0  0.11114088246E+02  0.64196817126E+01 -0.20128494139E+01  0.12991798705E+02  0.00000000000E+00 0.  1.
</event>
<event>
 8    1  0.4798632E-010  0.9118800E+02  0.7816164E-02  0.1184000E+00
        -11   -1    0    0    0    0  0.00000000000E+00  0.00000000000E+00  0.45593999997E+02  0.45594000000E+02  0.51100000000E-03 0. -1.
         11   -1    0    0    0    0 -0.00000000000E+00 -0.00000000000E+00 -0.45593999997E+02  0.45594000000E+02  0.51100000000E-03 0.  1.
         23    2    1    2    0    0  0.00000000000E+00  0.00000000000E+00  0.00000000000E+00  0.91188000000E+02  0.91188000000E+02 0.  0.
    9900012    2    3    3    0    0 -0.37803861127E+02  0.14774638604E+02 -0.15368837609E+02  0.47787273837E+02  0.20000012733E+02 0.  0.
         12    1    3    3    0    0  0.37803861127E+02 -0.14774638604E+02  0.15368837609E+02  0.43400726163E+02  0.00000000000E+00 0. -1.
         11    1    4    4    0    0 -0.85470827043E+01 -0.10087910215E+01 -0.64451313056E+01  0.10752209070E+02  0.51100000000E-03 0. -1.
        -11    1    4    4    0    0 -0.60396612280E+01  0.10267579877E+02 -0.46734991686E+01  0.12796182986E+02  0.51100000000E-03 0.  1.
        -12    1    4    4    0    0 -0.23217117195E+02  0.55158497486E+01 -0.42502071344E+01  0.24238881781E+02  0.00000000000E+00 0.  1.
</event>
<event>
 8    1  0.4798632E-010  0.9118800E+02  0.7816164E-02  0.1184000E+00
        -11   -1    0    0    0    0  0.00000000000E+00  0.00000000000E+00  0.45593999997E+02  0.45594000000E+02  0.51100000000E-03 0. -1.
         11   -1    0    0    0    0 -0.00000000000E+00 -0.00000000000E+00 -0.45593999997E+02  0.45594000000E+02  0.51100000000E-03 0.  1.
         23    2    1    2    0    0 -0.35527136788E-14  0.00000000000E+00  0.35527136788E-14  0.91188000000E+02  0.91188000000E+02 0.  0.
    9900012    2    3    3    0    0  0.27767611645E+02  0.10303823806E+02  0.31724033068E+02  0.47787270564E+02  0.19999997809E+02 0.  0.
        -12    1    3    3    0    0 -0.27767611645E+02 -0.10303823806E+02 -0.31724033068E+02  0.43400729436E+02  0.00000000000E+00 0.  1.
         11    1    4    4    0    0  0.16496515981E+02  0.54102143051E+00  0.22229798942E+02  0.27687392527E+02  0.51100000000E-03 0. -1.
        -11    1    4    4    0    0  0.10006996282E+01  0.62676860461E+01  0.12378360490E+01  0.64666472351E+01  0.51100000000E-03 0.  1.
        -12    1    4    4    0    0  0.10270396036E+02  0.34951163299E+01  0.82563980774E+01  0.13633230802E+02  0.00000000000E+00 0.  1.
</event>
<event>
 8    1  0.4798632E-010  0.9118800E+02  0.7816164E-02  0.1184000E+00
        -11   -1    0    0    0    0  0.00000000000E+00  0.00000000000E+00  0.45593999997E+02  0.45594000000E+02  0.51100000000E-03 0. -1.
         11   -1    0    0    0    0 -0.00000000000E+00 -0.00000000000E+00 -0.45593999997E+02  0.45594000000E+02  0.51100000000E-03 0.  1.
         23    2    1    2    0    0 -0.17763568394E-14  0.00000000000E+00  0.00000000000E+00  0.91188000000E+02  0.91188000000E+02 0.  0.
    9900012    2    3    3    0    0 -0.15818034725E+02 -0.22517891738E+02  0.33561230180E+02  0.47787287540E+02  0.20000075208E+02 0.  0.
        -12    1    3    3    0    0  0.15818034725E+02  0.22517891738E+02 -0.33561230180E+02  0.43400712460E+02  0.00000000000E+00 0.  1.
         11    1    4    4    0    0 -0.31050915635E+00  0.32893130330E+01  0.16931844741E+01  0.37125287998E+01  0.51100000000E-03 0. -1.
        -11    1    4    4    0    0 -0.10209532315E+02 -0.18570115155E+02  0.19509438198E+02  0.28804546621E+02  0.51100000000E-03 0.  1.
         12    1    4    4    0    0 -0.52979932531E+01 -0.72370896159E+01  0.12358607508E+02  0.15270212119E+02  0.00000000000E+00 0. -1.
</event>
<event>
 8    1  0.4798632E-010  0.9118800E+02  0.7816164E-02  0.1184000E+00
        -11   -1    0    0    0    0  0.00000000000E+00  0.00000000000E+00  0.45593999997E+02  0.45594000000E+02  0.51100000000E-03 0. -1.
         11   -1    0    0    0    0 -0.00000000000E+00 -0.00000000000E+00 -0.45593999997E+02  0.45594000000E+02  0.51100000000E-03 0.  1.
         23    2    1    2    0    0  0.44408920985E-15  0.35527136788E-14  0.00000000000E+00  0.91188000000E+02  0.91188000000E+02 0.  0.
    9900012    2    3    3    0    0  0.17789658487E+01 -0.27887489165E+02  0.33207626606E+02  0.47787271478E+02  0.20000001976E+02 0.  0.
        -12    1    3    3    0    0 -0.17789658487E+01  0.27887489165E+02 -0.33207626606E+02  0.43400728522E+02  0.00000000000E+00 0.  1.
         11    1    4    4    0    0 -0.34955426165E+01 -0.16909886530E+02  0.10755148501E+02  0.20342966848E+02  0.51100000000E-03 0. -1.
        -11    1    4    4    0    0  0.23122821915E+01  0.14763542034E+01  0.60063227792E+01  0.66031950036E+01  0.51100000000E-03 0.  1.
        -12    1    4    4    0    0  0.29622262737E+01 -0.12453956839E+02  0.16446155326E+02  0.20841109626E+02  0.00000000000E+00 0.  1.
</event>
<event>
 8    1  0.4798632E-010  0.9118800E+02  0.7816164E-02  0.1184000E+00
        -11   -1    0    0    0    0  0.00000000000E+00  0.00000000000E+00  0.45593999997E+02  0.45594000000E+02  0.51100000000E-03 0. -1.
         11   -1    0    0    0    0 -0.00000000000E+00 -0.00000000000E+00 -0.45593999997E+02  0.45594000000E+02  0.51100000000E-03 0.  1.
         23    2    1    2    0    0  0.22204460493E-15 -0.35527136788E-14  0.00000000000E+00  0.91188000000E+02  0.91188000000E+02 0.  0.
    9900012    2    3    3    0    0 -0.18458443753E+01  0.26686050842E+02 -0.34177049313E+02  0.47787272464E+02  0.20000006471E+02 0.  0.
         12    1    3    3    0    0  0.18458443753E+01 -0.26686050842E+02  0.34177049313E+02  0.43400727536E+02  0.00000000000E+00 0. -1.
         11    1    4    4    0    0  0.52869581637E+01  0.33599306273E+01 -0.24403603536E+01  0.67228282264E+01  0.51100000000E-03 0. -1.
        -11    1    4    4    0    0 -0.17848615675E+01  0.37178919963E+00 -0.55080859743E+01  0.58019797815E+01  0.51100000000E-03 0.  1.
         12    1    4    4    0    0 -0.53479409715E+01  0.22954331015E+02 -0.26228602985E+02  0.35262464456E+02  0.00000000000E+00 0. -1.
</event>
<event>
 8    1  0.4798632E-010  0.9118800E+02  0.7816164E-02  0.1184000E+00
        -11   -1    0    0    0    0  0.00000000000E+00  0.00000000000E+00  0.45593999997E+02  0.45594000000E+02  0.51100000000E-03 0. -1.
         11   -1    0    0    0    0 -0.00000000000E+00 -0.00000000000E+00 -0.45593999997E+02  0.45594000000E+02  0.51100000000E-03 0.  1.
         23    2    1    2    0    0  0.22204460493E-15 -0.17763568394E-14 -0.71054273576E-14  0.91188000000E+02  0.91188000000E+02 0.  0.
    9900012    2    3    3    0    0  0.12974754892E+01  0.13176648535E+02  0.41331782802E+02  0.47787265227E+02  0.19999973477E+02 0.  0.
        -12    1    3    3    0    0 -0.12974754892E+01 -0.13176648535E+02 -0.41331782802E+02  0.43400734773E+02  0.00000000000E+00 0.  1.
         11    1    4    4    0    0  0.28698487370E+00  0.80378543864E+01  0.13335471686E+02  0.15573190708E+02  0.51100000000E-03 0. -1.
        -11    1    4    4    0    0 -0.26152039585E+01 -0.45494923276E+01  0.12770607195E+02  0.13806722297E+02  0.51100000000E-03 0.  1.
        -12    1    4    4    0    0  0.36256945740E+01  0.96882864766E+01  0.15225703920E+02  0.18407352223E+02  0.00000000000E+00 0.  1.
</event>
<event>
 8    1  0.4798632E-010  0.9118800E+02  0.7816164E-02  0.1184000E+00
        -11   -1    0    0    0    0  0.00000000000E+00  0.00000000000E+00  0.45593999997E+02  0.45594000000E+02  0.51100000000E-03 0. -1.
         11   -1    0    0    0    0 -0.00000000000E+00 -0.00000000000E+00 -0.45593999997E+02  0.45594000000E+02  0.51100000000E-03 0.  1.
         23    2    1    2    0    0 -0.35527136788E-14  0.71054273576E-14  0.00000000000E+00  0.91188000000E+02  0.91188000000E+02 0.  0.
    9900012    2    3    3    0    0  0.24196579761E+02 -0.32124343816E+02 -0.16314878428E+02  0.47787271944E+02  0.20000004099E+02 0.  0.
         12    1    3    3    0    0 -0.24196579761E+02  0.32124343816E+02  0.16314878428E+02  0.43400728056E+02  0.00000000000E+00 0. -1.
         11    1    4    4    0    0  0.99972938239E+01 -0.72395971475E+01  0.13992432204E+01  0.12422380308E+02  0.51100000000E-03 0. -1.
        -11    1    4    4    0    0  0.13940516578E+02 -0.24278033950E+02 -0.13466171253E+02  0.31066037781E+02  0.51100000000E-03 0.  1.
        -12    1    4    4    0    0  0.25876935918E+00 -0.60671271793E+00 -0.42479503951E+01  0.42988538545E+01  0.00000000000E+00 0.  1.
</event>
<event>
 8    1  0.4798632E-010  0.9118800E+02  0.7816164E-02  0.1184000E+00
        -11   -1    0    0    0    0  0.00000000000E+00  0.00000000000E+00  0.45593999997E+02  0.45594000000E+02  0.51100000000E-03 0. -1.
         11   -1    0    0    0    0 -0.00000000000E+00 -0.00000000000E+00 -0.45593999997E+02  0.45594000000E+02  0.51100000000E-03 0.  1.
         23    2    1    2    0    0  0.00000000000E+00  0.88817841970E-15  0.71054273576E-14  0.91188000000E+02  0.91188000000E+02 0.  0.
    9900012    2    3    3    0    0 -0.26361462484E+02  0.50744229998E+01 -0.34102005979E+02  0.47787270918E+02  0.19999999422E+02 0.  0.
         12    1    3    3    0    0  0.26361462484E+02 -0.50744229998E+01  0.34102005979E+02  0.43400729082E+02  0.00000000000E+00 0. -1.
         11    1    4    4    0    0  0.94908160016E+00 -0.16135225807E+01 -0.73371069783E+01  0.75721430305E+01  0.51100000000E-03 0. -1.
        -11    1    4    4    0    0 -0.26739204207E+02  0.71977570718E+01 -0.27589866803E+02  0.39089557416E+02  0.51100000000E-03 0.  1.
        -12    1    4    4    0    0 -0.57133987707E+00 -0.50981149123E+00  0.82496780209E+00  0.11255704715E+01  0.00000000000E+00 0.  1.
</event>
<event>
 8    1  0.4798632E-010  0.9118800E+02  0.7816164E-02  0.1184000E+00
        -11   -1    0    0    0    0  0.00000000000E+00  0.00000000000E+00  0.45593999997E+02  0.45594000000E+02  0.51100000000E-03 0. -1.
         11   -1    0    0    0    0 -0.00000000000E+00 -0.00000000000E+00 -0.45593999997E+02  0.45594000000E+02  0.51100000000E-03 0.  1.
         23    2    1    2    0    0  0.00000000000E+00 -0.17763568394E-14  0.00000000000E+00  0.91188000000E+02  0.91188000000E+02 0.  0.
    9900012    2    3    3    0    0  0.16808487590E+02  0.13837052237E+02  0.37545090463E+02  0.47787273191E+02  0.20000009786E+02 0.  0.
        -12    1    3    3    0    0 -0.16808487590E+02 -0.13837052237E+02 -0.37545090463E+02  0.43400726809E+02  0.00000000000E+00 0.  1.
         11    1    4    4    0    0  0.72532070236E+01  0.54592436096E+00  0.19439609684E+01  0.75290125543E+01  0.51100000000E-03 0. -1.
        -11    1    4    4    0    0 -0.69905578357E+00  0.12501870480E+01  0.15120471628E+00  0.14403158580E+01  0.51100000000E-03 0.  1.
         12    1    4    4    0    0  0.10254336350E+02  0.12040940828E+02  0.35449924779E+02  0.38817944778E+02  0.00000000000E+00 0. -1.
</event>
<event>
 8    1  0.4798632E-010  0.9118800E+02  0.7816164E-02  0.1184000E+00
        -11   -1    0    0    0    0  0.00000000000E+00  0.00000000000E+00  0.45593999997E+02  0.45594000000E+02  0.51100000000E-03 0. -1.
         11   -1    0    0    0    0 -0.00000000000E+00 -0.00000000000E+00 -0.45593999997E+02  0.45594000000E+02  0.51100000000E-03 0.  1.
         23    2    1    2    0    0  0.00000000000E+00 -0.17763568394E-14  0.00000000000E+00  0.91188000000E+02  0.91188000000E+02 0.  0.
    9900012    2    3    3    0    0  0.19463263862E+02  0.11573983053E+02  0.37024963168E+02  0.47787267040E+02  0.19999981742E+02 0.  0.
        -12    1    3    3    0    0 -0.19463263862E+02 -0.11573983053E+02 -0.37024963168E+02  0.43400732960E+02  0.00000000000E+00 0.  1.
         11    1    4    4    0    0  0.18961532693E+02  0.93031016958E+01  0.34369579093E+02  0.40340493186E+02  0.51100000000E-03 0. -1.
        -11    1    4    4    0    0 -0.67906731329E-01 -0.44899895990E+00  0.42289687295E+01  0.42532796953E+01  0.51100000000E-03 0.  1.
         12    1    4    4    0    0  0.56963790046E+00  0.27198803168E+01 -0.15735846542E+01  0.31934941583E+01  0.00000000000E+00 0. -1.
</event>
<event>
 8    1  0.4798632E-010  0.9118800E+02  0.7816164E-02  0.1184000E+00
        -11   -1    0    0    0    0  0.00000000000E+00  0.00000000000E+00  0.45593999997E+02  0.45594000000E+02  0.51100000000E-03 0. -1.
         11   -1    0    0    0    0 -0.00000000000E+00 -0.00000000000E+00 -0.45593999997E+02  0.45594000000E+02  0.51100000000E-03 0.  1.
         23    2    1    2    0    0 -0.17763568394E-14  0.00000000000E+00  0.22204460493E-15  0.91188000000E+02  0.91188000000E+02 0.  0.
    9900012    2    3    3    0    0  0.12781806972E+02 -0.41462952917E+02 -0.10374775228E+01  0.47787223351E+02  0.19999782547E+02 0.  0.
         12    1    3    3    0    0 -0.12781806972E+02  0.41462952917E+02  0.10374775228E+01  0.43400776649E+02  0.00000000000E+00 0. -1.
         11    1    4    4    0    0 -0.28014382290E+01 -0.13197478224E+02 -0.28600539091E+01  0.13791352227E+02  0.51100000000E-03 0.  1.
        -11    1    4    4    0    0  0.17094520991E+02 -0.24365017424E+02  0.16445762745E+01  0.29809081726E+02  0.51100000000E-03 0. -1.
         12    1    4    4    0    0 -0.15112757900E+01 -0.39004572691E+01  0.17800011185E+00  0.41867893978E+01  0.00000000000E+00 0. -1.
</event>
<event>
 8    1  0.4798632E-010  0.9118800E+02  0.7816164E-02  0.1184000E+00
        -11   -1    0    0    0    0  0.00000000000E+00  0.00000000000E+00  0.45593999997E+02  0.45594000000E+02  0.51100000000E-03 0.  1.
         11   -1    0    0    0    0 -0.00000000000E+00 -0.00000000000E+00 -0.45593999997E+02  0.45594000000E+02  0.51100000000E-03 0. -1.
         23    2    1    2    0    0 -0.71054273576E-14  0.17763568394E-14  0.00000000000E+00  0.91188000000E+02  0.91188000000E+02 0.  0.
    9900012    2    3    3    0    0 -0.41681513504E+02  0.10498189350E+02  0.60052324048E+01  0.47787270007E+02  0.19999995272E+02 0.  0.
         12    1    3    3    0    0  0.41681513504E+02 -0.10498189350E+02 -0.60052324048E+01  0.43400729993E+02  0.00000000000E+00 0. -1.
         11    1    4    4    0    0 -0.44549481478E+01 -0.33522636758E+01 -0.36689449751E+01  0.66742334573E+01  0.51100000000E-03 0. -1.
        -11    1    4    4    0    0 -0.31699156389E+02  0.11280974436E+02  0.66062367360E+01  0.34289054581E+02  0.51100000000E-03 0.  1.
         12    1    4    4    0    0 -0.55274089681E+01  0.25694785894E+01  0.30679406439E+01  0.68239819693E+01  0.00000000000E+00 0. -1.
</event>
<event>
 8    1  0.4798632E-010  0.9118800E+02  0.7816164E-02  0.1184000E+00
        -11   -1    0    0    0    0  0.00000000000E+00  0.00000000000E+00  0.45593999997E+02  0.45594000000E+02  0.51100000000E-03 0. -1.
         11   -1    0    0    0    0 -0.00000000000E+00 -0.00000000000E+00 -0.45593999997E+02  0.45594000000E+02  0.51100000000E-03 0.  1.
         23    2    1    2    0    0  0.35527136788E-14  0.17763568394E-14  0.00000000000E+00  0.91188000000E+02  0.91188000000E+02 0.  0.
    9900012    2    3    3    0    0 -0.22269803296E+02 -0.15955333873E+02  0.33661645498E+02  0.47787271948E+02  0.20000004118E+02 0.  0.
        -12    1    3    3    0    0  0.22269803296E+02  0.15955333873E+02 -0.33661645498E+02  0.43400728052E+02  0.00000000000E+00 0.  1.
         11    1    4    4    0    0 -0.96890744303E+01 -0.12941814868E+02  0.21008700647E+02  0.26509135002E+02  0.51100000000E-03 0. -1.
        -11    1    4    4    0    0 -0.20256289196E+01 -0.26041206674E+01 -0.14948458220E+01  0.36220410355E+01  0.51100000000E-03 0.  1.
        -12    1    4    4    0    0 -0.10555099946E+02 -0.40939833689E+00  0.14147790673E+02  0.17656095910E+02  0.00000000000E+00 0.  1.
</event>
<event>
 8    1  0.4798632E-010  0.9118800E+02  0.7816164E-02  0.1184000E+00
        -11   -1    0    0    0    0  0.00000000000E+00  0.00000000000E+00  0.45593999997E+02  0.45594000000E+02  0.51100000000E-03 0. -1.
         11   -1    0    0    0    0 -0.00000000000E+00 -0.00000000000E+00 -0.45593999997E+02  0.45594000000E+02  0.51100000000E-03 0.  1.
         23    2    1    2    0    0  0.00000000000E+00  0.00000000000E+00  0.00000000000E+00  0.91188000000E+02  0.91188000000E+02 0.  0.
    9900012    2    3    3    0    0  0.40797653183E+02 -0.13491259655E+02 -0.60959595592E+01  0.47787270567E+02  0.19999997824E+02 0.  0.
         12    1    3    3    0    0 -0.40797653183E+02  0.13491259655E+02  0.60959595592E+01  0.43400729433E+02  0.00000000000E+00 0. -1.
         11    1    4    4    0    0  0.48781714672E+01 -0.24686246146E+01  0.35762718123E+01  0.65330226303E+01  0.51100000000E-03 0. -1.
        -11    1    4    4    0    0  0.19113619004E+02 -0.10724198505E+02 -0.10750250936E+02  0.24411201537E+02  0.51100000000E-03 0.  1.
        -12    1    4    4    0    0  0.16805862712E+02 -0.29843653525E+00  0.10780195646E+01  0.16843046400E+02  0.00000000000E+00 0.  1.
</event>
<event>
 8    1  0.4798632E-010  0.9118800E+02  0.7816164E-02  0.1184000E+00
        -11   -1    0    0    0    0  0.00000000000E+00  0.00000000000E+00  0.45593999997E+02  0.45594000000E+02  0.51100000000E-03 0.  1.
         11   -1    0    0    0    0 -0.00000000000E+00 -0.00000000000E+00 -0.45593999997E+02  0.45594000000E+02  0.51100000000E-03 0. -1.
         23    2    1    2    0    0  0.71054273576E-14  0.44408920985E-15  0.00000000000E+00  0.91188000000E+02  0.91188000000E+02 0.  0.
    9900012    2    3    3    0    0  0.42410216384E+02  0.37546626595E+01  0.84201626690E+01  0.47787273223E+02  0.20000009932E+02 0.  0.
        -12    1    3    3    0    0 -0.42410216384E+02 -0.37546626595E+01 -0.84201626690E+01  0.43400726777E+02  0.00000000000E+00 0.  1.
         11    1    4    4    0    0  0.31983539434E+01  0.36015737481E+01 -0.34175840899E+01  0.59059870202E+01  0.51100000000E-03 0. -1.
        -11    1    4    4    0    0  0.17418702026E+02 -0.24283935230E+01  0.89903088304E+01  0.19751808233E+02  0.51100000000E-03 0.  1.
         12    1    4    4    0    0  0.21793160415E+02  0.25814824344E+01  0.28474379285E+01  0.22129477969E+02  0.00000000000E+00 0. -1.
</event>
<event>
 8    1  0.4798632E-010  0.9118800E+02  0.7816164E-02  0.1184000E+00
        -11   -1    0    0    0    0  0.00000000000E+00  0.00000000000E+00  0.45593999997E+02  0.45594000000E+02  0.51100000000E-03 0. -1.
         11   -1    0    0    0    0 -0.00000000000E+00 -0.00000000000E+00 -0.45593999997E+02  0.45594000000E+02  0.51100000000E-03 0.  1.
         23    2    1    2    0    0  0.88817841970E-15  0.00000000000E+00  0.00000000000E+00  0.91188000000E+02  0.91188000000E+02 0.  0.
    9900012    2    3    3    0    0  0.78163241689E+01  0.26350506249E+02  0.33588379091E+02  0.47787270593E+02  0.19999997942E+02 0.  0.
        -12    1    3    3    0    0 -0.78163241689E+01 -0.26350506249E+02 -0.33588379091E+02  0.43400729407E+02  0.00000000000E+00 0.  1.
         11    1    4    4    0    0  0.49287493256E+01  0.20300042467E+02  0.19481755549E+02  0.28564367552E+02  0.51100000000E-03 0. -1.
        -11    1    4    4    0    0 -0.27803818977E+01  0.37798721028E+01  0.10488941660E+01  0.48081322614E+01  0.51100000000E-03 0.  1.
         12    1    4    4    0    0  0.56679567411E+01  0.22705916789E+01  0.13057729376E+02  0.14414770780E+02  0.00000000000E+00 0. -1.
</event>
<event>
 8    1  0.4798632E-010  0.9118800E+02  0.7816164E-02  0.1184000E+00
        -11   -1    0    0    0    0  0.00000000000E+00  0.00000000000E+00  0.45593999997E+02  0.45594000000E+02  0.51100000000E-03 0.  1.
         11   -1    0    0    0    0 -0.00000000000E+00 -0.00000000000E+00 -0.45593999997E+02  0.45594000000E+02  0.51100000000E-03 0. -1.
         23    2    1    2    0    0  0.35527136788E-14  0.35527136788E-14  0.00000000000E+00  0.91188000000E+02  0.91188000000E+02 0.  0.
    9900012    2    3    3    0    0  0.28951851711E+02 -0.23989913399E+02  0.21677118168E+02  0.47787272881E+02  0.20000008374E+02 0.  0.
        -12    1    3    3    0    0 -0.28951851711E+02  0.23989913399E+02 -0.21677118168E+02  0.43400727119E+02  0.00000000000E+00 0.  1.
         11    1    4    4    0    0  0.25569062475E+01 -0.54537769709E+01  0.26653068681E+01  0.65867529003E+01  0.51100000000E-03 0. -1.
        -11    1    4    4    0    0  0.45296958942E+01 -0.11568209219E+02  0.11828531593E+02  0.17153884963E+02  0.51100000000E-03 0.  1.
         12    1    4    4    0    0  0.21865249569E+02 -0.69679272094E+01  0.71832797068E+01  0.24046635018E+02  0.00000000000E+00 0. -1.
</event>
<event>
 8    1  0.4798632E-010  0.9118800E+02  0.7816164E-02  0.1184000E+00
        -11   -1    0    0    0    0  0.00000000000E+00  0.00000000000E+00  0.45593999997E+02  0.45594000000E+02  0.51100000000E-03 0. -1.
         11   -1    0    0    0    0 -0.00000000000E+00 -0.00000000000E+00 -0.45593999997E+02  0.45594000000E+02  0.51100000000E-03 0.  1.
         23    2    1    2    0    0  0.00000000000E+00 -0.35527136788E-14  0.00000000000E+00  0.91188000000E+02  0.91188000000E+02 0.  0.
    9900012    2    3    3    0    0 -0.31319469297E+02  0.17891059849E+02 -0.24137603152E+02  0.47787273445E+02  0.20000010944E+02 0.  0.
         12    1    3    3    0    0  0.31319469297E+02 -0.17891059849E+02  0.24137603152E+02  0.43400726555E+02  0.00000000000E+00 0. -1.
         11    1    4    4    0    0 -0.86108588525E+01  0.10906170226E+02 -0.37955826339E+00  0.13900917377E+02  0.51100000000E-03 0. -1.
        -11    1    4    4    0    0 -0.10034665585E+02  0.53849229321E+01 -0.11176493003E+02  0.15956375043E+02  0.51100000000E-03 0.  1.
         12    1    4    4    0    0 -0.12673944860E+02  0.15999666909E+01 -0.12581551886E+02  0.17929981025E+02  0.00000000000E+00 0. -1.
</event>
<event>
 8    1  0.6431453E-010  0.9118800E+02  0.7816164E-02  0.1184000E+00
        -11   -1    0    0    0    0  0.00000000000E+00  0.00000000000E+00  0.45593999997E+02  0.45594000000E+02  0.51100000000E-03 0. -1.
         11   -1    0    0    0    0 -0.00000000000E+00 -0.00000000000E+00 -0.45593999997E+02  0.45594000000E+02  0.51100000000E-03 0.  1.
         23    2    1    2    0    0  0.35527136788E-14  0.00000000000E+00  0.00000000000E+00  0.91188000000E+02  0.91188000000E+02 0.  0.
    9900012    2    3    3    0    0 -0.19548883860E+02  0.11526607965E+02 -0.36994599702E+02  0.47787286199E+02  0.20000069095E+02 0.  0.
         12    1    3    3    0    0  0.19548883860E+02 -0.11526607965E+02  0.36994599702E+02  0.43400713801E+02  0.00000000000E+00 0. -1.
         11    1    4    4    0    0 -0.82316534493E+01 -0.33087412346E+01 -0.51070970792E+01  0.10236714703E+02  0.51100000000E-03 0. -1.
        -11    1    4    4    0    0 -0.10636400262E+02  0.11841194906E+02 -0.21708416984E+02  0.26918437465E+02  0.51100000000E-03 0.  1.
        -12    1    4    4    0    0 -0.68083014869E+00  0.29941542942E+01 -0.10179085638E+02  0.10632134031E+02  0.00000000000E+00 0.  1.
</event>
<event>
 8    1  0.4798632E-010  0.9118800E+02  0.7816164E-02  0.1184000E+00
        -11   -1    0    0    0    0  0.00000000000E+00  0.00000000000E+00  0.45593999997E+02  0.45594000000E+02  0.51100000000E-03 0. -1.
         11   -1    0    0    0    0 -0.00000000000E+00 -0.00000000000E+00 -0.45593999997E+02  0.45594000000E+02  0.51100000000E-03 0.  1.
         23    2    1    2    0    0  0.35527136788E-14  0.00000000000E+00  0.00000000000E+00  0.91188000000E+02  0.91188000000E+02 0.  0.
    9900012    2    3    3    0    0  0.27612171011E+02  0.29982440155E+02  0.14907875374E+02  0.47787268972E+02  0.19999990550E+02 0.  0.
        -12    1    3    3    0    0 -0.27612171011E+02 -0.29982440155E+02 -0.14907875374E+02  0.43400731028E+02  0.00000000000E+00 0.  1.
         11    1    4    4    0    0  0.90362724388E+01  0.15884808069E+02  0.14593993056E+02  0.23387303833E+02  0.51100000000E-03 0. -1.
        -11    1    4    4    0    0 -0.87138004993E-01 -0.62147142006E+00 -0.34595838091E-01  0.62850369211E+00  0.51100000000E-03 0.  1.
         12    1    4    4    0    0  0.18663036577E+02  0.14719103506E+02  0.34847815683E+00  0.23771461447E+02  0.00000000000E+00 0. -1.
</event>
<event>
 8    1  0.4798632E-010  0.9118800E+02  0.7816164E-02  0.1184000E+00
        -11   -1    0    0    0    0  0.00000000000E+00  0.00000000000E+00  0.45593999997E+02  0.45594000000E+02  0.51100000000E-03 0. -1.
         11   -1    0    0    0    0 -0.00000000000E+00 -0.00000000000E+00 -0.45593999997E+02  0.45594000000E+02  0.51100000000E-03 0.  1.
         23    2    1    2    0    0  0.00000000000E+00  0.00000000000E+00  0.00000000000E+00  0.91188000000E+02  0.91188000000E+02 0.  0.
    9900012    2    3    3    0    0  0.37884039711E+02 -0.44817441206E+01 -0.20696298664E+02  0.47787271048E+02  0.20000000016E+02 0.  0.
         12    1    3    3    0    0 -0.37884039711E+02  0.44817441206E+01  0.20696298664E+02  0.43400728952E+02  0.00000000000E+00 0. -1.
         11    1    4    4    0    0  0.15970428334E+02 -0.18045824422E+01 -0.43836747687E+01  0.16659162755E+02  0.51100000000E-03 0. -1.
        -11    1    4    4    0    0  0.14597127981E+01  0.33466202224E+01 -0.69291803259E+01  0.78322518228E+01  0.51100000000E-03 0.  1.
        -12    1    4    4    0    0  0.20453898579E+02 -0.60237819009E+01 -0.93834435699E+01  0.23295856470E+02  0.00000000000E+00 0.  1.
</event>
<event>
 8    1  0.4798632E-010  0.9118800E+02  0.7816164E-02  0.1184000E+00
        -11   -1    0    0    0    0  0.00000000000E+00  0.00000000000E+00  0.45593999997E+02  0.45594000000E+02  0.51100000000E-03 0. -1.
         11   -1    0    0    0    0 -0.00000000000E+00 -0.00000000000E+00 -0.45593999997E+02  0.45594000000E+02  0.51100000000E-03 0.  1.
         23    2    1    2    0    0  0.17763568394E-14  0.00000000000E+00  0.00000000000E+00  0.91188000000E+02  0.91188000000E+02 0.  0.
    9900012    2    3    3    0    0  0.11478401968E+02  0.26760584487E+02  0.32182940251E+02  0.47787259949E+02  0.19999949409E+02 0.  0.
        -12    1    3    3    0    0 -0.11478401968E+02 -0.26760584487E+02 -0.32182940251E+02  0.43400740051E+02  0.00000000000E+00 0.  1.
         11    1    4    4    0    0  0.65621746589E+01  0.54257691349E+01  0.11161449019E+02  0.14038484655E+02  0.51100000000E-03 0. -1.
        -11    1    4    4    0    0  0.83441656914E+01  0.16885418527E+02  0.98732695294E+01  0.21265556926E+02  0.51100000000E-03 0.  1.
        -12    1    4    4    0    0 -0.34279383824E+01  0.44493968248E+01  0.11148221703E+02  0.12483218367E+02  0.00000000000E+00 0.  1.
</event>
<event>
 8    1  0.4798632E-010  0.9118800E+02  0.7816164E-02  0.1184000E+00
        -11   -1    0    0    0    0  0.00000000000E+00  0.00000000000E+00  0.45593999997E+02  0.45594000000E+02  0.51100000000E-03 0. -1.
         11   -1    0    0    0    0 -0.00000000000E+00 -0.00000000000E+00 -0.45593999997E+02  0.45594000000E+02  0.51100000000E-03 0.  1.
         23    2    1    2    0    0  0.00000000000E+00  0.00000000000E+00  0.00000000000E+00  0.91188000000E+02  0.91188000000E+02 0.  0.
    9900012    2    3    3    0    0  0.29906837152E+02 -0.16840104719E+02  0.26563412926E+02  0.47787274871E+02  0.20000017447E+02 0.  0.
        -12    1    3    3    0    0 -0.29906837152E+02  0.16840104719E+02 -0.26563412926E+02  0.43400725129E+02  0.00000000000E+00 0.  1.
         11    1    4    4    0    0  0.28038899550E+02 -0.12437793400E+02  0.18592315019E+02  0.35868548489E+02  0.51100000000E-03 0. -1.
        -11    1    4    4    0    0 -0.21926534882E+01  0.72535515265E+00  0.18268269930E+01  0.29446844551E+01  0.51100000000E-03 0.  1.
         12    1    4    4    0    0  0.40605910906E+01 -0.51276664718E+01  0.61442709137E+01  0.89740419273E+01  0.00000000000E+00 0. -1.
</event>
<event>
 8    1  0.4798632E-010  0.9118800E+02  0.7816164E-02  0.1184000E+00
        -11   -1    0    0    0    0  0.00000000000E+00  0.00000000000E+00  0.45593999997E+02  0.45594000000E+02  0.51100000000E-03 0. -1.
         11   -1    0    0    0    0 -0.00000000000E+00 -0.00000000000E+00 -0.45593999997E+02  0.45594000000E+02  0.51100000000E-03 0.  1.
         23    2    1    2    0    0 -0.17763568394E-14  0.00000000000E+00 -0.35527136788E-14  0.91188000000E+02  0.91188000000E+02 0.  0.
    9900012    2    3    3    0    0  0.68056194637E+01 -0.29201619648E+02  0.31377911973E+02  0.47787258000E+02  0.19999940527E+02 0.  0.
        -12    1    3    3    0    0 -0.68056194637E+01  0.29201619648E+02 -0.31377911973E+02  0.43400742000E+02  0.00000000000E+00 0.  1.
         11    1    4    4    0    0 -0.26314688277E+01  0.29036456429E-01  0.90419644809E+01  0.94171435819E+01  0.51100000000E-03 0. -1.
        -11    1    4    4    0    0  0.37175140267E+01 -0.10716565701E+02  0.51020925064E+01  0.12437686246E+02  0.51100000000E-03 0.  1.
         12    1    4    4    0    0  0.57195742648E+01 -0.18514090404E+02  0.17233854986E+02  0.25932428172E+02  0.00000000000E+00 0. -1.
</event>
<event>
 8    1  0.4798632E-010  0.9118800E+02  0.7816164E-02  0.1184000E+00
        -11   -1    0    0    0    0  0.00000000000E+00  0.00000000000E+00  0.45593999997E+02  0.45594000000E+02  0.51100000000E-03 0. -1.
         11   -1    0    0    0    0 -0.00000000000E+00 -0.00000000000E+00 -0.45593999997E+02  0.45594000000E+02  0.51100000000E-03 0.  1.
         23    2    1    2    0    0  0.00000000000E+00  0.00000000000E+00  0.00000000000E+00  0.91188000000E+02  0.91188000000E+02 0.  0.
    9900012    2    3    3    0    0 -0.34211019119E+01 -0.19984291612E+02 -0.38373764603E+02  0.47787289645E+02  0.20000084805E+02 0.  0.
         12    1    3    3    0    0  0.34211019119E+01  0.19984291612E+02  0.38373764603E+02  0.43400710355E+02  0.00000000000E+00 0. -1.
         11    1    4    4    0    0 -0.53827691442E+01 -0.18555835412E+02 -0.34788926750E+02  0.39794002766E+02  0.51100000000E-03 0. -1.
        -11    1    4    4    0    0  0.15513782611E+00 -0.38724373118E+01 -0.29937104640E+01  0.48971564282E+01  0.51100000000E-03 0.  1.
         12    1    4    4    0    0  0.18065294062E+01  0.24439811123E+01 -0.59112738963E+00  0.30961304500E+01  0.00000000000E+00 0. -1.
</event>
<event>
 8    1  0.4798632E-010  0.9118800E+02  0.7816164E-02  0.1184000E+00
        -11   -1    0    0    0    0  0.00000000000E+00  0.00000000000E+00  0.45593999997E+02  0.45594000000E+02  0.51100000000E-03 0. -1.
         11   -1    0    0    0    0 -0.00000000000E+00 -0.00000000000E+00 -0.45593999997E+02  0.45594000000E+02  0.51100000000E-03 0.  1.
         23    2    1    2    0    0  0.00000000000E+00  0.71054273576E-14  0.00000000000E+00  0.91188000000E+02  0.91188000000E+02 0.  0.
    9900012    2    3    3    0    0  0.11070972505E+02 -0.38358626123E+02 -0.17019771514E+02  0.47787271289E+02  0.20000001115E+02 0.  0.
         12    1    3    3    0    0 -0.11070972505E+02  0.38358626123E+02  0.17019771514E+02  0.43400728711E+02  0.00000000000E+00 0. -1.
         11    1    4    4    0    0  0.12551627783E+02 -0.28647387836E+02 -0.51782417080E+01  0.31702214076E+02  0.51100000000E-03 0. -1.
        -11    1    4    4    0    0 -0.11744821787E+01 -0.95226151590E+01 -0.87901050474E+01  0.13012515316E+02  0.51100000000E-03 0.  1.
         12    1    4    4    0    0 -0.30617309944E+00 -0.18862312787E+00 -0.30514247587E+01  0.30725418971E+01  0.00000000000E+00 0. -1.
</event>
<event>
 8    1  0.4798632E-010  0.9118800E+02  0.7816164E-02  0.1184000E+00
        -11   -1    0    0    0    0  0.00000000000E+00  0.00000000000E+00  0.45593999997E+02  0.45594000000E+02  0.51100000000E-03 0. -1.
         11   -1    0    0    0    0 -0.00000000000E+00 -0.00000000000E+00 -0.45593999997E+02  0.45594000000E+02  0.51100000000E-03 0.  1.
         23    2    1    2    0    0 -0.44408920985E-15  0.00000000000E+00  0.00000000000E+00  0.91188000000E+02  0.91188000000E+02 0.  0.
    9900012    2    3    3    0    0  0.39142671337E+01  0.34129220824E+02 -0.26523525912E+02  0.47787278485E+02  0.20000033924E+02 0.  0.
         12    1    3    3    0    0 -0.39142671337E+01 -0.34129220824E+02  0.26523525912E+02  0.43400721515E+02  0.00000000000E+00 0. -1.
         11    1    4    4    0    0 -0.50937553825E+01  0.29235593216E+01 -0.78510675885E+00  0.59253637768E+01  0.51100000000E-03 0. -1.
        -11    1    4    4    0    0  0.47802225976E+01  0.11322015127E+02 -0.12910389570E+02  0.17824609778E+02  0.51100000000E-03 0.  1.
         12    1    4    4    0    0  0.42277999186E+01  0.19883646376E+02 -0.12828029583E+02  0.24037304931E+02  0.00000000000E+00 0. -1.
</event>
<event>
 8    1  0.4798632E-010  0.9118800E+02  0.7816164E-02  0.1184000E+00
        -11   -1    0    0    0    0  0.00000000000E+00  0.00000000000E+00  0.45593999997E+02  0.45594000000E+02  0.51100000000E-03 0. -1.
         11   -1    0    0    0    0 -0.00000000000E+00 -0.00000000000E+00 -0.45593999997E+02  0.45594000000E+02  0.51100000000E-03 0.  1.
         23    2    1    2    0    0  0.00000000000E+00 -0.35527136788E-14  0.71054273576E-14  0.91188000000E+02  0.91188000000E+02 0.  0.
    9900012    2    3    3    0    0 -0.14356795166E+02 -0.20611291294E+02  0.35393226227E+02  0.47787270064E+02  0.19999995528E+02 0.  0.
        -12    1    3    3    0    0  0.14356795166E+02  0.20611291294E+02 -0.35393226227E+02  0.43400729936E+02  0.00000000000E+00 0.  1.
         11    1    4    4    0    0 -0.13876132391E+02 -0.51007292144E+01  0.19585924975E+02  0.24539212417E+02  0.51100000000E-03 0. -1.
        -11    1    4    4    0    0 -0.10587479915E+01  0.26793012035E+00  0.19753703273E+01  0.22571712496E+01  0.51100000000E-03 0.  1.
         12    1    4    4    0    0  0.57808521703E+00 -0.15778492200E+02  0.13831930925E+02  0.20990886397E+02  0.00000000000E+00 0. -1.
</event>
<event>
 8    1  0.4798632E-010  0.9118800E+02  0.7816164E-02  0.1184000E+00
        -11   -1    0    0    0    0  0.00000000000E+00  0.00000000000E+00  0.45593999997E+02  0.45594000000E+02  0.51100000000E-03 0. -1.
         11   -1    0    0    0    0 -0.00000000000E+00 -0.00000000000E+00 -0.45593999997E+02  0.45594000000E+02  0.51100000000E-03 0.  1.
         23    2    1    2    0    0 -0.88817841970E-15 -0.88817841970E-15 -0.71054273576E-14  0.91188000000E+02  0.91188000000E+02 0.  0.
    9900012    2    3    3    0    0  0.59905399658E+01 -0.76133220058E+01 -0.42305719625E+02  0.47787272425E+02  0.20000006296E+02 0.  0.
         12    1    3    3    0    0 -0.59905399658E+01  0.76133220058E+01  0.42305719625E+02  0.43400727575E+02  0.00000000000E+00 0. -1.
         11    1    4    4    0    0 -0.31492319127E+01  0.92866513678E+00 -0.25675606287E+01  0.41680269216E+01  0.51100000000E-03 0. -1.
        -11    1    4    4    0    0  0.10189887997E+02 -0.10029078538E+02 -0.39192221035E+02  0.41718657979E+02  0.51100000000E-03 0.  1.
        -12    1    4    4    0    0 -0.10501161185E+01  0.14870913953E+01 -0.54593796137E+00  0.19005875245E+01  0.00000000000E+00 0.  1.
</event>
<event>
 8    1  0.4798632E-010  0.9118800E+02  0.7816164E-02  0.1184000E+00
        -11   -1    0    0    0    0  0.00000000000E+00  0.00000000000E+00  0.45593999997E+02  0.45594000000E+02  0.51100000000E-03 0. -1.
         11   -1    0    0    0    0 -0.00000000000E+00 -0.00000000000E+00 -0.45593999997E+02  0.45594000000E+02  0.51100000000E-03 0.  1.
         23    2    1    2    0    0  0.00000000000E+00 -0.22204460493E-15  0.00000000000E+00  0.91188000000E+02  0.91188000000E+02 0.  0.
    9900012    2    3    3    0    0  0.21844668685E+02 -0.12796122237E+01  0.37480630330E+02  0.47787255683E+02  0.19999929959E+02 0.  0.
        -12    1    3    3    0    0 -0.21844668685E+02  0.12796122237E+01 -0.37480630330E+02  0.43400744317E+02  0.00000000000E+00 0.  1.
         11    1    4    4    0    0  0.19045878012E+02 -0.48701927123E+01  0.37255254211E+02  0.42123843757E+02  0.51100000000E-03 0. -1.
        -11    1    4    4    0    0  0.24019040135E+01  0.60756619454E+00 -0.58749348058E+00  0.25462577288E+01  0.51100000000E-03 0.  1.
         12    1    4    4    0    0  0.39688665921E+00  0.29830142941E+01  0.81286959950E+00  0.31171541965E+01  0.00000000000E+00 0. -1.
</event>
<event>
 8    1  0.4798632E-010  0.9118800E+02  0.7816164E-02  0.1184000E+00
        -11   -1    0    0    0    0  0.00000000000E+00  0.00000000000E+00  0.45593999997E+02  0.45594000000E+02  0.51100000000E-03 0. -1.
         11   -1    0    0    0    0 -0.00000000000E+00 -0.00000000000E+00 -0.45593999997E+02  0.45594000000E+02  0.51100000000E-03 0.  1.
         23    2    1    2    0    0  0.00000000000E+00  0.00000000000E+00  0.35527136788E-14  0.91188000000E+02  0.91188000000E+02 0.  0.
    9900012    2    3    3    0    0 -0.27599141016E+02 -0.24482348159E+02 -0.22858826126E+02  0.47787263969E+02  0.19999967739E+02 0.  0.
         12    1    3    3    0    0  0.27599141016E+02  0.24482348159E+02  0.22858826126E+02  0.43400736031E+02  0.00000000000E+00 0. -1.
         11    1    4    4    0    0 -0.20592577994E+01 -0.14856892650E+01 -0.92133390844E+00  0.27012352191E+01  0.51100000000E-03 0. -1.
        -11    1    4    4    0    0 -0.14046962937E+02 -0.23723841574E+02 -0.17951689892E+02  0.32899863176E+02  0.51100000000E-03 0.  1.
        -12    1    4    4    0    0 -0.11492920280E+02  0.72718267949E+00 -0.39858023246E+01  0.12186165573E+02  0.00000000000E+00 0.  1.
</event>
<event>
 8    1  0.4798632E-010  0.9118800E+02  0.7816164E-02  0.1184000E+00
        -11   -1    0    0    0    0  0.00000000000E+00  0.00000000000E+00  0.45593999997E+02  0.45594000000E+02  0.51100000000E-03 0. -1.
         11   -1    0    0    0    0 -0.00000000000E+00 -0.00000000000E+00 -0.45593999997E+02  0.45594000000E+02  0.51100000000E-03 0.  1.
         23    2    1    2    0    0 -0.71054273576E-14  0.35527136788E-14 -0.88817841970E-15  0.91188000000E+02  0.91188000000E+02 0.  0.
    9900012    2    3    3    0    0 -0.31253330982E+02  0.29897764142E+02 -0.36022609428E+01  0.47787270950E+02  0.19999999571E+02 0.  0.
         12    1    3    3    0    0  0.31253330982E+02 -0.29897764142E+02  0.36022609428E+01  0.43400729050E+02  0.00000000000E+00 0. -1.
         11    1    4    4    0    0 -0.13807040453E+02  0.67231368477E+01  0.69652946666E+01  0.16862688552E+02  0.51100000000E-03 0. -1.
        -11    1    4    4    0    0 -0.11648717247E+02  0.15251707559E+02 -0.60923271985E+01  0.20135134664E+02  0.51100000000E-03 0.  1.
         12    1    4    4    0    0 -0.57975732814E+01  0.79229197353E+01 -0.44752284108E+01  0.10789447734E+02  0.00000000000E+00 0. -1.
</event>
<event>
 8    1  0.4798632E-010  0.9118800E+02  0.7816164E-02  0.1184000E+00
        -11   -1    0    0    0    0  0.00000000000E+00  0.00000000000E+00  0.45593999997E+02  0.45594000000E+02  0.51100000000E-03 0. -1.
         11   -1    0    0    0    0 -0.00000000000E+00 -0.00000000000E+00 -0.45593999997E+02  0.45594000000E+02  0.51100000000E-03 0.  1.
         23    2    1    2    0    0  0.13322676296E-14  0.00000000000E+00  0.00000000000E+00  0.91188000000E+02  0.91188000000E+02 0.  0.
    9900012    2    3    3    0    0  0.20787982008E+01  0.35490874944E+01  0.43205399939E+02  0.47787262588E+02  0.19999961442E+02 0.  0.
        -12    1    3    3    0    0 -0.20787982008E+01 -0.35490874944E+01 -0.43205399939E+02  0.43400737412E+02  0.00000000000E+00 0.  1.
         11    1    4    4    0    0 -0.34742371472E+01  0.20183237747E+01  0.79427097155E+00  0.40957076619E+01  0.51100000000E-03 0. -1.
        -11    1    4    4    0    0  0.85555481472E+00  0.18310305360E+01  0.15160443387E+01  0.25264674078E+01  0.51100000000E-03 0.  1.
         12    1    4    4    0    0  0.46974805333E+01 -0.30026681633E+00  0.40895084629E+02  0.41165087518E+02  0.00000000000E+00 0. -1.
</event>
<event>
 8    1  0.4798632E-010  0.9118800E+02  0.7816164E-02  0.1184000E+00
        -11   -1    0    0    0    0  0.00000000000E+00  0.00000000000E+00  0.45593999997E+02  0.45594000000E+02  0.51100000000E-03 0. -1.
         11   -1    0    0    0    0 -0.00000000000E+00 -0.00000000000E+00 -0.45593999997E+02  0.45594000000E+02  0.51100000000E-03 0.  1.
         23    2    1    2    0    0  0.66613381478E-15  0.00000000000E+00  0.71054273576E-14  0.91188000000E+02  0.91188000000E+02 0.  0.
    9900012    2    3    3    0    0  0.18693244819E+01  0.66532978099E+01 -0.42846966105E+02  0.47787271317E+02  0.20000001244E+02 0.  0.
         12    1    3    3    0    0 -0.18693244819E+01 -0.66532978099E+01  0.42846966105E+02  0.43400728683E+02  0.00000000000E+00 0. -1.
         11    1    4    4    0    0 -0.35728938085E+01  0.10130141037E+02 -0.33631430575E+02  0.35305218458E+02  0.51100000000E-03 0. -1.
        -11    1    4    4    0    0 -0.10324797451E+01 -0.90131276191E+00 -0.22146390820E+01  0.26044204045E+01  0.51100000000E-03 0.  1.
         12    1    4    4    0    0  0.64746980355E+01 -0.25755304657E+01 -0.70008964484E+01  0.98776324548E+01  0.00000000000E+00 0. -1.
</event>
<event>
 8    1  0.4798632E-010  0.9118800E+02  0.7816164E-02  0.1184000E+00
        -11   -1    0    0    0    0  0.00000000000E+00  0.00000000000E+00  0.45593999997E+02  0.45594000000E+02  0.51100000000E-03 0. -1.
         11   -1    0    0    0    0 -0.00000000000E+00 -0.00000000000E+00 -0.45593999997E+02  0.45594000000E+02  0.51100000000E-03 0.  1.
         23    2    1    2    0    0  0.00000000000E+00  0.35527136788E-14  0.00000000000E+00  0.91188000000E+02  0.91188000000E+02 0.  0.
    9900012    2    3    3    0    0 -0.51319225775E+01 -0.28070209404E+02  0.32700916393E+02  0.47787271685E+02  0.20000002922E+02 0.  0.
        -12    1    3    3    0    0  0.51319225775E+01  0.28070209404E+02 -0.32700916393E+02  0.43400728315E+02  0.00000000000E+00 0.  1.
         11    1    4    4    0    0  0.19320065546E+01 -0.14503641019E+00  0.10259403542E+02  0.10440739734E+02  0.51100000000E-03 0. -1.
        -11    1    4    4    0    0 -0.42941194775E+01 -0.16506381345E+02  0.83228156822E+01  0.18978128156E+02  0.51100000000E-03 0.  1.
         12    1    4    4    0    0 -0.27698096546E+01 -0.11418791649E+02  0.14118697169E+02  0.18368403795E+02  0.00000000000E+00 0. -1.
</event>
<event>
 8    1  0.4798632E-010  0.9118800E+02  0.7816164E-02  0.1184000E+00
        -11   -1    0    0    0    0  0.00000000000E+00  0.00000000000E+00  0.45593999997E+02  0.45594000000E+02  0.51100000000E-03 0. -1.
         11   -1    0    0    0    0 -0.00000000000E+00 -0.00000000000E+00 -0.45593999997E+02  0.45594000000E+02  0.51100000000E-03 0.  1.
         23    2    1    2    0    0  0.17763568394E-14  0.71054273576E-14  0.00000000000E+00  0.91188000000E+02  0.91188000000E+02 0.  0.
    9900012    2    3    3    0    0  0.10502103528E+02  0.35903721607E+02  0.22005733886E+02  0.47787265817E+02  0.19999976166E+02 0.  0.
        -12    1    3    3    0    0 -0.10502103528E+02 -0.35903721607E+02 -0.22005733886E+02  0.43400734183E+02  0.00000000000E+00 0.  1.
         11    1    4    4    0    0  0.14055111244E+02  0.17520191093E+02  0.69859543409E+01  0.23522474494E+02  0.51100000000E-03 0. -1.
        -11    1    4    4    0    0 -0.17519828851E+01  0.10704401096E+02  0.64586264194E+01  0.12624084218E+02  0.51100000000E-03 0.  1.
         12    1    4    4    0    0 -0.18010248307E+01  0.76791294178E+01  0.85611531254E+01  0.11640707104E+02  0.00000000000E+00 0. -1.
</event>
<event>
 8    1  0.4798632E-010  0.9118800E+02  0.7816164E-02  0.1184000E+00
        -11   -1    0    0    0    0  0.00000000000E+00  0.00000000000E+00  0.45593999997E+02  0.45594000000E+02  0.51100000000E-03 0. -1.
         11   -1    0    0    0    0 -0.00000000000E+00 -0.00000000000E+00 -0.45593999997E+02  0.45594000000E+02  0.51100000000E-03 0.  1.
         23    2    1    2    0    0 -0.35527136788E-14  0.00000000000E+00 -0.35527136788E-14  0.91188000000E+02  0.91188000000E+02 0.  0.
    9900012    2    3    3    0    0 -0.27924184525E+02 -0.12873926519E+02 -0.30628830918E+02  0.47787270181E+02  0.19999996063E+02 0.  0.
         12    1    3    3    0    0  0.27924184525E+02  0.12873926519E+02  0.30628830918E+02  0.43400729819E+02  0.00000000000E+00 0. -1.
         11    1    4    4    0    0 -0.75173427200E+00  0.12165802723E+01 -0.13813706858E+01  0.19883051092E+01  0.51100000000E-03 0. -1.
        -11    1    4    4    0    0 -0.62108642429E+01 -0.44620681021E+01 -0.19146183262E+02  0.20617012882E+02  0.51100000000E-03 0.  1.
        -12    1    4    4    0    0 -0.20961586010E+02 -0.96284386891E+01 -0.10101276970E+02  0.25181952190E+02  0.00000000000E+00 0.  1.
</event>
<event>
 8    1  0.4798632E-010  0.9118800E+02  0.7816164E-02  0.1184000E+00
        -11   -1    0    0    0    0  0.00000000000E+00  0.00000000000E+00  0.45593999997E+02  0.45594000000E+02  0.51100000000E-03 0. -1.
         11   -1    0    0    0    0 -0.00000000000E+00 -0.00000000000E+00 -0.45593999997E+02  0.45594000000E+02  0.51100000000E-03 0.  1.
         23    2    1    2    0    0  0.00000000000E+00  0.00000000000E+00  0.00000000000E+00  0.91188000000E+02  0.91188000000E+02 0.  0.
    9900012    2    3    3    0    0 -0.34039992990E+01  0.43067525738E+02 -0.41501986167E+01  0.47787272668E+02  0.20000007402E+02 0.  0.
         12    1    3    3    0    0  0.34039992990E+01 -0.43067525738E+02  0.41501986167E+01  0.43400727332E+02  0.00000000000E+00 0. -1.
         11    1    4    4    0    0 -0.37580778885E+01  0.15636988049E+02 -0.94735678312E+01  0.18665128780E+02  0.51100000000E-03 0. -1.
        -11    1    4    4    0    0 -0.29933986556E+01  0.22329052443E+02  0.40909150297E+01  0.22897218271E+02  0.51100000000E-03 0.  1.
         12    1    4    4    0    0  0.33474772451E+01  0.51014852458E+01  0.12324541848E+01  0.62249256170E+01  0.00000000000E+00 0. -1.
</event>
<event>
 8    1  0.4798632E-010  0.9118800E+02  0.7816164E-02  0.1184000E+00
        -11   -1    0    0    0    0  0.00000000000E+00  0.00000000000E+00  0.45593999997E+02  0.45594000000E+02  0.51100000000E-03 0. -1.
         11   -1    0    0    0    0 -0.00000000000E+00 -0.00000000000E+00 -0.45593999997E+02  0.45594000000E+02  0.51100000000E-03 0.  1.
         23    2    1    2    0    0  0.22204460493E-15 -0.17763568394E-14  0.71054273576E-14  0.91188000000E+02  0.91188000000E+02 0.  0.
    9900012    2    3    3    0    0  0.14125114050E+01 -0.89671781924E+01  0.42440754138E+02  0.47787273220E+02  0.20000009921E+02 0.  0.
        -12    1    3    3    0    0 -0.14125114050E+01  0.89671781924E+01 -0.42440754138E+02  0.43400726780E+02  0.00000000000E+00 0.  1.
         11    1    4    4    0    0  0.19659053226E+01 -0.12252130925E+02  0.32330571683E+02  0.34630122170E+02  0.51100000000E-03 0. -1.
        -11    1    4    4    0    0  0.18870934378E+01  0.49832102810E+01  0.75035906549E+01  0.92031179132E+01  0.51100000000E-03 0.  1.
        -12    1    4    4    0    0 -0.24404873555E+01 -0.16982575484E+01  0.26065918003E+01  0.39540331367E+01  0.00000000000E+00 0.  1.
</event>
<event>
 8    1  0.4798632E-010  0.9118800E+02  0.7816164E-02  0.1184000E+00
        -11   -1    0    0    0    0  0.00000000000E+00  0.00000000000E+00  0.45593999997E+02  0.45594000000E+02  0.51100000000E-03 0. -1.
         11   -1    0    0    0    0 -0.00000000000E+00 -0.00000000000E+00 -0.45593999997E+02  0.45594000000E+02  0.51100000000E-03 0.  1.
         23    2    1    2    0    0  0.00000000000E+00  0.88817841970E-15  0.00000000000E+00  0.91188000000E+02  0.91188000000E+02 0.  0.
    9900012    2    3    3    0    0 -0.26842159103E+02  0.45869639332E+01 -0.33794696174E+02  0.47787271516E+02  0.20000002150E+02 0.  0.
         12    1    3    3    0    0  0.26842159103E+02 -0.45869639332E+01  0.33794696174E+02  0.43400728484E+02  0.00000000000E+00 0. -1.
         11    1    4    4    0    0 -0.16794409421E+02  0.58229074305E+01 -0.87095685942E+01  0.19794317975E+02  0.51100000000E-03 0. -1.
        -11    1    4    4    0    0 -0.83474804504E+00 -0.13929531375E+01 -0.11273039727E+02  0.11389405063E+02  0.51100000000E-03 0.  1.
        -12    1    4    4    0    0 -0.92130016368E+01  0.15700964024E+00 -0.13812087853E+02  0.16603548478E+02  0.00000000000E+00 0.  1.
</event>
<event>
 8    1  0.4798632E-010  0.9118800E+02  0.7816164E-02  0.1184000E+00
        -11   -1    0    0    0    0  0.00000000000E+00  0.00000000000E+00  0.45593999997E+02  0.45594000000E+02  0.51100000000E-03 0. -1.
         11   -1    0    0    0    0 -0.00000000000E+00 -0.00000000000E+00 -0.45593999997E+02  0.45594000000E+02  0.51100000000E-03 0.  1.
         23    2    1    2    0    0  0.35527136788E-14 -0.35527136788E-14  0.00000000000E+00  0.91188000000E+02  0.91188000000E+02 0.  0.
    9900012    2    3    3    0    0 -0.16103142297E+02  0.22049033408E+02 -0.33736515283E+02  0.47787268099E+02  0.19999986571E+02 0.  0.
         12    1    3    3    0    0  0.16103142297E+02 -0.22049033408E+02  0.33736515283E+02  0.43400731901E+02  0.00000000000E+00 0. -1.
         11    1    4    4    0    0 -0.57998997835E+01 -0.20414406151E+01 -0.54650750760E+01  0.82263821411E+01  0.51100000000E-03 0. -1.
        -11    1    4    4    0    0 -0.11787027155E+02  0.21203591254E+02 -0.23391063650E+02  0.33699675816E+02  0.51100000000E-03 0.  1.
         12    1    4    4    0    0  0.14837846407E+01  0.28868827696E+01 -0.48803765571E+01  0.58612101416E+01  0.00000000000E+00 0. -1.
</event>
<event>
 8    1  0.4798632E-010  0.9118800E+02  0.7816164E-02  0.1184000E+00
        -11   -1    0    0    0    0  0.00000000000E+00  0.00000000000E+00  0.45593999997E+02  0.45594000000E+02  0.51100000000E-03 0. -1.
         11   -1    0    0    0    0 -0.00000000000E+00 -0.00000000000E+00 -0.45593999997E+02  0.45594000000E+02  0.51100000000E-03 0.  1.
         23    2    1    2    0    0  0.00000000000E+00  0.00000000000E+00  0.00000000000E+00  0.91188000000E+02  0.91188000000E+02 0.  0.
    9900012    2    3    3    0    0  0.30254828621E+02 -0.12992377645E+02  0.28274841064E+02  0.47787272253E+02  0.20000005512E+02 0.  0.
        -12    1    3    3    0    0 -0.30254828621E+02  0.12992377645E+02 -0.28274841064E+02  0.43400727747E+02  0.00000000000E+00 0.  1.
         11    1    4    4    0    0  0.51778235414E+01 -0.17389735142E+01  0.29890498005E+01  0.62264198766E+01  0.51100000000E-03 0.  1.
        -11    1    4    4    0    0  0.23967055314E+02 -0.15220371026E+02  0.24187454366E+02  0.37297619006E+02  0.51100000000E-03 0. -1.
        -12    1    4    4    0    0  0.11099497658E+01  0.39669668954E+01  0.10983368977E+01  0.42632333706E+01  0.00000000000E+00 0.  1.
</event>
<event>
 8    1  0.4798632E-010  0.9118800E+02  0.7816164E-02  0.1184000E+00
        -11   -1    0    0    0    0  0.00000000000E+00  0.00000000000E+00  0.45593999997E+02  0.45594000000E+02  0.51100000000E-03 0. -1.
         11   -1    0    0    0    0 -0.00000000000E+00 -0.00000000000E+00 -0.45593999997E+02  0.45594000000E+02  0.51100000000E-03 0.  1.
         23    2    1    2    0    0  0.00000000000E+00  0.35527136788E-14 -0.35527136788E-14  0.91188000000E+02  0.91188000000E+02 0.  0.
    9900012    2    3    3    0    0  0.16127843408E+02 -0.29852954944E+02 -0.27061351893E+02  0.47787273991E+02  0.20000013433E+02 0.  0.
         12    1    3    3    0    0 -0.16127843408E+02  0.29852954944E+02  0.27061351893E+02  0.43400726009E+02  0.00000000000E+00 0. -1.
         11    1    4    4    0    0  0.67421225725E+01 -0.14007321590E+02 -0.15942777016E+02  0.22267317175E+02  0.51100000000E-03 0. -1.
        -11    1    4    4    0    0 -0.42378008560E+00 -0.10416131260E+01  0.27605218446E+01  0.29807765064E+01  0.51100000000E-03 0.  1.
        -12    1    4    4    0    0  0.98095009209E+01 -0.14804020228E+02 -0.13879096722E+02  0.22539180310E+02  0.00000000000E+00 0.  1.
</event>
<event>
 8    1  0.4798632E-010  0.9118800E+02  0.7816164E-02  0.1184000E+00
        -11   -1    0    0    0    0  0.00000000000E+00  0.00000000000E+00  0.45593999997E+02  0.45594000000E+02  0.51100000000E-03 0. -1.
         11   -1    0    0    0    0 -0.00000000000E+00 -0.00000000000E+00 -0.45593999997E+02  0.45594000000E+02  0.51100000000E-03 0.  1.
         23    2    1    2    0    0 -0.17763568394E-14  0.35527136788E-14  0.00000000000E+00  0.91188000000E+02  0.91188000000E+02 0.  0.
    9900012    2    3    3    0    0  0.12958304332E+02  0.31264276489E+02 -0.27170771955E+02  0.47787268622E+02  0.19999988954E+02 0.  0.
         12    1    3    3    0    0 -0.12958304332E+02 -0.31264276489E+02  0.27170771955E+02  0.43400731378E+02  0.00000000000E+00 0. -1.
         11    1    4    4    0    0  0.28503266692E+01  0.25929403251E+01  0.25314167239E+01  0.46103983061E+01  0.51100000000E-03 0. -1.
        -11    1    4    4    0    0  0.39327737922E+01  0.21539879041E+02 -0.21196996600E+02  0.30475330416E+02  0.51100000000E-03 0.  1.
         12    1    4    4    0    0  0.61752038707E+01  0.71314571223E+01 -0.85051920783E+01  0.12701539900E+02  0.00000000000E+00 0. -1.
</event>
<event>
 8    1  0.4798632E-010  0.9118800E+02  0.7816164E-02  0.1184000E+00
        -11   -1    0    0    0    0  0.00000000000E+00  0.00000000000E+00  0.45593999997E+02  0.45594000000E+02  0.51100000000E-03 0. -1.
         11   -1    0    0    0    0 -0.00000000000E+00 -0.00000000000E+00 -0.45593999997E+02  0.45594000000E+02  0.51100000000E-03 0.  1.
         23    2    1    2    0    0 -0.35527136788E-14 -0.35527136788E-14  0.00000000000E+00  0.91188000000E+02  0.91188000000E+02 0.  0.
    9900012    2    3    3    0    0 -0.25393406977E+02 -0.22970062803E+02 -0.26667852825E+02  0.47787271004E+02  0.19999999816E+02 0.  0.
         12    1    3    3    0    0  0.25393406977E+02  0.22970062803E+02  0.26667852825E+02  0.43400728996E+02  0.00000000000E+00 0. -1.
         11    1    4    4    0    0 -0.17624747795E+02 -0.98119605654E+01 -0.78383309178E+01  0.21641297023E+02  0.51100000000E-03 0.  1.
        -11    1    4    4    0    0 -0.10116729403E+01 -0.13329994864E+01  0.11034208135E+01  0.20044718810E+01  0.51100000000E-03 0. -1.
        -12    1    4    4    0    0 -0.67569862410E+01 -0.11825102751E+02 -0.19932942721E+02  0.24141502100E+02  0.00000000000E+00 0.  1.
</event>
<event>
 8    1  0.4798632E-010  0.9118800E+02  0.7816164E-02  0.1184000E+00
        -11   -1    0    0    0    0  0.00000000000E+00  0.00000000000E+00  0.45593999997E+02  0.45594000000E+02  0.51100000000E-03 0.  1.
         11   -1    0    0    0    0 -0.00000000000E+00 -0.00000000000E+00 -0.45593999997E+02  0.45594000000E+02  0.51100000000E-03 0. -1.
         23    2    1    2    0    0  0.00000000000E+00  0.00000000000E+00  0.88817841970E-15  0.91188000000E+02  0.91188000000E+02 0.  0.
    9900012    2    3    3    0    0 -0.39309452421E+02 -0.17974333970E+02  0.39132207931E+01  0.47787273874E+02  0.20000012901E+02 0.  0.
         12    1    3    3    0    0  0.39309452421E+02  0.17974333970E+02 -0.39132207931E+01  0.43400726126E+02  0.00000000000E+00 0. -1.
         11    1    4    4    0    0 -0.56104927601E+01 -0.97510396169E+01 -0.40944180006E+01  0.11971827832E+02  0.51100000000E-03 0. -1.
        -11    1    4    4    0    0 -0.17938378141E+02 -0.63841116492E+01  0.42531880819E+01  0.19509789876E+02  0.51100000000E-03 0.  1.
         12    1    4    4    0    0 -0.15760581519E+02 -0.18391827039E+01  0.37544507118E+01  0.16305656165E+02  0.00000000000E+00 0. -1.
</event>
<event>
 8    1  0.4798632E-010  0.9118800E+02  0.7816164E-02  0.1184000E+00
        -11   -1    0    0    0    0  0.00000000000E+00  0.00000000000E+00  0.45593999997E+02  0.45594000000E+02  0.51100000000E-03 0. -1.
         11   -1    0    0    0    0 -0.00000000000E+00 -0.00000000000E+00 -0.45593999997E+02  0.45594000000E+02  0.51100000000E-03 0.  1.
         23    2    1    2    0    0  0.00000000000E+00 -0.44408920985E-15  0.00000000000E+00  0.91188000000E+02  0.91188000000E+02 0.  0.
    9900012    2    3    3    0    0 -0.32297678796E+02 -0.32371588942E+01  0.28809788823E+02  0.47787272065E+02  0.20000004651E+02 0.  0.
        -12    1    3    3    0    0  0.32297678796E+02  0.32371588942E+01 -0.28809788823E+02  0.43400727935E+02  0.00000000000E+00 0.  1.
         11    1    4    4    0    0 -0.26917802316E+01 -0.63015465381E+01  0.39787323261E+01  0.79237289688E+01  0.51100000000E-03 0. -1.
        -11    1    4    4    0    0 -0.22594324476E+02  0.45664784676E+01  0.22773478264E+02  0.32403511178E+02  0.51100000000E-03 0.  1.
        -12    1    4    4    0    0 -0.70115740882E+01 -0.15020908238E+01  0.20575782326E+01  0.74600319182E+01  0.00000000000E+00 0.  1.
</event>
<event>
 8    1  0.4798632E-010  0.9118800E+02  0.7816164E-02  0.1184000E+00
        -11   -1    0    0    0    0  0.00000000000E+00  0.00000000000E+00  0.45593999997E+02  0.45594000000E+02  0.51100000000E-03 0. -1.
         11   -1    0    0    0    0 -0.00000000000E+00 -0.00000000000E+00 -0.45593999997E+02  0.45594000000E+02  0.51100000000E-03 0.  1.
         23    2    1    2    0    0 -0.88817841970E-15  0.35527136788E-14  0.00000000000E+00  0.91188000000E+02  0.91188000000E+02 0.  0.
    9900012    2    3    3    0    0 -0.54760022694E+01  0.26146965486E+02 -0.34204864162E+02  0.47787272617E+02  0.20000007171E+02 0.  0.
         12    1    3    3    0    0  0.54760022694E+01 -0.26146965486E+02  0.34204864162E+02  0.43400727383E+02  0.00000000000E+00 0. -1.
         11    1    4    4    0    0 -0.63621834422E+01  0.44302276293E+00 -0.75928489618E+01  0.99158964768E+01  0.51100000000E-03 0. -1.
        -11    1    4    4    0    0 -0.96649559026E+00  0.21939909912E+02 -0.18403021215E+02  0.28652485944E+02  0.51100000000E-03 0.  1.
        -12    1    4    4    0    0  0.18526767631E+01  0.37640328109E+01 -0.82089939861E+01  0.92188901965E+01  0.00000000000E+00 0.  1.
</event>
<event>
 8    1  0.4798632E-010  0.9118800E+02  0.7816164E-02  0.1184000E+00
        -11   -1    0    0    0    0  0.00000000000E+00  0.00000000000E+00  0.45593999997E+02  0.45594000000E+02  0.51100000000E-03 0. -1.
         11   -1    0    0    0    0 -0.00000000000E+00 -0.00000000000E+00 -0.45593999997E+02  0.45594000000E+02  0.51100000000E-03 0.  1.
         23    2    1    2    0    0  0.00000000000E+00  0.00000000000E+00  0.00000000000E+00  0.91188000000E+02  0.91188000000E+02 0.  0.
    9900012    2    3    3    0    0 -0.26493335245E+02 -0.34967602818E+01 -0.34197937367E+02  0.47787273450E+02  0.20000010970E+02 0.  0.
         12    1    3    3    0    0  0.26493335245E+02  0.34967602818E+01  0.34197937367E+02  0.43400726550E+02  0.00000000000E+00 0. -1.
         11    1    4    4    0    0  0.21087363825E+00  0.65952033041E+00 -0.12051385466E+01  0.13898899004E+01  0.51100000000E-03 0. -1.
        -11    1    4    4    0    0 -0.14302408616E+02 -0.86723168428E+00 -0.29964701618E+02  0.33214369275E+02  0.51100000000E-03 0.  1.
        -12    1    4    4    0    0 -0.12401800267E+02 -0.32890489280E+01 -0.30280972025E+01  0.13183014275E+02  0.00000000000E+00 0.  1.
</event>
<event>
 8    1  0.4798632E-010  0.9118800E+02  0.7816164E-02  0.1184000E+00
        -11   -1    0    0    0    0  0.00000000000E+00  0.00000000000E+00  0.45593999997E+02  0.45594000000E+02  0.51100000000E-03 0. -1.
         11   -1    0    0    0    0 -0.00000000000E+00 -0.00000000000E+00 -0.45593999997E+02  0.45594000000E+02  0.51100000000E-03 0.  1.
         23    2    1    2    0    0  0.17763568394E-14 -0.17763568394E-14 -0.71054273576E-14  0.91188000000E+02  0.91188000000E+02 0.  0.
    9900012    2    3    3    0    0  0.14713168608E+02 -0.15629976350E+02 -0.37720680845E+02  0.47787271267E+02  0.20000001014E+02 0.  0.
         12    1    3    3    0    0 -0.14713168608E+02  0.15629976350E+02  0.37720680845E+02  0.43400728733E+02  0.00000000000E+00 0. -1.
         11    1    4    4    0    0  0.57428828005E+01 -0.12462362412E+02 -0.77032663455E+01  0.15736311270E+02  0.51100000000E-03 0. -1.
        -11    1    4    4    0    0  0.36158347853E+01  0.15989350300E+01 -0.12923560627E+02  0.13514779835E+02  0.51100000000E-03 0.  1.
         12    1    4    4    0    0  0.53544510219E+01 -0.47665489681E+01 -0.17093853872E+02  0.18536180162E+02  0.00000000000E+00 0. -1.
</event>
<event>
 8    1  0.4798632E-010  0.9118800E+02  0.7816164E-02  0.1184000E+00
        -11   -1    0    0    0    0  0.00000000000E+00  0.00000000000E+00  0.45593999997E+02  0.45594000000E+02  0.51100000000E-03 0. -1.
         11   -1    0    0    0    0 -0.00000000000E+00 -0.00000000000E+00 -0.45593999997E+02  0.45594000000E+02  0.51100000000E-03 0.  1.
         23    2    1    2    0    0  0.22204460493E-15  0.00000000000E+00  0.00000000000E+00  0.91188000000E+02  0.91188000000E+02 0.  0.
    9900012    2    3    3    0    0  0.12793864171E+01  0.89192535991E+01  0.42455043780E+02  0.47787301196E+02  0.20000137471E+02 0.  0.
        -12    1    3    3    0    0 -0.12793864171E+01 -0.89192535991E+01 -0.42455043780E+02  0.43400698804E+02  0.00000000000E+00 0.  1.
         11    1    4    4    0    0 -0.29151540363E+01  0.78311618737E+01  0.99659781640E+01  0.13005611880E+02  0.51100000000E-03 0. -1.
        -11    1    4    4    0    0  0.52561681269E+01 -0.40154623909E+01  0.12721244214E+02  0.14338106437E+02  0.51100000000E-03 0.  1.
        -12    1    4    4    0    0 -0.10616276735E+01  0.51035541164E+01  0.19767821401E+02  0.20443582878E+02  0.00000000000E+00 0.  1.
</event>
<event>
 8    1  0.4798632E-010  0.9118800E+02  0.7816164E-02  0.1184000E+00
        -11   -1    0    0    0    0  0.00000000000E+00  0.00000000000E+00  0.45593999997E+02  0.45594000000E+02  0.51100000000E-03 0. -1.
         11   -1    0    0    0    0 -0.00000000000E+00 -0.00000000000E+00 -0.45593999997E+02  0.45594000000E+02  0.51100000000E-03 0.  1.
         23    2    1    2    0    0  0.00000000000E+00  0.35527136788E-14  0.35527136788E-14  0.91188000000E+02  0.91188000000E+02 0.  0.
    9900012    2    3    3    0    0 -0.21421675427E+02  0.21100201558E+02  0.31297225349E+02  0.47787274217E+02  0.20000014467E+02 0.  0.
        -12    1    3    3    0    0  0.21421675427E+02 -0.21100201558E+02 -0.31297225349E+02  0.43400725783E+02  0.00000000000E+00 0.  1.
         11    1    4    4    0    0 -0.20977223519E+02  0.11638961939E+02  0.29227862842E+02  0.37812396224E+02  0.51100000000E-03 0. -1.
        -11    1    4    4    0    0  0.41776476728E+00  0.71684625146E+01  0.82639408262E+00  0.72280225280E+01  0.51100000000E-03 0.  1.
         12    1    4    4    0    0 -0.86221667501E+00  0.22927771041E+01  0.12429684243E+01  0.27468554653E+01  0.00000000000E+00 0. -1.
</event>
<event>
 8    1  0.4798632E-010  0.9118800E+02  0.7816164E-02  0.1184000E+00
        -11   -1    0    0    0    0  0.00000000000E+00  0.00000000000E+00  0.45593999997E+02  0.45594000000E+02  0.51100000000E-03 0. -1.
         11   -1    0    0    0    0 -0.00000000000E+00 -0.00000000000E+00 -0.45593999997E+02  0.45594000000E+02  0.51100000000E-03 0.  1.
         23    2    1    2    0    0  0.00000000000E+00  0.17763568394E-14  0.00000000000E+00  0.91188000000E+02  0.91188000000E+02 0.  0.
    9900012    2    3    3    0    0  0.11287496274E+02 -0.14232623778E+02  0.39416345055E+02  0.47787269485E+02  0.19999992888E+02 0.  0.
        -12    1    3    3    0    0 -0.11287496274E+02  0.14232623778E+02 -0.39416345055E+02  0.43400730515E+02  0.00000000000E+00 0.  1.
         11    1    4    4    0    0  0.75006862707E+01 -0.12009582485E+02  0.28784560189E+02  0.32078673157E+02  0.51100000000E-03 0. -1.
        -11    1    4    4    0    0  0.35719292559E+01  0.32875180741E+01  0.85148670699E+01  0.98015006594E+01  0.51100000000E-03 0.  1.
         12    1    4    4    0    0  0.21488074737E+00 -0.55105593672E+01  0.21169177968E+01  0.59070956682E+01  0.00000000000E+00 0. -1.
</event>
<event>
 8    1  0.4798632E-010  0.9118800E+02  0.7816164E-02  0.1184000E+00
        -11   -1    0    0    0    0  0.00000000000E+00  0.00000000000E+00  0.45593999997E+02  0.45594000000E+02  0.51100000000E-03 0. -1.
         11   -1    0    0    0    0 -0.00000000000E+00 -0.00000000000E+00 -0.45593999997E+02  0.45594000000E+02  0.51100000000E-03 0.  1.
         23    2    1    2    0    0  0.00000000000E+00  0.00000000000E+00  0.00000000000E+00  0.91188000000E+02  0.91188000000E+02 0.  0.
    9900012    2    3    3    0    0 -0.94273669554E+01  0.63998682407E+01 -0.41878275485E+02  0.47787268223E+02  0.19999987136E+02 0.  0.
         12    1    3    3    0    0  0.94273669554E+01 -0.63998682407E+01  0.41878275485E+02  0.43400731777E+02  0.00000000000E+00 0. -1.
         11    1    4    4    0    0 -0.78230359950E+01  0.31310193581E+01 -0.18337312789E+02  0.20180689161E+02  0.51100000000E-03 0. -1.
        -11    1    4    4    0    0 -0.42125836171E+01  0.54667501612E+01 -0.23169544938E+02  0.24175587500E+02  0.51100000000E-03 0.  1.
         12    1    4    4    0    0  0.26082526567E+01 -0.21979012787E+01 -0.37141775703E+00  0.34309915626E+01  0.00000000000E+00 0. -1.
</event>
<event>
 8    1  0.4798632E-010  0.9118800E+02  0.7816164E-02  0.1184000E+00
        -11   -1    0    0    0    0  0.00000000000E+00  0.00000000000E+00  0.45593999997E+02  0.45594000000E+02  0.51100000000E-03 0. -1.
         11   -1    0    0    0    0 -0.00000000000E+00 -0.00000000000E+00 -0.45593999997E+02  0.45594000000E+02  0.51100000000E-03 0.  1.
         23    2    1    2    0    0 -0.88817841970E-15  0.17763568394E-14  0.71054273576E-14  0.91188000000E+02  0.91188000000E+02 0.  0.
    9900012    2    3    3    0    0 -0.76376530398E+01  0.15926578707E+02  0.39643829337E+02  0.47787275838E+02  0.20000021855E+02 0.  0.
        -12    1    3    3    0    0  0.76376530398E+01 -0.15926578707E+02 -0.39643829337E+02  0.43400724162E+02  0.00000000000E+00 0.  1.
         11    1    4    4    0    0 -0.74014755301E+01  0.16893762251E+02  0.29045037986E+02  0.34406326088E+02  0.51100000000E-03 0. -1.
        -11    1    4    4    0    0 -0.41714847027E+00  0.34769577058E+01  0.62279669691E+01  0.71449856937E+01  0.51100000000E-03 0.  1.
         12    1    4    4    0    0  0.18097096059E+00 -0.44441412492E+01  0.43708243820E+01  0.62359640562E+01  0.00000000000E+00 0. -1.
</event>
<event>
 8    1  0.4798632E-010  0.9118800E+02  0.7816164E-02  0.1184000E+00
        -11   -1    0    0    0    0  0.00000000000E+00  0.00000000000E+00  0.45593999997E+02  0.45594000000E+02  0.51100000000E-03 0. -1.
         11   -1    0    0    0    0 -0.00000000000E+00 -0.00000000000E+00 -0.45593999997E+02  0.45594000000E+02  0.51100000000E-03 0.  1.
         23    2    1    2    0    0  0.00000000000E+00  0.00000000000E+00  0.35527136788E-14  0.91188000000E+02  0.91188000000E+02 0.  0.
    9900012    2    3    3    0    0 -0.53854655405E+01  0.29465523339E+02  0.31407053853E+02  0.47787270324E+02  0.19999996713E+02 0.  0.
        -12    1    3    3    0    0  0.53854655405E+01 -0.29465523339E+02 -0.31407053853E+02  0.43400729676E+02  0.00000000000E+00 0.  1.
         11    1    4    4    0    0  0.20571838798E+01  0.85967017055E+00  0.37830773791E+01  0.43912086076E+01  0.51100000000E-03 0.  1.
        -11    1    4    4    0    0  0.87093385829E+00  0.23697516580E+02  0.21121319463E+02  0.31755959345E+02  0.51100000000E-03 0. -1.
        -12    1    4    4    0    0 -0.83135832786E+01  0.49083365889E+01  0.65026570112E+01  0.11640102371E+02  0.00000000000E+00 0.  1.
</event>
<event>
 8    1  0.4798632E-010  0.9118800E+02  0.7816164E-02  0.1184000E+00
        -11   -1    0    0    0    0  0.00000000000E+00  0.00000000000E+00  0.45593999997E+02  0.45594000000E+02  0.51100000000E-03 0. -1.
         11   -1    0    0    0    0 -0.00000000000E+00 -0.00000000000E+00 -0.45593999997E+02  0.45594000000E+02  0.51100000000E-03 0.  1.
         23    2    1    2    0    0  0.88817841970E-15 -0.17763568394E-14 -0.71054273576E-14  0.91188000000E+02  0.91188000000E+02 0.  0.
    9900012    2    3    3    0    0  0.57114535115E+01 -0.99423271789E+01 -0.41858724104E+02  0.47787270115E+02  0.19999995762E+02 0.  0.
         12    1    3    3    0    0 -0.57114535115E+01  0.99423271789E+01  0.41858724104E+02  0.43400729885E+02  0.00000000000E+00 0. -1.
         11    1    4    4    0    0 -0.25826192830E+01 -0.96041898952E+01 -0.17138619702E+02  0.19815213132E+02  0.51100000000E-03 0. -1.
        -11    1    4    4    0    0  0.25062544991E+01  0.47214044593E+01 -0.11444160931E+02  0.12630985368E+02  0.51100000000E-03 0.  1.
        -12    1    4    4    0    0  0.57878182954E+01 -0.50595417430E+01 -0.13275943470E+02  0.15341071615E+02  0.00000000000E+00 0.  1.
</event>
<event>
 8    1  0.4798632E-010  0.9118800E+02  0.7816164E-02  0.1184000E+00
        -11   -1    0    0    0    0  0.00000000000E+00  0.00000000000E+00  0.45593999997E+02  0.45594000000E+02  0.51100000000E-03 0. -1.
         11   -1    0    0    0    0 -0.00000000000E+00 -0.00000000000E+00 -0.45593999997E+02  0.45594000000E+02  0.51100000000E-03 0.  1.
         23    2    1    2    0    0  0.00000000000E+00 -0.35527136788E-14  0.00000000000E+00  0.91188000000E+02  0.91188000000E+02 0.  0.
    9900012    2    3    3    0    0  0.98172092113E+01 -0.22858327398E+02 -0.35563216525E+02  0.47787273074E+02  0.20000009254E+02 0.  0.
         12    1    3    3    0    0 -0.98172092113E+01  0.22858327398E+02  0.35563216525E+02  0.43400726926E+02  0.00000000000E+00 0. -1.
         11    1    4    4    0    0  0.31020287467E+01  0.48606283454E+00 -0.73392332271E+01  0.79826802546E+01  0.51100000000E-03 0. -1.
        -11    1    4    4    0    0 -0.41984901896E+00 -0.19769248577E+02 -0.22667536370E+02  0.30080170675E+02  0.51100000000E-03 0.  1.
        -12    1    4    4    0    0  0.71350294836E+01 -0.35751416551E+01 -0.55564469280E+01  0.97244221447E+01  0.00000000000E+00 0.  1.
</event>
<event>
 8    1  0.4798632E-010  0.9118800E+02  0.7816164E-02  0.1184000E+00
        -11   -1    0    0    0    0  0.00000000000E+00  0.00000000000E+00  0.45593999997E+02  0.45594000000E+02  0.51100000000E-03 0. -1.
         11   -1    0    0    0    0 -0.00000000000E+00 -0.00000000000E+00 -0.45593999997E+02  0.45594000000E+02  0.51100000000E-03 0.  1.
         23    2    1    2    0    0  0.00000000000E+00  0.00000000000E+00  0.00000000000E+00  0.91188000000E+02  0.91188000000E+02 0.  0.
    9900012    2    3    3    0    0  0.32714285698E+02 -0.58545117761E+01  0.27912778868E+02  0.47787273958E+02  0.20000013282E+02 0.  0.
        -12    1    3    3    0    0 -0.32714285698E+02  0.58545117761E+01 -0.27912778868E+02  0.43400726042E+02  0.00000000000E+00 0.  1.
         11    1    4    4    0    0  0.25697917118E+02  0.11566936172E+01  0.18402313134E+02  0.31628563250E+02  0.51100000000E-03 0. -1.
        -11    1    4    4    0    0 -0.13758473885E+00  0.35320337732E+00  0.48817555746E+01  0.48964497279E+01  0.51100000000E-03 0.  1.
         12    1    4    4    0    0  0.71539533188E+01 -0.73644087706E+01  0.46287101595E+01  0.11262260979E+02  0.00000000000E+00 0. -1.
</event>
<event>
 8    1  0.4798632E-010  0.9118800E+02  0.7816164E-02  0.1184000E+00
        -11   -1    0    0    0    0  0.00000000000E+00  0.00000000000E+00  0.45593999997E+02  0.45594000000E+02  0.51100000000E-03 0. -1.
         11   -1    0    0    0    0 -0.00000000000E+00 -0.00000000000E+00 -0.45593999997E+02  0.45594000000E+02  0.51100000000E-03 0.  1.
         23    2    1    2    0    0  0.44408920985E-15  0.00000000000E+00 -0.35527136788E-14  0.91188000000E+02  0.91188000000E+02 0.  0.
    9900012    2    3    3    0    0 -0.32354350636E+01 -0.34632943745E+02  0.25956011905E+02  0.47787269747E+02  0.19999994083E+02 0.  0.
        -12    1    3    3    0    0  0.32354350636E+01  0.34632943745E+02 -0.25956011905E+02  0.43400730253E+02  0.00000000000E+00 0.  1.
         11    1    4    4    0    0 -0.64609526640E+01 -0.21900208214E+02  0.14156949682E+02  0.26866005541E+02  0.51100000000E-03 0. -1.
        -11    1    4    4    0    0 -0.58710019273E+00  0.11262861144E+01 -0.10451032512E+01  0.16448246455E+01  0.51100000000E-03 0.  1.
         12    1    4    4    0    0  0.38126177931E+01 -0.13859021645E+02  0.12844165474E+02  0.19276439561E+02  0.00000000000E+00 0. -1.
</event>
<event>
 8    1  0.4798632E-010  0.9118800E+02  0.7816164E-02  0.1184000E+00
        -11   -1    0    0    0    0  0.00000000000E+00  0.00000000000E+00  0.45593999997E+02  0.45594000000E+02  0.51100000000E-03 0. -1.
         11   -1    0    0    0    0 -0.00000000000E+00 -0.00000000000E+00 -0.45593999997E+02  0.45594000000E+02  0.51100000000E-03 0.  1.
         23    2    1    2    0    0  0.00000000000E+00  0.00000000000E+00  0.00000000000E+00  0.91188000000E+02  0.91188000000E+02 0.  0.
    9900012    2    3    3    0    0 -0.16346916277E+02  0.27703342549E+02 -0.29136344956E+02  0.47787268928E+02  0.19999990351E+02 0.  0.
         12    1    3    3    0    0  0.16346916277E+02 -0.27703342549E+02  0.29136344956E+02  0.43400731072E+02  0.00000000000E+00 0. -1.
         11    1    4    4    0    0  0.90257802626E+00  0.12427204410E+02 -0.49021535585E+01  0.13389591716E+02  0.51100000000E-03 0. -1.
        -11    1    4    4    0    0 -0.10438111963E+02  0.76003927888E+01 -0.18739214341E+02  0.22756939739E+02  0.51100000000E-03 0.  1.
         12    1    4    4    0    0 -0.68113823409E+01  0.76757453499E+01 -0.54949770564E+01  0.11640737473E+02  0.00000000000E+00 0. -1.
</event>
<event>
 8    1  0.4798632E-010  0.9118800E+02  0.7816164E-02  0.1184000E+00
        -11   -1    0    0    0    0  0.00000000000E+00  0.00000000000E+00  0.45593999997E+02  0.45594000000E+02  0.51100000000E-03 0. -1.
         11   -1    0    0    0    0 -0.00000000000E+00 -0.00000000000E+00 -0.45593999997E+02  0.45594000000E+02  0.51100000000E-03 0.  1.
         23    2    1    2    0    0  0.35527136788E-14 -0.88817841970E-15  0.00000000000E+00  0.91188000000E+02  0.91188000000E+02 0.  0.
    9900012    2    3    3    0    0 -0.24099737253E+02 -0.49837060146E+01 -0.35748959173E+02  0.47787277157E+02  0.20000027872E+02 0.  0.
         12    1    3    3    0    0  0.24099737253E+02  0.49837060146E+01  0.35748959173E+02  0.43400722843E+02  0.00000000000E+00 0. -1.
         11    1    4    4    0    0 -0.57722662793E+01  0.39926518189E+01 -0.14243343465E+02  0.15878701454E+02  0.51100000000E-03 0. -1.
        -11    1    4    4    0    0 -0.22346059688E+01 -0.56965228202E+01 -0.20628956832E+01  0.64575053184E+01  0.51100000000E-03 0.  1.
         12    1    4    4    0    0 -0.16092865005E+02 -0.32798350134E+01 -0.19442720025E+02  0.25451070385E+02  0.00000000000E+00 0. -1.
</event>
<event>
 8    1  0.5755636E-010  0.9118800E+02  0.7816164E-02  0.1184000E+00
        -11   -1    0    0    0    0  0.00000000000E+00  0.00000000000E+00  0.45593999997E+02  0.45594000000E+02  0.51100000000E-03 0. -1.
         11   -1    0    0    0    0 -0.00000000000E+00 -0.00000000000E+00 -0.45593999997E+02  0.45594000000E+02  0.51100000000E-03 0.  1.
         23    2    1    2    0    0  0.00000000000E+00  0.00000000000E+00  0.71054273576E-14  0.91188000000E+02  0.91188000000E+02 0.  0.
    9900012    2    3    3    0    0 -0.95073871077E+01  0.22827273450E+02 -0.35667167226E+02  0.47787289860E+02  0.20000085785E+02 0.  0.
         12    1    3    3    0    0  0.95073871077E+01 -0.22827273450E+02  0.35667167226E+02  0.43400710140E+02  0.00000000000E+00 0. -1.
         11    1    4    4    0    0 -0.14598146287E+00 -0.17210092960E+01 -0.13098303560E+00  0.17321490702E+01  0.51100000000E-03 0. -1.
        -11    1    4    4    0    0 -0.12139968454E+02  0.20438807799E+02 -0.25513956139E+02  0.34872419710E+02  0.51100000000E-03 0.  1.
        -12    1    4    4    0    0  0.27785628092E+01  0.41094749469E+01 -0.10022228052E+02  0.11182721079E+02  0.00000000000E+00 0.  1.
</event>
<event>
 8    1  0.6700815E-010  0.9118800E+02  0.7816164E-02  0.1184000E+00
        -11   -1    0    0    0    0  0.00000000000E+00  0.00000000000E+00  0.45593999997E+02  0.45594000000E+02  0.51100000000E-03 0. -1.
         11   -1    0    0    0    0 -0.00000000000E+00 -0.00000000000E+00 -0.45593999997E+02  0.45594000000E+02  0.51100000000E-03 0.  1.
         23    2    1    2    0    0  0.00000000000E+00  0.17763568394E-14 -0.71054273576E-14  0.91188000000E+02  0.91188000000E+02 0.  0.
    9900012    2    3    3    0    0 -0.30006237180E+01 -0.11046805162E+02  0.41863920147E+02  0.47787268934E+02  0.19999990377E+02 0.  0.
        -12    1    3    3    0    0  0.30006237180E+01  0.11046805162E+02 -0.41863920147E+02  0.43400731066E+02  0.00000000000E+00 0.  1.
         11    1    4    4    0    0 -0.73204019120E+00 -0.20317266520E+01  0.15198298973E+02  0.15350963747E+02  0.51100000000E-03 0. -1.
        -11    1    4    4    0    0 -0.33128625804E+01  0.36378003120E+01  0.12393738412E+02  0.13334669162E+02  0.51100000000E-03 0.  1.
        -12    1    4    4    0    0  0.10442790536E+01 -0.12652878822E+02  0.14271882763E+02  0.19101636024E+02  0.00000000000E+00 0.  1.
</event>
<event>
 8    1  0.4798632E-010  0.9118800E+02  0.7816164E-02  0.1184000E+00
        -11   -1    0    0    0    0  0.00000000000E+00  0.00000000000E+00  0.45593999997E+02  0.45594000000E+02  0.51100000000E-03 0. -1.
         11   -1    0    0    0    0 -0.00000000000E+00 -0.00000000000E+00 -0.45593999997E+02  0.45594000000E+02  0.51100000000E-03 0.  1.
         23    2    1    2    0    0  0.00000000000E+00  0.00000000000E+00 -0.71054273576E-14  0.91188000000E+02  0.91188000000E+02 0.  0.
    9900012    2    3    3    0    0 -0.19268558112E+02  0.18320188706E+02 -0.34303303755E+02  0.47787270807E+02  0.19999998918E+02 0.  0.
         12    1    3    3    0    0  0.19268558112E+02 -0.18320188706E+02  0.34303303755E+02  0.43400729193E+02  0.00000000000E+00 0. -1.
         11    1    4    4    0    0 -0.15779660880E+02  0.51133011201E+01 -0.16363461618E+02  0.23300352405E+02  0.51100000000E-03 0. -1.
        -11    1    4    4    0    0 -0.29483954203E+00 -0.18767372066E+00 -0.67076879306E+01  0.67167871350E+01  0.51100000000E-03 0.  1.
         12    1    4    4    0    0 -0.31940576907E+01  0.13394561306E+02 -0.11232154207E+02  0.17770131267E+02  0.00000000000E+00 0. -1.
</event>
<event>
 8    1  0.4798632E-010  0.9118800E+02  0.7816164E-02  0.1184000E+00
        -11   -1    0    0    0    0  0.00000000000E+00  0.00000000000E+00  0.45593999997E+02  0.45594000000E+02  0.51100000000E-03 0. -1.
         11   -1    0    0    0    0 -0.00000000000E+00 -0.00000000000E+00 -0.45593999997E+02  0.45594000000E+02  0.51100000000E-03 0.  1.
         23    2    1    2    0    0 -0.17763568394E-14 -0.35527136788E-14  0.00000000000E+00  0.91188000000E+02  0.91188000000E+02 0.  0.
    9900012    2    3    3    0    0 -0.11443591396E+02 -0.20976362184E+02  0.36230635621E+02  0.47787279822E+02  0.20000040019E+02 0.  0.
        -12    1    3    3    0    0  0.11443591396E+02  0.20976362184E+02 -0.36230635621E+02  0.43400720178E+02  0.00000000000E+00 0.  1.
         11    1    4    4    0    0 -0.79100713318E+01 -0.36943091589E+01  0.16518635073E+02  0.18683748381E+02  0.51100000000E-03 0. -1.
        -11    1    4    4    0    0  0.42259295398E+01 -0.87843215280E+01  0.10800198863E+02  0.14548782799E+02  0.51100000000E-03 0.  1.
         12    1    4    4    0    0 -0.77594496042E+01 -0.84977314974E+01  0.89118016843E+01  0.14554748642E+02  0.00000000000E+00 0. -1.
</event>
<event>
 8    1  0.4798632E-010  0.9118800E+02  0.7816164E-02  0.1184000E+00
        -11   -1    0    0    0    0  0.00000000000E+00  0.00000000000E+00  0.45593999997E+02  0.45594000000E+02  0.51100000000E-03 0. -1.
         11   -1    0    0    0    0 -0.00000000000E+00 -0.00000000000E+00 -0.45593999997E+02  0.45594000000E+02  0.51100000000E-03 0.  1.
         23    2    1    2    0    0  0.00000000000E+00  0.00000000000E+00  0.00000000000E+00  0.91188000000E+02  0.91188000000E+02 0.  0.
    9900012    2    3    3    0    0 -0.25275835111E+02 -0.71485882416E+01  0.34549283929E+02  0.47787272190E+02  0.20000005223E+02 0.  0.
        -12    1    3    3    0    0  0.25275835111E+02  0.71485882416E+01 -0.34549283929E+02  0.43400727810E+02  0.00000000000E+00 0.  1.
         11    1    4    4    0    0  0.95150588443E+00 -0.52585604226E+00 -0.53786049353E+00  0.12129229971E+01  0.51100000000E-03 0. -1.
        -11    1    4    4    0    0  0.23402676538E+00 -0.37219682478E+01  0.66332399720E+01  0.76097101753E+01  0.51100000000E-03 0.  1.
         12    1    4    4    0    0 -0.26461367761E+02 -0.29007639516E+01  0.28453904451E+02  0.38964639018E+02  0.00000000000E+00 0. -1.
</event>
<event>
 8    1  0.4798632E-010  0.9118800E+02  0.7816164E-02  0.1184000E+00
        -11   -1    0    0    0    0  0.00000000000E+00  0.00000000000E+00  0.45593999997E+02  0.45594000000E+02  0.51100000000E-03 0. -1.
         11   -1    0    0    0    0 -0.00000000000E+00 -0.00000000000E+00 -0.45593999997E+02  0.45594000000E+02  0.51100000000E-03 0.  1.
         23    2    1    2    0    0  0.00000000000E+00  0.35527136788E-14 -0.71054273576E-14  0.91188000000E+02  0.91188000000E+02 0.  0.
    9900012    2    3    3    0    0  0.20878758964E+02  0.19963306218E+02  0.32390845951E+02  0.47787273365E+02  0.20000010582E+02 0.  0.
        -12    1    3    3    0    0 -0.20878758964E+02 -0.19963306218E+02 -0.32390845951E+02  0.43400726635E+02  0.00000000000E+00 0.  1.
         11    1    4    4    0    0  0.40443963714E+01 -0.18392772691E+01  0.11767261705E+02  0.12578097280E+02  0.51100000000E-03 0. -1.
        -11    1    4    4    0    0  0.10963736753E+01 -0.52240654010E+00  0.10492222203E+01  0.16049334435E+01  0.51100000000E-03 0.  1.
         12    1    4    4    0    0  0.15737988917E+02  0.22324990027E+02  0.19574362025E+02  0.33604242642E+02  0.00000000000E+00 0. -1.
</event>
<event>
 8    1  0.4798632E-010  0.9118800E+02  0.7816164E-02  0.1184000E+00
        -11   -1    0    0    0    0  0.00000000000E+00  0.00000000000E+00  0.45593999997E+02  0.45594000000E+02  0.51100000000E-03 0. -1.
         11   -1    0    0    0    0 -0.00000000000E+00 -0.00000000000E+00 -0.45593999997E+02  0.45594000000E+02  0.51100000000E-03 0.  1.
         23    2    1    2    0    0  0.00000000000E+00 -0.35527136788E-14  0.00000000000E+00  0.91188000000E+02  0.91188000000E+02 0.  0.
    9900012    2    3    3    0    0 -0.27275431064E+02  0.26466549447E+02  0.20957009922E+02  0.47787266778E+02  0.19999980547E+02 0.  0.
        -12    1    3    3    0    0  0.27275431064E+02 -0.26466549447E+02 -0.20957009922E+02  0.43400733222E+02  0.00000000000E+00 0.  1.
         11    1    4    4    0    0 -0.21227289457E+02  0.11804254410E+02  0.15426784865E+02  0.28773667326E+02  0.51100000000E-03 0. -1.
        -11    1    4    4    0    0 -0.31039066732E+01  0.11940293446E+02  0.76112071869E+01  0.14496044954E+02  0.51100000000E-03 0.  1.
         12    1    4    4    0    0 -0.29442349345E+01  0.27220015911E+01 -0.20809821304E+01  0.45175544976E+01  0.00000000000E+00 0. -1.
</event>
<event>
 8    1  0.4798632E-010  0.9118800E+02  0.7816164E-02  0.1184000E+00
        -11   -1    0    0    0    0  0.00000000000E+00  0.00000000000E+00  0.45593999997E+02  0.45594000000E+02  0.51100000000E-03 0. -1.
         11   -1    0    0    0    0 -0.00000000000E+00 -0.00000000000E+00 -0.45593999997E+02  0.45594000000E+02  0.51100000000E-03 0.  1.
         23    2    1    2    0    0 -0.35527136788E-14  0.00000000000E+00  0.35527136788E-14  0.91188000000E+02  0.91188000000E+02 0.  0.
    9900012    2    3    3    0    0 -0.18729111522E+02  0.23339235142E+02  0.31434429282E+02  0.47787275816E+02  0.20000021757E+02 0.  0.
        -12    1    3    3    0    0  0.18729111522E+02 -0.23339235142E+02 -0.31434429282E+02  0.43400724184E+02  0.00000000000E+00 0.  1.
         11    1    4    4    0    0 -0.12085937263E+01  0.31397482205E+00  0.12031677378E+02  0.12096302732E+02  0.51100000000E-03 0. -1.
        -11    1    4    4    0    0 -0.14685853582E+02  0.20494377589E+02  0.19524600241E+02  0.31888929474E+02  0.51100000000E-03 0.  1.
        -12    1    4    4    0    0 -0.28346642139E+01  0.25308827306E+01 -0.12184833681E+00  0.38020436109E+01  0.00000000000E+00 0.  1.
</event>
<event>
 8    1  0.4798632E-010  0.9118800E+02  0.7816164E-02  0.1184000E+00
        -11   -1    0    0    0    0  0.00000000000E+00  0.00000000000E+00  0.45593999997E+02  0.45594000000E+02  0.51100000000E-03 0. -1.
         11   -1    0    0    0    0 -0.00000000000E+00 -0.00000000000E+00 -0.45593999997E+02  0.45594000000E+02  0.51100000000E-03 0.  1.
         23    2    1    2    0    0  0.00000000000E+00  0.00000000000E+00  0.35527136788E-14  0.91188000000E+02  0.91188000000E+02 0.  0.
    9900012    2    3    3    0    0  0.34193933429E+02 -0.50973610672E+01  0.26237624338E+02  0.47787296041E+02  0.20000113971E+02 0.  0.
        -12    1    3    3    0    0 -0.34193933429E+02  0.50973610672E+01 -0.26237624338E+02  0.43400703959E+02  0.00000000000E+00 0.  1.
         11    1    4    4    0    0  0.16769348183E+02 -0.65177429843E+01  0.23300563088E+02  0.29438210757E+02  0.51100000000E-03 0. -1.
        -11    1    4    4    0    0  0.72901281189E+01 -0.98964218145E+00 -0.51481546630E+00  0.73749843975E+01  0.51100000000E-03 0.  1.
         12    1    4    4    0    0  0.10134457127E+02  0.24100240985E+01  0.34518767170E+01  0.10974100887E+02  0.00000000000E+00 0. -1.
</event>
<event>
 8    1  0.4798632E-010  0.9118800E+02  0.7816164E-02  0.1184000E+00
        -11   -1    0    0    0    0  0.00000000000E+00  0.00000000000E+00  0.45593999997E+02  0.45594000000E+02  0.51100000000E-03 0. -1.
         11   -1    0    0    0    0 -0.00000000000E+00 -0.00000000000E+00 -0.45593999997E+02  0.45594000000E+02  0.51100000000E-03 0.  1.
         23    2    1    2    0    0  0.33306690739E-15 -0.35527136788E-14  0.00000000000E+00  0.91188000000E+02  0.91188000000E+02 0.  0.
    9900012    2    3    3    0    0 -0.69567083128E+00  0.30883535109E+02 -0.30485189813E+02  0.47787268478E+02  0.19999988297E+02 0.  0.
         12    1    3    3    0    0  0.69567083128E+00 -0.30883535109E+02  0.30485189813E+02  0.43400731522E+02  0.00000000000E+00 0. -1.
         11    1    4    4    0    0 -0.51502334033E+01  0.68531116408E+00 -0.32016249206E+01  0.61028647284E+01  0.51100000000E-03 0. -1.
        -11    1    4    4    0    0  0.48262108931E+01  0.18362436643E+02 -0.12450543104E+02  0.22704347929E+02  0.51100000000E-03 0.  1.
         12    1    4    4    0    0 -0.37164832098E+00  0.11835787302E+02 -0.14833021789E+02  0.18980055820E+02  0.00000000000E+00 0. -1.
</event>
<event>
 8    1  0.4798632E-010  0.9118800E+02  0.7816164E-02  0.1184000E+00
        -11   -1    0    0    0    0  0.00000000000E+00  0.00000000000E+00  0.45593999997E+02  0.45594000000E+02  0.51100000000E-03 0. -1.
         11   -1    0    0    0    0 -0.00000000000E+00 -0.00000000000E+00 -0.45593999997E+02  0.45594000000E+02  0.51100000000E-03 0.  1.
         23    2    1    2    0    0  0.00000000000E+00 -0.17763568394E-14  0.00000000000E+00  0.91188000000E+02  0.91188000000E+02 0.  0.
    9900012    2    3    3    0    0 -0.19931149922E+02  0.82224051516E+01 -0.37666498675E+02  0.47787264913E+02  0.19999972045E+02 0.  0.
         12    1    3    3    0    0  0.19931149922E+02 -0.82224051516E+01  0.37666498675E+02  0.43400735087E+02  0.00000000000E+00 0. -1.
         11    1    4    4    0    0  0.14222117755E+01 -0.27355999060E+01 -0.47920912711E+01  0.56982744925E+01  0.51100000000E-03 0. -1.
        -11    1    4    4    0    0 -0.15197361872E+02  0.99382425667E+01 -0.16383621204E+02  0.24457136325E+02  0.51100000000E-03 0.  1.
        -12    1    4    4    0    0 -0.61559998247E+01  0.10197624909E+01 -0.16490786199E+02  0.17631854096E+02  0.00000000000E+00 0.  1.
</event>
<event>
 8    1  0.4798632E-010  0.9118800E+02  0.7816164E-02  0.1184000E+00
        -11   -1    0    0    0    0  0.00000000000E+00  0.00000000000E+00  0.45593999997E+02  0.45594000000E+02  0.51100000000E-03 0.  1.
         11   -1    0    0    0    0 -0.00000000000E+00 -0.00000000000E+00 -0.45593999997E+02  0.45594000000E+02  0.51100000000E-03 0. -1.
         23    2    1    2    0    0  0.00000000000E+00 -0.17763568394E-14  0.13322676296E-14  0.91188000000E+02  0.91188000000E+02 0.  0.
    9900012    2    3    3    0    0  0.41060072502E+02 -0.14000045249E+02 -0.13008755195E+01  0.47787273071E+02  0.20000009240E+02 0.  0.
         12    1    3    3    0    0 -0.41060072502E+02  0.14000045249E+02  0.13008755195E+01  0.43400726929E+02  0.00000000000E+00 0. -1.
         11    1    4    4    0    0  0.59997590270E+01 -0.55463676358E+01 -0.56314323815E+01  0.99233226927E+01  0.51100000000E-03 0. -1.
        -11    1    4    4    0    0  0.27900764974E+02 -0.20143913884E+01  0.27898212794E+01  0.28112160391E+02  0.51100000000E-03 0.  1.
        -12    1    4    4    0    0  0.71595485009E+01 -0.64392862253E+01  0.15407355827E+01  0.97517899877E+01  0.00000000000E+00 0.  1.
</event>
<event>
 8    1  0.4798632E-010  0.9118800E+02  0.7816164E-02  0.1184000E+00
        -11   -1    0    0    0    0  0.00000000000E+00  0.00000000000E+00  0.45593999997E+02  0.45594000000E+02  0.51100000000E-03 0. -1.
         11   -1    0    0    0    0 -0.00000000000E+00 -0.00000000000E+00 -0.45593999997E+02  0.45594000000E+02  0.51100000000E-03 0.  1.
         23    2    1    2    0    0  0.00000000000E+00  0.00000000000E+00  0.00000000000E+00  0.91188000000E+02  0.91188000000E+02 0.  0.
    9900012    2    3    3    0    0 -0.19008319188E+02  0.32446234129E+02 -0.21669079383E+02  0.47787270642E+02  0.19999998164E+02 0.  0.
         12    1    3    3    0    0  0.19008319188E+02 -0.32446234129E+02  0.21669079383E+02  0.43400729358E+02  0.00000000000E+00 0. -1.
         11    1    4    4    0    0 -0.58555241683E+01 -0.20312566492E+00 -0.80959463477E+01  0.99936365177E+01  0.51100000000E-03 0. -1.
        -11    1    4    4    0    0 -0.71618724238E+01  0.17244008589E+02 -0.60032211337E+01  0.19613437054E+02  0.51100000000E-03 0.  1.
         12    1    4    4    0    0 -0.59909225963E+01  0.15405351205E+02 -0.75699119015E+01  0.18180197070E+02  0.00000000000E+00 0. -1.
</event>
<event>
 8    1  0.4798632E-010  0.9118800E+02  0.7816164E-02  0.1184000E+00
        -11   -1    0    0    0    0  0.00000000000E+00  0.00000000000E+00  0.45593999997E+02  0.45594000000E+02  0.51100000000E-03 0. -1.
         11   -1    0    0    0    0 -0.00000000000E+00 -0.00000000000E+00 -0.45593999997E+02  0.45594000000E+02  0.51100000000E-03 0.  1.
         23    2    1    2    0    0  0.00000000000E+00  0.00000000000E+00  0.00000000000E+00  0.91188000000E+02  0.91188000000E+02 0.  0.
    9900012    2    3    3    0    0  0.17349797303E+02 -0.96209794544E+01  0.38601093880E+02  0.47787272346E+02  0.20000005936E+02 0.  0.
        -12    1    3    3    0    0 -0.17349797303E+02  0.96209794544E+01 -0.38601093880E+02  0.43400727654E+02  0.00000000000E+00 0.  1.
         11    1    4    4    0    0  0.17398371927E+01 -0.11329953682E+02  0.18340115712E+02  0.21627638070E+02  0.51100000000E-03 0. -1.
        -11    1    4    4    0    0  0.83499602929E+01 -0.14395744146E+01  0.86507901484E+01  0.12109103263E+02  0.51100000000E-03 0.  1.
         12    1    4    4    0    0  0.72599998176E+01  0.31485486419E+01  0.11610188020E+02  0.14050531013E+02  0.00000000000E+00 0. -1.
</event>
<event>
 8    1  0.4798632E-010  0.9118800E+02  0.7816164E-02  0.1184000E+00
        -11   -1    0    0    0    0  0.00000000000E+00  0.00000000000E+00  0.45593999997E+02  0.45594000000E+02  0.51100000000E-03 0.  1.
         11   -1    0    0    0    0 -0.00000000000E+00 -0.00000000000E+00 -0.45593999997E+02  0.45594000000E+02  0.51100000000E-03 0. -1.
         23    2    1    2    0    0 -0.71054273576E-14  0.00000000000E+00 -0.35527136788E-14  0.91188000000E+02  0.91188000000E+02 0.  0.
    9900012    2    3    3    0    0  0.41804809258E+02  0.52619099989E+01  0.10406417217E+02  0.47787270821E+02  0.19999998983E+02 0.  0.
        -12    1    3    3    0    0 -0.41804809258E+02 -0.52619099989E+01 -0.10406417217E+02  0.43400729179E+02  0.00000000000E+00 0.  1.
         11    1    4    4    0    0  0.30465019825E+02 -0.19855268891E+01  0.12937220255E+02  0.33157675102E+02  0.51100000000E-03 0. -1.
        -11    1    4    4    0    0  0.46666580949E+01  0.48187948322E+01  0.85508659257E+00  0.67623704980E+01  0.51100000000E-03 0.  1.
         12    1    4    4    0    0  0.66731313385E+01  0.24286420557E+01 -0.33858896311E+01  0.78672252218E+01  0.00000000000E+00 0. -1.
</event>
<event>
 8    1  0.4798632E-010  0.9118800E+02  0.7816164E-02  0.1184000E+00
        -11   -1    0    0    0    0  0.00000000000E+00  0.00000000000E+00  0.45593999997E+02  0.45594000000E+02  0.51100000000E-03 0. -1.
         11   -1    0    0    0    0 -0.00000000000E+00 -0.00000000000E+00 -0.45593999997E+02  0.45594000000E+02  0.51100000000E-03 0.  1.
         23    2    1    2    0    0  0.00000000000E+00  0.71054273576E-14 -0.44408920985E-15  0.91188000000E+02  0.91188000000E+02 0.  0.
    9900012    2    3    3    0    0 -0.23988933352E+02 -0.36072587086E+02  0.26310594296E+01  0.47787274934E+02  0.20000017736E+02 0.  0.
        -12    1    3    3    0    0  0.23988933352E+02  0.36072587086E+02 -0.26310594296E+01  0.43400725066E+02  0.00000000000E+00 0.  1.
         11    1    4    4    0    0  0.29398551647E+01 -0.18173550064E+01  0.53411330015E+00  0.34972567660E+01  0.51100000000E-03 0. -1.
        -11    1    4    4    0    0 -0.11111618717E+02 -0.10816686138E+02 -0.22907263251E+01  0.15675337217E+02  0.51100000000E-03 0.  1.
         12    1    4    4    0    0 -0.15817169800E+02 -0.23438545942E+02  0.43876724545E+01  0.28614680951E+02  0.00000000000E+00 0. -1.
</event>
<event>
 8    1  0.4798632E-010  0.9118800E+02  0.7816164E-02  0.1184000E+00
        -11   -1    0    0    0    0  0.00000000000E+00  0.00000000000E+00  0.45593999997E+02  0.45594000000E+02  0.51100000000E-03 0.  1.
         11   -1    0    0    0    0 -0.00000000000E+00 -0.00000000000E+00 -0.45593999997E+02  0.45594000000E+02  0.51100000000E-03 0. -1.
         23    2    1    2    0    0  0.00000000000E+00  0.00000000000E+00  0.00000000000E+00  0.91188000000E+02  0.91188000000E+02 0.  0.
    9900012    2    3    3    0    0  0.20017552143E+02  0.36900141299E+02  0.11013642743E+02  0.47787272492E+02  0.20000006602E+02 0.  0.
        -12    1    3    3    0    0 -0.20017552143E+02 -0.36900141299E+02 -0.11013642743E+02  0.43400727508E+02  0.00000000000E+00 0.  1.
         11    1    4    4    0    0  0.88068764025E+01  0.33514246465E+02  0.96355085766E+01  0.35966773749E+02  0.51100000000E-03 0. -1.
        -11    1    4    4    0    0  0.72319782080E+01  0.25068787520E+01  0.65426079919E+00  0.76820574935E+01  0.51100000000E-03 0.  1.
         12    1    4    4    0    0  0.39786975329E+01  0.87901608207E+00  0.72387336690E+00  0.41384412503E+01  0.00000000000E+00 0. -1.
</event>
<event>
 8    1  0.4798632E-010  0.9118800E+02  0.7816164E-02  0.1184000E+00
        -11   -1    0    0    0    0  0.00000000000E+00  0.00000000000E+00  0.45593999997E+02  0.45594000000E+02  0.51100000000E-03 0. -1.
         11   -1    0    0    0    0 -0.00000000000E+00 -0.00000000000E+00 -0.45593999997E+02  0.45594000000E+02  0.51100000000E-03 0.  1.
         23    2    1    2    0    0  0.00000000000E+00  0.17763568394E-14  0.00000000000E+00  0.91188000000E+02  0.91188000000E+02 0.  0.
    9900012    2    3    3    0    0  0.11465186648E+02 -0.80833792149E+01  0.41071058404E+02  0.47787270019E+02  0.19999995325E+02 0.  0.
        -12    1    3    3    0    0 -0.11465186648E+02  0.80833792149E+01 -0.41071058404E+02  0.43400729981E+02  0.00000000000E+00 0.  1.
         11    1    4    4    0    0  0.10701678893E+02 -0.87106196758E+01  0.14571968995E+02  0.20068460502E+02  0.51100000000E-03 0. -1.
        -11    1    4    4    0    0  0.92429984911E+00 -0.76843890603E+00  0.19695392050E-01  0.12021716737E+01  0.51100000000E-03 0.  1.
         12    1    4    4    0    0 -0.16079209403E+00  0.13956793670E+01  0.26479394017E+02  0.26516637843E+02  0.00000000000E+00 0. -1.
</event>
<event>
 8    1  0.4798632E-010  0.9118800E+02  0.7816164E-02  0.1184000E+00
        -11   -1    0    0    0    0  0.00000000000E+00  0.00000000000E+00  0.45593999997E+02  0.45594000000E+02  0.51100000000E-03 0. -1.
         11   -1    0    0    0    0 -0.00000000000E+00 -0.00000000000E+00 -0.45593999997E+02  0.45594000000E+02  0.51100000000E-03 0.  1.
         23    2    1    2    0    0  0.00000000000E+00  0.00000000000E+00  0.00000000000E+00  0.91188000000E+02  0.91188000000E+02 0.  0.
    9900012    2    3    3    0    0 -0.25386374255E+02 -0.85562979185E+01 -0.34145938138E+02  0.47787270476E+02  0.19999997408E+02 0.  0.
         12    1    3    3    0    0  0.25386374255E+02  0.85562979185E+01  0.34145938138E+02  0.43400729524E+02  0.00000000000E+00 0. -1.
         11    1    4    4    0    0 -0.92438729549E+01 -0.80244653424E+01 -0.19095079527E+02  0.22681783300E+02  0.51100000000E-03 0. -1.
        -11    1    4    4    0    0 -0.11871519613E+02  0.42525788743E+01 -0.13567412944E+02  0.18522745457E+02  0.51100000000E-03 0.  1.
         12    1    4    4    0    0 -0.42709816870E+01 -0.47844114504E+01 -0.14834456667E+01  0.65827417193E+01  0.00000000000E+00 0. -1.
</event>
<event>
 8    1  0.4798632E-010  0.9118800E+02  0.7816164E-02  0.1184000E+00
        -11   -1    0    0    0    0  0.00000000000E+00  0.00000000000E+00  0.45593999997E+02  0.45594000000E+02  0.51100000000E-03 0. -1.
         11   -1    0    0    0    0 -0.00000000000E+00 -0.00000000000E+00 -0.45593999997E+02  0.45594000000E+02  0.51100000000E-03 0.  1.
         23    2    1    2    0    0  0.00000000000E+00 -0.44408920985E-15  0.00000000000E+00  0.91188000000E+02  0.91188000000E+02 0.  0.
    9900012    2    3    3    0    0 -0.28529137422E+02  0.35868918811E+01 -0.32509161719E+02  0.47787273381E+02  0.20000010653E+02 0.  0.
         12    1    3    3    0    0  0.28529137422E+02 -0.35868918811E+01  0.32509161719E+02  0.43400726619E+02  0.00000000000E+00 0. -1.
         11    1    4    4    0    0 -0.12759984775E+02 -0.49418096387E+01 -0.66567249514E+01  0.15216789454E+02  0.51100000000E-03 0. -1.
        -11    1    4    4    0    0 -0.12749869614E+01  0.46228444633E+01 -0.59600408208E+01  0.76497300299E+01  0.51100000000E-03 0.  1.
         12    1    4    4    0    0 -0.14494165685E+02  0.39058570565E+01 -0.19892395947E+02  0.24920753897E+02  0.00000000000E+00 0. -1.
</event>
<event>
 8    1  0.4798632E-010  0.9118800E+02  0.7816164E-02  0.1184000E+00
        -11   -1    0    0    0    0  0.00000000000E+00  0.00000000000E+00  0.45593999997E+02  0.45594000000E+02  0.51100000000E-03 0. -1.
         11   -1    0    0    0    0 -0.00000000000E+00 -0.00000000000E+00 -0.45593999997E+02  0.45594000000E+02  0.51100000000E-03 0.  1.
         23    2    1    2    0    0  0.35527136788E-14  0.00000000000E+00  0.71054273576E-14  0.91188000000E+02  0.91188000000E+02 0.  0.
    9900012    2    3    3    0    0 -0.21588159642E+02  0.24582324788E+01 -0.37570364706E+02  0.47787264433E+02  0.19999969855E+02 0.  0.
         12    1    3    3    0    0  0.21588159642E+02 -0.24582324788E+01  0.37570364706E+02  0.43400735567E+02  0.00000000000E+00 0. -1.
         11    1    4    4    0    0 -0.45739451046E+01 -0.15727417516E+01 -0.35329536879E+01  0.59896788277E+01  0.51100000000E-03 0. -1.
        -11    1    4    4    0    0 -0.20445588701E+02  0.30532618217E+01 -0.28428595824E+02  0.35150100510E+02  0.51100000000E-03 0.  1.
        -12    1    4    4    0    0  0.34313741638E+01  0.97771240866E+00 -0.56088151936E+01  0.66474850946E+01  0.00000000000E+00 0.  1.
</event>
<event>
 8    1  0.4798632E-010  0.9118800E+02  0.7816164E-02  0.1184000E+00
        -11   -1    0    0    0    0  0.00000000000E+00  0.00000000000E+00  0.45593999997E+02  0.45594000000E+02  0.51100000000E-03 0. -1.
         11   -1    0    0    0    0 -0.00000000000E+00 -0.00000000000E+00 -0.45593999997E+02  0.45594000000E+02  0.51100000000E-03 0.  1.
         23    2    1    2    0    0  0.00000000000E+00  0.35527136788E-14  0.00000000000E+00  0.91188000000E+02  0.91188000000E+02 0.  0.
    9900012    2    3    3    0    0 -0.10075439382E+02  0.31017619318E+02  0.28635923535E+02  0.47787270702E+02  0.19999998440E+02 0.  0.
        -12    1    3    3    0    0  0.10075439382E+02 -0.31017619318E+02 -0.28635923535E+02  0.43400729298E+02  0.00000000000E+00 0.  1.
         11    1    4    4    0    0 -0.32644955068E+01  0.16463734656E+02  0.22301147003E+02  0.27911514607E+02  0.51100000000E-03 0. -1.
        -11    1    4    4    0    0 -0.29674859082E+01  0.97263293260E+01  0.85843132753E+01  0.13307813098E+02  0.51100000000E-03 0.  1.
        -12    1    4    4    0    0 -0.38434579668E+01  0.48275553356E+01 -0.22495367435E+01  0.65679429977E+01  0.00000000000E+00 0.  1.
</event>
<event>
 8    1  0.4798632E-010  0.9118800E+02  0.7816164E-02  0.1184000E+00
        -11   -1    0    0    0    0  0.00000000000E+00  0.00000000000E+00  0.45593999997E+02  0.45594000000E+02  0.51100000000E-03 0. -1.
         11   -1    0    0    0    0 -0.00000000000E+00 -0.00000000000E+00 -0.45593999997E+02  0.45594000000E+02  0.51100000000E-03 0.  1.
         23    2    1    2    0    0  0.00000000000E+00  0.00000000000E+00  0.00000000000E+00  0.91188000000E+02  0.91188000000E+02 0.  0.
    9900012    2    3    3    0    0 -0.30914110081E+02 -0.44912837809E+01  0.30129223095E+02  0.47787263643E+02  0.19999966252E+02 0.  0.
        -12    1    3    3    0    0  0.30914110081E+02  0.44912837809E+01 -0.30129223095E+02  0.43400736357E+02  0.00000000000E+00 0.  1.
         11    1    4    4    0    0 -0.60612417768E+01 -0.63906822180E+01  0.96794784484E+00  0.88609477134E+01  0.51100000000E-03 0. -1.
        -11    1    4    4    0    0 -0.94259313302E+01  0.35955476833E+00  0.16074422660E+02  0.18637717810E+02  0.51100000000E-03 0.  1.
         12    1    4    4    0    0 -0.15426936974E+02  0.15398436687E+01  0.13086852590E+02  0.20288598119E+02  0.00000000000E+00 0. -1.
</event>
<event>
 8    1  0.4798632E-010  0.9118800E+02  0.7816164E-02  0.1184000E+00
        -11   -1    0    0    0    0  0.00000000000E+00  0.00000000000E+00  0.45593999997E+02  0.45594000000E+02  0.51100000000E-03 0. -1.
         11   -1    0    0    0    0 -0.00000000000E+00 -0.00000000000E+00 -0.45593999997E+02  0.45594000000E+02  0.51100000000E-03 0.  1.
         23    2    1    2    0    0  0.00000000000E+00 -0.66613381478E-15  0.71054273576E-14  0.91188000000E+02  0.91188000000E+02 0.  0.
    9900012    2    3    3    0    0  0.23706907229E+02  0.95257914538E+00 -0.36341408871E+02  0.47787275857E+02  0.20000021943E+02 0.  0.
         12    1    3    3    0    0 -0.23706907229E+02 -0.95257914538E+00  0.36341408871E+02  0.43400724143E+02  0.00000000000E+00 0. -1.
         11    1    4    4    0    0  0.60940327520E+01  0.71563934242E+01 -0.12088705596E+02  0.15313001184E+02  0.51100000000E-03 0.  1.
        -11    1    4    4    0    0  0.80046836721E+01  0.27290683183E+01 -0.10186578907E+02  0.13239681441E+02  0.51100000000E-03 0. -1.
         12    1    4    4    0    0  0.96081908045E+01 -0.89328825972E+01 -0.14066124369E+02  0.19234593232E+02  0.00000000000E+00 0. -1.
</event>
<event>
 8    1  0.4798632E-010  0.9118800E+02  0.7816164E-02  0.1184000E+00
        -11   -1    0    0    0    0  0.00000000000E+00  0.00000000000E+00  0.45593999997E+02  0.45594000000E+02  0.51100000000E-03 0. -1.
         11   -1    0    0    0    0 -0.00000000000E+00 -0.00000000000E+00 -0.45593999997E+02  0.45594000000E+02  0.51100000000E-03 0.  1.
         23    2    1    2    0    0  0.71054273576E-14  0.00000000000E+00  0.00000000000E+00  0.91188000000E+02  0.91188000000E+02 0.  0.
    9900012    2    3    3    0    0  0.39343021193E+02  0.14746573681E+02 -0.10876049271E+02  0.47787271900E+02  0.20000003900E+02 0.  0.
         12    1    3    3    0    0 -0.39343021193E+02 -0.14746573681E+02  0.10876049271E+02  0.43400728100E+02  0.00000000000E+00 0. -1.
         11    1    4    4    0    0  0.12556841563E+02  0.71750524394E+00  0.29028317503E+00  0.12580673606E+02  0.51100000000E-03 0. -1.
        -11    1    4    4    0    0  0.28044356848E+02  0.12428947976E+02 -0.84603117937E+01  0.31820458430E+02  0.51100000000E-03 0.  1.
        -12    1    4    4    0    0 -0.12581772180E+01  0.16001204611E+01 -0.27060206525E+01  0.33861398633E+01  0.00000000000E+00 0.  1.
</event>
<event>
 8    1  0.4798632E-010  0.9118800E+02  0.7816164E-02  0.1184000E+00
        -11   -1    0    0    0    0  0.00000000000E+00  0.00000000000E+00  0.45593999997E+02  0.45594000000E+02  0.51100000000E-03 0. -1.
         11   -1    0    0    0    0 -0.00000000000E+00 -0.00000000000E+00 -0.45593999997E+02  0.45594000000E+02  0.51100000000E-03 0.  1.
         23    2    1    2    0    0 -0.35527136788E-14  0.71054273576E-14  0.00000000000E+00  0.91188000000E+02  0.91188000000E+02 0.  0.
    9900012    2    3    3    0    0  0.18771157106E+02 -0.34864883041E+02  0.17768145138E+02  0.47787269704E+02  0.19999993889E+02 0.  0.
        -12    1    3    3    0    0 -0.18771157106E+02  0.34864883041E+02 -0.17768145138E+02  0.43400730296E+02  0.00000000000E+00 0.  1.
         11    1    4    4    0    0  0.11258965453E+01 -0.44419359792E+01 -0.24083328506E+01  0.51767273112E+01  0.51100000000E-03 0. -1.
        -11    1    4    4    0    0  0.15047675395E+02 -0.15302788655E+02  0.15819968582E+02  0.26662319509E+02  0.51100000000E-03 0.  1.
         12    1    4    4    0    0  0.25975851660E+01 -0.15120158407E+02  0.43565094068E+01  0.15948222884E+02  0.00000000000E+00 0. -1.
</event>
<event>
 8    1  0.4798632E-010  0.9118800E+02  0.7816164E-02  0.1184000E+00
        -11   -1    0    0    0    0  0.00000000000E+00  0.00000000000E+00  0.45593999997E+02  0.45594000000E+02  0.51100000000E-03 0. -1.
         11   -1    0    0    0    0 -0.00000000000E+00 -0.00000000000E+00 -0.45593999997E+02  0.45594000000E+02  0.51100000000E-03 0.  1.
         23    2    1    2    0    0  0.00000000000E+00  0.00000000000E+00  0.35527136788E-14  0.91188000000E+02  0.91188000000E+02 0.  0.
    9900012    2    3    3    0    0 -0.90549880196E+01 -0.33399723288E+02  0.26193300380E+02  0.47787270645E+02  0.19999998180E+02 0.  0.
        -12    1    3    3    0    0  0.90549880196E+01  0.33399723288E+02 -0.26193300380E+02  0.43400729355E+02  0.00000000000E+00 0.  1.
         11    1    4    4    0    0 -0.12037743359E+01  0.19117118872E+01  0.39742583851E+01  0.45714817034E+01  0.51100000000E-03 0. -1.
        -11    1    4    4    0    0 -0.93453753950E+01 -0.28252683292E+02  0.19063780496E+02  0.35340881165E+02  0.51100000000E-03 0.  1.
        -12    1    4    4    0    0  0.14941617113E+01 -0.70587518830E+01  0.31552614993E+01  0.78749077769E+01  0.00000000000E+00 0.  1.
</event>
<event>
 8    1  0.4798632E-010  0.9118800E+02  0.7816164E-02  0.1184000E+00
        -11   -1    0    0    0    0  0.00000000000E+00  0.00000000000E+00  0.45593999997E+02  0.45594000000E+02  0.51100000000E-03 0. -1.
         11   -1    0    0    0    0 -0.00000000000E+00 -0.00000000000E+00 -0.45593999997E+02  0.45594000000E+02  0.51100000000E-03 0.  1.
         23    2    1    2    0    0 -0.13322676296E-14  0.71054273576E-14  0.35527136788E-14  0.91188000000E+02  0.91188000000E+02 0.  0.
    9900012    2    3    3    0    0 -0.86302001532E+00  0.31523160265E+02  0.29818939408E+02  0.47787267471E+02  0.19999983708E+02 0.  0.
        -12    1    3    3    0    0  0.86302001532E+00 -0.31523160265E+02 -0.29818939408E+02  0.43400732529E+02  0.00000000000E+00 0.  1.
         11    1    4    4    0    0 -0.63072706607E+01  0.24838584659E+02  0.19615568923E+02  0.32272395255E+02  0.51100000000E-03 0. -1.
        -11    1    4    4    0    0  0.31435493286E+01  0.85101735538E+00  0.83703773133E+01  0.89816117456E+01  0.51100000000E-03 0.  1.
        -12    1    4    4    0    0  0.23007013168E+01  0.58335582501E+01  0.18329931714E+01  0.65332604703E+01  0.00000000000E+00 0.  1.
</event>
<event>
 8    1  0.4798632E-010  0.9118800E+02  0.7816164E-02  0.1184000E+00
        -11   -1    0    0    0    0  0.00000000000E+00  0.00000000000E+00  0.45593999997E+02  0.45594000000E+02  0.51100000000E-03 0. -1.
         11   -1    0    0    0    0 -0.00000000000E+00 -0.00000000000E+00 -0.45593999997E+02  0.45594000000E+02  0.51100000000E-03 0.  1.
         23    2    1    2    0    0  0.00000000000E+00  0.00000000000E+00  0.00000000000E+00  0.91188000000E+02  0.91188000000E+02 0.  0.
    9900012    2    3    3    0    0 -0.21305138233E+02 -0.12441992995E+02  0.35705905043E+02  0.47787265447E+02  0.19999974478E+02 0.  0.
        -12    1    3    3    0    0  0.21305138233E+02  0.12441992995E+02 -0.35705905043E+02  0.43400734553E+02  0.00000000000E+00 0.  1.
         11    1    4    4    0    0 -0.10123122457E+02 -0.10442507510E+02  0.19067086845E+02  0.23980770888E+02  0.51100000000E-03 0. -1.
        -11    1    4    4    0    0  0.25982660455E+01  0.53525216134E+00  0.47065275380E+01  0.54026736942E+01  0.51100000000E-03 0.  1.
        -12    1    4    4    0    0 -0.13780281822E+02 -0.25347376463E+01  0.11932290660E+02  0.18403820864E+02  0.00000000000E+00 0.  1.
</event>
<event>
 8    1  0.4798632E-010  0.9118800E+02  0.7816164E-02  0.1184000E+00
        -11   -1    0    0    0    0  0.00000000000E+00  0.00000000000E+00  0.45593999997E+02  0.45594000000E+02  0.51100000000E-03 0. -1.
         11   -1    0    0    0    0 -0.00000000000E+00 -0.00000000000E+00 -0.45593999997E+02  0.45594000000E+02  0.51100000000E-03 0.  1.
         23    2    1    2    0    0  0.00000000000E+00  0.35527136788E-14  0.00000000000E+00  0.91188000000E+02  0.91188000000E+02 0.  0.
    9900012    2    3    3    0    0 -0.13660223348E+02  0.25632555654E+02  0.32248930908E+02  0.47787272403E+02  0.20000006194E+02 0.  0.
        -12    1    3    3    0    0  0.13660223348E+02 -0.25632555654E+02 -0.32248930908E+02  0.43400727597E+02  0.00000000000E+00 0.  1.
         11    1    4    4    0    0 -0.70897624338E+01  0.22145395285E+02  0.13184929638E+02  0.26730612292E+02  0.51100000000E-03 0.  1.
        -11    1    4    4    0    0 -0.35634488032E+01  0.37473750106E+01  0.15735731232E+02  0.16563641644E+02  0.51100000000E-03 0. -1.
         12    1    4    4    0    0 -0.30070121109E+01 -0.26021464179E+00  0.33282700377E+01  0.44930184663E+01  0.00000000000E+00 0. -1.
</event>
<event>
 8    1  0.4798632E-010  0.9118800E+02  0.7816164E-02  0.1184000E+00
        -11   -1    0    0    0    0  0.00000000000E+00  0.00000000000E+00  0.45593999997E+02  0.45594000000E+02  0.51100000000E-03 0.  1.
         11   -1    0    0    0    0 -0.00000000000E+00 -0.00000000000E+00 -0.45593999997E+02  0.45594000000E+02  0.51100000000E-03 0. -1.
         23    2    1    2    0    0  0.00000000000E+00  0.71054273576E-14  0.00000000000E+00  0.91188000000E+02  0.91188000000E+02 0.  0.
    9900012    2    3    3    0    0 -0.24406245340E+02 -0.35759622903E+02  0.30344336816E+01  0.47787271555E+02  0.20000002328E+02 0.  0.
        -12    1    3    3    0    0  0.24406245340E+02  0.35759622903E+02 -0.30344336816E+01  0.43400728445E+02  0.00000000000E+00 0.  1.
         11    1    4    4    0    0 -0.14900870550E+02 -0.15887309198E+02 -0.52623306077E+01  0.22408361394E+02  0.51100000000E-03 0. -1.
        -11    1    4    4    0    0 -0.59800334982E+01 -0.69098951611E+01  0.76709424098E+01  0.11931085847E+02  0.51100000000E-03 0.  1.
        -12    1    4    4    0    0 -0.35253412923E+01 -0.12962418544E+02  0.62582187943E+00  0.13447824314E+02  0.00000000000E+00 0.  1.
</event>
<event>
 8    1  0.4798632E-010  0.9118800E+02  0.7816164E-02  0.1184000E+00
        -11   -1    0    0    0    0  0.00000000000E+00  0.00000000000E+00  0.45593999997E+02  0.45594000000E+02  0.51100000000E-03 0. -1.
         11   -1    0    0    0    0 -0.00000000000E+00 -0.00000000000E+00 -0.45593999997E+02  0.45594000000E+02  0.51100000000E-03 0.  1.
         23    2    1    2    0    0  0.00000000000E+00  0.00000000000E+00  0.00000000000E+00  0.91188000000E+02  0.91188000000E+02 0.  0.
    9900012    2    3    3    0    0  0.18610666120E+02 -0.45280047880E+01 -0.38945643367E+02  0.47787275835E+02  0.20000021841E+02 0.  0.
         12    1    3    3    0    0 -0.18610666120E+02  0.45280047880E+01  0.38945643367E+02  0.43400724165E+02  0.00000000000E+00 0. -1.
         11    1    4    4    0    0  0.10532949498E+02 -0.51211211972E+01 -0.98488326899E+01  0.15302562303E+02  0.51100000000E-03 0. -1.
        -11    1    4    4    0    0  0.31614370708E-01 -0.17326051902E+01 -0.20168615446E+02  0.20242923937E+02  0.51100000000E-03 0.  1.
        -12    1    4    4    0    0  0.80461022516E+01  0.23257215994E+01 -0.89281952308E+01  0.12241789595E+02  0.00000000000E+00 0.  1.
</event>
<event>
 8    1  0.4798632E-010  0.9118800E+02  0.7816164E-02  0.1184000E+00
        -11   -1    0    0    0    0  0.00000000000E+00  0.00000000000E+00  0.45593999997E+02  0.45594000000E+02  0.51100000000E-03 0. -1.
         11   -1    0    0    0    0 -0.00000000000E+00 -0.00000000000E+00 -0.45593999997E+02  0.45594000000E+02  0.51100000000E-03 0.  1.
         23    2    1    2    0    0  0.35527136788E-14  0.00000000000E+00  0.00000000000E+00  0.91188000000E+02  0.91188000000E+02 0.  0.
    9900012    2    3    3    0    0 -0.23181270404E+02 -0.62446211260E+01  0.36156004127E+02  0.47787271608E+02  0.20000002570E+02 0.  0.
        -12    1    3    3    0    0  0.23181270404E+02  0.62446211260E+01 -0.36156004127E+02  0.43400728392E+02  0.00000000000E+00 0.  1.
         11    1    4    4    0    0 -0.81890023753E+00  0.14172225028E+01  0.67794265793E+01  0.69742198292E+01  0.51100000000E-03 0. -1.
        -11    1    4    4    0    0  0.10186739798E+01 -0.38339325018E+01  0.15310702641E+01  0.42521655095E+01  0.51100000000E-03 0.  1.
        -12    1    4    4    0    0 -0.23381044146E+02 -0.38279111269E+01  0.27845507283E+02  0.36560886269E+02  0.00000000000E+00 0.  1.
</event>
<event>
 8    1  0.4798632E-010  0.9118800E+02  0.7816164E-02  0.1184000E+00
        -11   -1    0    0    0    0  0.00000000000E+00  0.00000000000E+00  0.45593999997E+02  0.45594000000E+02  0.51100000000E-03 0. -1.
         11   -1    0    0    0    0 -0.00000000000E+00 -0.00000000000E+00 -0.45593999997E+02  0.45594000000E+02  0.51100000000E-03 0.  1.
         23    2    1    2    0    0 -0.17763568394E-14  0.00000000000E+00  0.00000000000E+00  0.91188000000E+02  0.91188000000E+02 0.  0.
    9900012    2    3    3    0    0 -0.90731494096E+01 -0.42255824186E+02  0.39681790824E+01  0.47787272321E+02  0.20000005820E+02 0.  0.
         12    1    3    3    0    0  0.90731494096E+01  0.42255824186E+02 -0.39681790824E+01  0.43400727679E+02  0.00000000000E+00 0. -1.
         11    1    4    4    0    0 -0.11173730741E+02 -0.13929519494E+02 -0.26026981038E+01  0.18045991513E+02  0.51100000000E-03 0. -1.
        -11    1    4    4    0    0 -0.63038121001E+00 -0.13730666978E+02  0.66572346707E+00  0.13761242100E+02  0.51100000000E-03 0.  1.
         12    1    4    4    0    0  0.27309625411E+01 -0.14595637713E+02  0.59051537192E+01  0.15980038708E+02  0.00000000000E+00 0. -1.
</event>
<event>
 8    1  0.4798632E-010  0.9118800E+02  0.7816164E-02  0.1184000E+00
        -11   -1    0    0    0    0  0.00000000000E+00  0.00000000000E+00  0.45593999997E+02  0.45594000000E+02  0.51100000000E-03 0. -1.
         11   -1    0    0    0    0 -0.00000000000E+00 -0.00000000000E+00 -0.45593999997E+02  0.45594000000E+02  0.51100000000E-03 0.  1.
         23    2    1    2    0    0  0.00000000000E+00  0.00000000000E+00  0.00000000000E+00  0.91188000000E+02  0.91188000000E+02 0.  0.
    9900012    2    3    3    0    0 -0.14485835177E+02 -0.26090585911E+02  0.31512930291E+02  0.47787275703E+02  0.20000021242E+02 0.  0.
        -12    1    3    3    0    0  0.14485835177E+02  0.26090585911E+02 -0.31512930291E+02  0.43400724297E+02  0.00000000000E+00 0.  1.
         11    1    4    4    0    0 -0.19573791682E+01 -0.15544936551E+02  0.19534858242E+02  0.25041706659E+02  0.51100000000E-03 0. -1.
        -11    1    4    4    0    0 -0.63160677403E+01 -0.86399061067E+01  0.20762039411E+01  0.10901894895E+02  0.51100000000E-03 0.  1.
         12    1    4    4    0    0 -0.62123882684E+01 -0.19057432532E+01  0.99018681080E+01  0.11843674150E+02  0.00000000000E+00 0. -1.
</event>
<event>
 8    1  0.4798632E-010  0.9118800E+02  0.7816164E-02  0.1184000E+00
        -11   -1    0    0    0    0  0.00000000000E+00  0.00000000000E+00  0.45593999997E+02  0.45594000000E+02  0.51100000000E-03 0. -1.
         11   -1    0    0    0    0 -0.00000000000E+00 -0.00000000000E+00 -0.45593999997E+02  0.45594000000E+02  0.51100000000E-03 0.  1.
         23    2    1    2    0    0  0.00000000000E+00 -0.35527136788E-14  0.00000000000E+00  0.91188000000E+02  0.91188000000E+02 0.  0.
    9900012    2    3    3    0    0 -0.35285696071E+02 -0.17982931240E+02  0.17752662109E+02  0.47787272181E+02  0.20000005184E+02 0.  0.
        -12    1    3    3    0    0  0.35285696071E+02  0.17982931240E+02 -0.17752662109E+02  0.43400727819E+02  0.00000000000E+00 0.  1.
         11    1    4    4    0    0 -0.87838167326E+01 -0.56069543751E+01  0.78864461282E+01  0.13068642108E+02  0.51100000000E-03 0. -1.
        -11    1    4    4    0    0 -0.79761467273E+01 -0.10954809714E+01 -0.39849997393E+01  0.89832743672E+01  0.51100000000E-03 0.  1.
        -12    1    4    4    0    0 -0.18525732611E+02 -0.11280495894E+02  0.13851215720E+02  0.25735355706E+02  0.00000000000E+00 0.  1.
</event>
<event>
 8    1  0.4798632E-010  0.9118800E+02  0.7816164E-02  0.1184000E+00
        -11   -1    0    0    0    0  0.00000000000E+00  0.00000000000E+00  0.45593999997E+02  0.45594000000E+02  0.51100000000E-03 0. -1.
         11   -1    0    0    0    0 -0.00000000000E+00 -0.00000000000E+00 -0.45593999997E+02  0.45594000000E+02  0.51100000000E-03 0.  1.
         23    2    1    2    0    0  0.00000000000E+00  0.00000000000E+00  0.00000000000E+00  0.91188000000E+02  0.91188000000E+02 0.  0.
    9900012    2    3    3    0    0 -0.18512115168E+02 -0.14871503396E+02 -0.36328544942E+02  0.47787271909E+02  0.20000003941E+02 0.  0.
         12    1    3    3    0    0  0.18512115168E+02  0.14871503396E+02  0.36328544942E+02  0.43400728091E+02  0.00000000000E+00 0. -1.
         11    1    4    4    0    0 -0.10815188224E+01 -0.55660920491E+01 -0.87476591532E+00  0.57372710699E+01  0.51100000000E-03 0. -1.
        -11    1    4    4    0    0 -0.81123796581E+01 -0.44478811712E+01 -0.27069184113E+02  0.28606556581E+02  0.51100000000E-03 0.  1.
        -12    1    4    4    0    0 -0.93182166873E+01 -0.48575301754E+01 -0.83845949136E+01  0.13443444257E+02  0.00000000000E+00 0.  1.
</event>
<event>
 8    1  0.4798632E-010  0.9118800E+02  0.7816164E-02  0.1184000E+00
        -11   -1    0    0    0    0  0.00000000000E+00  0.00000000000E+00  0.45593999997E+02  0.45594000000E+02  0.51100000000E-03 0. -1.
         11   -1    0    0    0    0 -0.00000000000E+00 -0.00000000000E+00 -0.45593999997E+02  0.45594000000E+02  0.51100000000E-03 0.  1.
         23    2    1    2    0    0  0.00000000000E+00 -0.44408920985E-15  0.00000000000E+00  0.91188000000E+02  0.91188000000E+02 0.  0.
    9900012    2    3    3    0    0 -0.22934971936E+02 -0.39248107634E+01 -0.36636131641E+02  0.47787271678E+02  0.20000002888E+02 0.  0.
         12    1    3    3    0    0  0.22934971936E+02  0.39248107634E+01  0.36636131641E+02  0.43400728322E+02  0.00000000000E+00 0. -1.
         11    1    4    4    0    0 -0.36234760572E+01 -0.72096586839E+01 -0.40274764007E+01  0.90182771910E+01  0.51100000000E-03 0. -1.
        -11    1    4    4    0    0 -0.12098803113E+02  0.54732875169E+01 -0.18490741916E+02  0.22765004939E+02  0.51100000000E-03 0.  1.
         12    1    4    4    0    0 -0.72126927659E+01 -0.21884395964E+01 -0.14117913324E+02  0.16003989547E+02  0.00000000000E+00 0. -1.
</event>
<event>
 8    1  0.4798632E-010  0.9118800E+02  0.7816164E-02  0.1184000E+00
        -11   -1    0    0    0    0  0.00000000000E+00  0.00000000000E+00  0.45593999997E+02  0.45594000000E+02  0.51100000000E-03 0. -1.
         11   -1    0    0    0    0 -0.00000000000E+00 -0.00000000000E+00 -0.45593999997E+02  0.45594000000E+02  0.51100000000E-03 0.  1.
         23    2    1    2    0    0  0.00000000000E+00  0.17763568394E-14  0.00000000000E+00  0.91188000000E+02  0.91188000000E+02 0.  0.
    9900012    2    3    3    0    0  0.32867604914E+02 -0.12508994315E+02 -0.25433616565E+02  0.47787271399E+02  0.20000001615E+02 0.  0.
         12    1    3    3    0    0 -0.32867604914E+02  0.12508994315E+02  0.25433616565E+02  0.43400728601E+02  0.00000000000E+00 0. -1.
         11    1    4    4    0    0  0.18264156368E+01 -0.35250950378E+01 -0.94669640724E+01  0.10265743914E+02  0.51100000000E-03 0. -1.
        -11    1    4    4    0    0  0.23015250000E+02 -0.24374133735E+01 -0.13780996577E+02  0.26936194672E+02  0.51100000000E-03 0.  1.
        -12    1    4    4    0    0  0.80259392773E+01 -0.65464859032E+01 -0.21856559161E+01  0.10585332812E+02  0.00000000000E+00 0.  1.
</event>
<event>
 8    1  0.4798632E-010  0.9118800E+02  0.7816164E-02  0.1184000E+00
        -11   -1    0    0    0    0  0.00000000000E+00  0.00000000000E+00  0.45593999997E+02  0.45594000000E+02  0.51100000000E-03 0. -1.
         11   -1    0    0    0    0 -0.00000000000E+00 -0.00000000000E+00 -0.45593999997E+02  0.45594000000E+02  0.51100000000E-03 0.  1.
         23    2    1    2    0    0  0.00000000000E+00  0.00000000000E+00  0.00000000000E+00  0.91188000000E+02  0.91188000000E+02 0.  0.
    9900012    2    3    3    0    0  0.32853211897E+02 -0.20002617566E+02 -0.20104357441E+02  0.47787269251E+02  0.19999991824E+02 0.  0.
         12    1    3    3    0    0 -0.32853211897E+02  0.20002617566E+02  0.20104357441E+02  0.43400730749E+02  0.00000000000E+00 0. -1.
         11    1    4    4    0    0  0.66567298417E+00 -0.54149364275E+01 -0.47715356003E+01  0.72479106839E+01  0.51100000000E-03 0. -1.
        -11    1    4    4    0    0  0.16050088146E+01 -0.28859897872E+01 -0.53849177549E+01  0.63168290966E+01  0.51100000000E-03 0.  1.
         12    1    4    4    0    0  0.30582530098E+02 -0.11701691352E+02 -0.99479040854E+01  0.34222529471E+02  0.00000000000E+00 0. -1.
</event>
<event>
 8    1  0.4798632E-010  0.9118800E+02  0.7816164E-02  0.1184000E+00
        -11   -1    0    0    0    0  0.00000000000E+00  0.00000000000E+00  0.45593999997E+02  0.45594000000E+02  0.51100000000E-03 0.  1.
         11   -1    0    0    0    0 -0.00000000000E+00 -0.00000000000E+00 -0.45593999997E+02  0.45594000000E+02  0.51100000000E-03 0. -1.
         23    2    1    2    0    0  0.00000000000E+00  0.00000000000E+00  0.00000000000E+00  0.91188000000E+02  0.91188000000E+02 0.  0.
    9900012    2    3    3    0    0 -0.36057224984E+02  0.41912624654E+01 -0.23789352684E+02  0.47787268949E+02  0.19999990447E+02 0.  0.
         12    1    3    3    0    0  0.36057224984E+02 -0.41912624654E+01  0.23789352684E+02  0.43400731051E+02  0.00000000000E+00 0. -1.
         11    1    4    4    0    0 -0.55859278501E+01  0.45919614760E+01 -0.53335006843E+01  0.89852618189E+01  0.51100000000E-03 0. -1.
        -11    1    4    4    0    0 -0.18809009412E+02 -0.73026191463E+01 -0.13915007360E+02  0.24509885996E+02  0.51100000000E-03 0.  1.
        -12    1    4    4    0    0 -0.11662287722E+02  0.69019201357E+01 -0.45408446401E+01  0.14292121134E+02  0.00000000000E+00 0.  1.
</event>
<event>
 8    1  0.4798632E-010  0.9118800E+02  0.7816164E-02  0.1184000E+00
        -11   -1    0    0    0    0  0.00000000000E+00  0.00000000000E+00  0.45593999997E+02  0.45594000000E+02  0.51100000000E-03 0.  1.
         11   -1    0    0    0    0 -0.00000000000E+00 -0.00000000000E+00 -0.45593999997E+02  0.45594000000E+02  0.51100000000E-03 0. -1.
         23    2    1    2    0    0  0.00000000000E+00  0.00000000000E+00  0.35527136788E-14  0.91188000000E+02  0.91188000000E+02 0.  0.
    9900012    2    3    3    0    0 -0.23432934341E+02 -0.32725870815E+02  0.16233875987E+02  0.47787265421E+02  0.19999974360E+02 0.  0.
        -12    1    3    3    0    0  0.23432934341E+02  0.32725870815E+02 -0.16233875987E+02  0.43400734579E+02  0.00000000000E+00 0.  1.
         11    1    4    4    0    0 -0.15845625143E+02 -0.25334879948E+02  0.18964043169E+02  0.35391735077E+02  0.51100000000E-03 0. -1.
        -11    1    4    4    0    0 -0.17103959852E+01  0.53342348082E+00 -0.17106684503E+01  0.24771721466E+01  0.51100000000E-03 0.  1.
        -12    1    4    4    0    0 -0.58769132129E+01 -0.79244143477E+01 -0.10194987320E+01  0.99183581973E+01  0.00000000000E+00 0.  1.
</event>
<event>
 8    1  0.4798632E-010  0.9118800E+02  0.7816164E-02  0.1184000E+00
        -11   -1    0    0    0    0  0.00000000000E+00  0.00000000000E+00  0.45593999997E+02  0.45594000000E+02  0.51100000000E-03 0.  1.
         11   -1    0    0    0    0 -0.00000000000E+00 -0.00000000000E+00 -0.45593999997E+02  0.45594000000E+02  0.51100000000E-03 0. -1.
         23    2    1    2    0    0  0.00000000000E+00 -0.17763568394E-14 -0.35527136788E-14  0.91188000000E+02  0.91188000000E+02 0.  0.
    9900012    2    3    3    0    0 -0.37195930099E+02 -0.15835785276E+02 -0.15789678718E+02  0.47787271144E+02  0.20000000453E+02 0.  0.
        -12    1    3    3    0    0  0.37195930099E+02  0.15835785276E+02  0.15789678718E+02  0.43400728856E+02  0.00000000000E+00 0.  1.
         11    1    4    4    0    0 -0.27699276612E+02 -0.76149558876E+01 -0.77563490830E+01  0.29755645336E+02  0.51100000000E-03 0. -1.
        -11    1    4    4    0    0  0.10516050357E+01 -0.33502208460E+01  0.59271403957E+00  0.35610620693E+01  0.51100000000E-03 0.  1.
        -12    1    4    4    0    0 -0.10548258523E+02 -0.48706085426E+01 -0.86260436744E+01  0.14470563739E+02  0.00000000000E+00 0.  1.
</event>
<event>
 8    1  0.4798632E-010  0.9118800E+02  0.7816164E-02  0.1184000E+00
        -11   -1    0    0    0    0  0.00000000000E+00  0.00000000000E+00  0.45593999997E+02  0.45594000000E+02  0.51100000000E-03 0. -1.
         11   -1    0    0    0    0 -0.00000000000E+00 -0.00000000000E+00 -0.45593999997E+02  0.45594000000E+02  0.51100000000E-03 0.  1.
         23    2    1    2    0    0  0.00000000000E+00  0.00000000000E+00  0.00000000000E+00  0.91188000000E+02  0.91188000000E+02 0.  0.
    9900012    2    3    3    0    0 -0.13120550778E+02  0.17894050983E+02 -0.37299830410E+02  0.47787271182E+02  0.20000000626E+02 0.  0.
         12    1    3    3    0    0  0.13120550778E+02 -0.17894050983E+02  0.37299830410E+02  0.43400728818E+02  0.00000000000E+00 0. -1.
         11    1    4    4    0    0 -0.83923143312E+01  0.10429427274E+02 -0.10139804703E+02  0.16793437194E+02  0.51100000000E-03 0. -1.
        -11    1    4    4    0    0 -0.31680027292E+01  0.70394868120E+01 -0.28087931126E+02  0.29129409384E+02  0.51100000000E-03 0.  1.
        -12    1    4    4    0    0 -0.15602337174E+01  0.42513689690E+00  0.92790541943E+00  0.18644246033E+01  0.00000000000E+00 0.  1.
</event>
<event>
 8    1  0.4798632E-010  0.9118800E+02  0.7816164E-02  0.1184000E+00
        -11   -1    0    0    0    0  0.00000000000E+00  0.00000000000E+00  0.45593999997E+02  0.45594000000E+02  0.51100000000E-03 0. -1.
         11   -1    0    0    0    0 -0.00000000000E+00 -0.00000000000E+00 -0.45593999997E+02  0.45594000000E+02  0.51100000000E-03 0.  1.
         23    2    1    2    0    0  0.00000000000E+00 -0.35527136788E-14  0.00000000000E+00  0.91188000000E+02  0.91188000000E+02 0.  0.
    9900012    2    3    3    0    0 -0.98536333590E+01  0.27262916659E+02  0.32299575102E+02  0.47787271125E+02  0.20000000365E+02 0.  0.
        -12    1    3    3    0    0  0.98536333590E+01 -0.27262916659E+02 -0.32299575102E+02  0.43400728875E+02  0.00000000000E+00 0.  1.
         11    1    4    4    0    0 -0.84241001524E+01  0.51884892775E+01  0.18534386833E+02  0.21009744879E+02  0.51100000000E-03 0. -1.
        -11    1    4    4    0    0  0.16362573429E+01  0.11601650795E+02  0.94131467829E+01  0.15029403577E+02  0.51100000000E-03 0.  1.
         12    1    4    4    0    0 -0.30657905495E+01  0.10472776586E+02  0.43520414861E+01  0.11748122668E+02  0.00000000000E+00 0. -1.
</event>
<event>
 8    1  0.4798632E-010  0.9118800E+02  0.7816164E-02  0.1184000E+00
        -11   -1    0    0    0    0  0.00000000000E+00  0.00000000000E+00  0.45593999997E+02  0.45594000000E+02  0.51100000000E-03 0. -1.
         11   -1    0    0    0    0 -0.00000000000E+00 -0.00000000000E+00 -0.45593999997E+02  0.45594000000E+02  0.51100000000E-03 0.  1.
         23    2    1    2    0    0  0.99920072216E-15  0.00000000000E+00  0.71054273576E-14  0.91188000000E+02  0.91188000000E+02 0.  0.
    9900012    2    3    3    0    0 -0.37252606699E+00  0.16127468955E+02 -0.40291303079E+02  0.47787272651E+02  0.20000007327E+02 0.  0.
         12    1    3    3    0    0  0.37252606699E+00 -0.16127468955E+02  0.40291303079E+02  0.43400727349E+02  0.00000000000E+00 0. -1.
         11    1    4    4    0    0  0.77193362535E+01  0.11103162137E+02 -0.13815245450E+02  0.19332081335E+02  0.51100000000E-03 0. -1.
        -11    1    4    4    0    0 -0.43812709153E+01  0.10714121805E+01 -0.16449959443E+02  0.17057098958E+02  0.51100000000E-03 0.  1.
         12    1    4    4    0    0 -0.37105914053E+01  0.39528946372E+01 -0.10026098186E+02  0.11398092359E+02  0.00000000000E+00 0. -1.
</event>
<event>
 8    1  0.4798632E-010  0.9118800E+02  0.7816164E-02  0.1184000E+00
        -11   -1    0    0    0    0  0.00000000000E+00  0.00000000000E+00  0.45593999997E+02  0.45594000000E+02  0.51100000000E-03 0. -1.
         11   -1    0    0    0    0 -0.00000000000E+00 -0.00000000000E+00 -0.45593999997E+02  0.45594000000E+02  0.51100000000E-03 0.  1.
         23    2    1    2    0    0 -0.88817841970E-15 -0.88817841970E-15  0.00000000000E+00  0.91188000000E+02  0.91188000000E+02 0.  0.
    9900012    2    3    3    0    0 -0.50099339549E+01  0.41568367393E+01  0.42909726273E+02  0.47787270297E+02  0.19999996592E+02 0.  0.
        -12    1    3    3    0    0  0.50099339549E+01 -0.41568367393E+01 -0.42909726273E+02  0.43400729703E+02  0.00000000000E+00 0.  1.
         11    1    4    4    0    0 -0.67651187024E+01 -0.14521182247E+01  0.15126768935E+02  0.16634140106E+02  0.51100000000E-03 0. -1.
        -11    1    4    4    0    0  0.31366969598E+01  0.86678996569E+01  0.25443465908E+02  0.27061805371E+02  0.51100000000E-03 0.  1.
        -12    1    4    4    0    0 -0.13815122124E+01 -0.30589446929E+01  0.23394914307E+01  0.40913248198E+01  0.00000000000E+00 0.  1.
</event>
<event>
 8    1  0.4798632E-010  0.9118800E+02  0.7816164E-02  0.1184000E+00
        -11   -1    0    0    0    0  0.00000000000E+00  0.00000000000E+00  0.45593999997E+02  0.45594000000E+02  0.51100000000E-03 0. -1.
         11   -1    0    0    0    0 -0.00000000000E+00 -0.00000000000E+00 -0.45593999997E+02  0.45594000000E+02  0.51100000000E-03 0.  1.
         23    2    1    2    0    0  0.00000000000E+00 -0.26645352591E-14  0.17763568394E-14  0.91188000000E+02  0.91188000000E+02 0.  0.
    9900012    2    3    3    0    0  0.41622922579E+02 -0.79469326972E+01 -0.93809173180E+01  0.47787273819E+02  0.20000012651E+02 0.  0.
         12    1    3    3    0    0 -0.41622922579E+02  0.79469326972E+01  0.93809173180E+01  0.43400726181E+02  0.00000000000E+00 0. -1.
         11    1    4    4    0    0  0.81160414634E+01  0.47791920670E+01  0.44499624302E+00  0.94291477752E+01  0.51100000000E-03 0. -1.
        -11    1    4    4    0    0  0.63648702427E+01  0.76998682756E-01 -0.47020453616E+01  0.79137053803E+01  0.51100000000E-03 0.  1.
         12    1    4    4    0    0  0.27142010873E+02 -0.12803123447E+02 -0.51238681994E+01  0.30444420664E+02  0.00000000000E+00 0. -1.
</event>
<event>
 8    1  0.4798632E-010  0.9118800E+02  0.7816164E-02  0.1184000E+00
        -11   -1    0    0    0    0  0.00000000000E+00  0.00000000000E+00  0.45593999997E+02  0.45594000000E+02  0.51100000000E-03 0. -1.
         11   -1    0    0    0    0 -0.00000000000E+00 -0.00000000000E+00 -0.45593999997E+02  0.45594000000E+02  0.51100000000E-03 0.  1.
         23    2    1    2    0    0  0.00000000000E+00  0.00000000000E+00  0.36082248300E-15  0.91188000000E+02  0.91188000000E+02 0.  0.
    9900012    2    3    3    0    0 -0.24396863405E+01  0.43331472914E+02  0.23423796363E+00  0.47787268649E+02  0.19999989079E+02 0.  0.
        -12    1    3    3    0    0  0.24396863405E+01 -0.43331472914E+02 -0.23423796363E+00  0.43400731351E+02  0.00000000000E+00 0.  1.
         11    1    4    4    0    0  0.25340951377E+01  0.31150962800E+02  0.69208033100E+01  0.32010961252E+02  0.51100000000E-03 0. -1.
        -11    1    4    4    0    0 -0.27025625064E+01  0.83216426663E+01 -0.71162995730E+01  0.11278089406E+02  0.51100000000E-03 0.  1.
        -12    1    4    4    0    0 -0.22712189718E+01  0.38588674477E+01  0.42973422657E+00  0.44982179919E+01  0.00000000000E+00 0.  1.
</event>
<event>
 8    1  0.4798632E-010  0.9118800E+02  0.7816164E-02  0.1184000E+00
        -11   -1    0    0    0    0  0.00000000000E+00  0.00000000000E+00  0.45593999997E+02  0.45594000000E+02  0.51100000000E-03 0.  1.
         11   -1    0    0    0    0 -0.00000000000E+00 -0.00000000000E+00 -0.45593999997E+02  0.45594000000E+02  0.51100000000E-03 0. -1.
         23    2    1    2    0    0  0.17763568394E-14 -0.71054273576E-14  0.00000000000E+00  0.91188000000E+02  0.91188000000E+02 0.  0.
    9900012    2    3    3    0    0 -0.10975171678E+02  0.41908510063E+02 -0.26165097918E+01  0.47787265760E+02  0.19999975908E+02 0.  0.
        -12    1    3    3    0    0  0.10975171678E+02 -0.41908510063E+02  0.26165097918E+01  0.43400734240E+02  0.00000000000E+00 0.  1.
         11    1    4    4    0    0 -0.61865960555E+01  0.35499224439E+02  0.18775110286E+01  0.36083153333E+02  0.51100000000E-03 0. -1.
        -11    1    4    4    0    0 -0.50181869317E+01  0.82871120520E+00 -0.30673159499E+01  0.59394772279E+01  0.51100000000E-03 0.  1.
        -12    1    4    4    0    0  0.22961130958E+00  0.55805744184E+01 -0.14267048706E+01  0.57646351993E+01  0.00000000000E+00 0.  1.
</event>
<event>
 8    1  0.4798632E-010  0.9118800E+02  0.7816164E-02  0.1184000E+00
        -11   -1    0    0    0    0  0.00000000000E+00  0.00000000000E+00  0.45593999997E+02  0.45594000000E+02  0.51100000000E-03 0.  1.
         11   -1    0    0    0    0 -0.00000000000E+00 -0.00000000000E+00 -0.45593999997E+02  0.45594000000E+02  0.51100000000E-03 0. -1.
         23    2    1    2    0    0  0.00000000000E+00 -0.35527136788E-14  0.00000000000E+00  0.91188000000E+02  0.91188000000E+02 0.  0.
    9900012    2    3    3    0    0 -0.31243683181E+02 -0.27253594849E+02 -0.12833437953E+02  0.47787270737E+02  0.19999998596E+02 0.  0.
         12    1    3    3    0    0  0.31243683181E+02  0.27253594849E+02  0.12833437953E+02  0.43400729263E+02  0.00000000000E+00 0. -1.
         11    1    4    4    0    0 -0.14705668377E+02 -0.13607458387E+02 -0.10013928804E+02  0.22398624434E+02  0.51100000000E-03 0. -1.
        -11    1    4    4    0    0 -0.40342894612E+01 -0.10177579595E+02  0.27183454870E+01  0.11280426424E+02  0.51100000000E-03 0.  1.
        -12    1    4    4    0    0 -0.12503725342E+02 -0.34685568678E+01 -0.55378546363E+01  0.14108219879E+02  0.00000000000E+00 0.  1.
</event>
<event>
 8    1  0.4798632E-010  0.9118800E+02  0.7816164E-02  0.1184000E+00
        -11   -1    0    0    0    0  0.00000000000E+00  0.00000000000E+00  0.45593999997E+02  0.45594000000E+02  0.51100000000E-03 0. -1.
         11   -1    0    0    0    0 -0.00000000000E+00 -0.00000000000E+00 -0.45593999997E+02  0.45594000000E+02  0.51100000000E-03 0.  1.
         23    2    1    2    0    0  0.00000000000E+00  0.00000000000E+00  0.00000000000E+00  0.91188000000E+02  0.91188000000E+02 0.  0.
    9900012    2    3    3    0    0  0.12131735309E+02  0.23931789090E+02  0.34113247754E+02  0.47787271861E+02  0.20000003724E+02 0.  0.
        -12    1    3    3    0    0 -0.12131735309E+02 -0.23931789090E+02 -0.34113247754E+02  0.43400728139E+02  0.00000000000E+00 0.  1.
         11    1    4    4    0    0 -0.97795989464E+00  0.12760374623E+02  0.15082960915E+02  0.19780780477E+02  0.51100000000E-03 0. -1.
        -11    1    4    4    0    0  0.13422009341E+02  0.51586066621E+01  0.14888750237E+02  0.20698706272E+02  0.51100000000E-03 0.  1.
        -12    1    4    4    0    0 -0.31231413726E+00  0.60128078042E+01  0.41415366031E+01  0.73077851121E+01  0.00000000000E+00 0.  1.
</event>
<event>
 8    1  0.4798632E-010  0.9118800E+02  0.7816164E-02  0.1184000E+00
        -11   -1    0    0    0    0  0.00000000000E+00  0.00000000000E+00  0.45593999997E+02  0.45594000000E+02  0.51100000000E-03 0. -1.
         11   -1    0    0    0    0 -0.00000000000E+00 -0.00000000000E+00 -0.45593999997E+02  0.45594000000E+02  0.51100000000E-03 0.  1.
         23    2    1    2    0    0  0.00000000000E+00  0.00000000000E+00  0.00000000000E+00  0.91188000000E+02  0.91188000000E+02 0.  0.
    9900012    2    3    3    0    0  0.19561149263E+02 -0.19040066444E+02  0.33741127796E+02  0.47787235080E+02  0.19999836025E+02 0.  0.
        -12    1    3    3    0    0 -0.19561149263E+02  0.19040066444E+02 -0.33741127796E+02  0.43400764920E+02  0.00000000000E+00 0.  1.
         11    1    4    4    0    0  0.57323035641E+01 -0.15823264854E+01  0.11942567999E+02  0.13341214035E+02  0.51100000000E-03 0. -1.
        -11    1    4    4    0    0 -0.36633887057E+00 -0.95807271263E+01  0.40942128460E+01  0.10425311292E+02  0.51100000000E-03 0.  1.
        -12    1    4    4    0    0  0.14195184570E+02 -0.78770128322E+01  0.17704346951E+02  0.24020709754E+02  0.00000000000E+00 0.  1.
</event>
<event>
 8    1  0.4798632E-010  0.9118800E+02  0.7816164E-02  0.1184000E+00
        -11   -1    0    0    0    0  0.00000000000E+00  0.00000000000E+00  0.45593999997E+02  0.45594000000E+02  0.51100000000E-03 0.  1.
         11   -1    0    0    0    0 -0.00000000000E+00 -0.00000000000E+00 -0.45593999997E+02  0.45594000000E+02  0.51100000000E-03 0. -1.
         23    2    1    2    0    0  0.00000000000E+00  0.00000000000E+00  0.00000000000E+00  0.91188000000E+02  0.91188000000E+02 0.  0.
    9900012    2    3    3    0    0  0.40347351046E+01 -0.41585776093E+02  0.11745964721E+02  0.47787267888E+02  0.19999985608E+02 0.  0.
        -12    1    3    3    0    0 -0.40347351046E+01  0.41585776093E+02 -0.11745964721E+02  0.43400732112E+02  0.00000000000E+00 0.  1.
         11    1    4    4    0    0 -0.72103992865E+00 -0.20022687146E+02 -0.31804129430E+01  0.20286520793E+02  0.51100000000E-03 0. -1.
        -11    1    4    4    0    0  0.51609479276E+01 -0.79921808288E+01  0.64802829889E+01  0.11511055807E+02  0.51100000000E-03 0.  1.
         12    1    4    4    0    0 -0.40517289435E+00 -0.13570908118E+02  0.84460946751E+01  0.15989691288E+02  0.00000000000E+00 0. -1.
</event>
<event>
 8    1  0.4798632E-010  0.9118800E+02  0.7816164E-02  0.1184000E+00
        -11   -1    0    0    0    0  0.00000000000E+00  0.00000000000E+00  0.45593999997E+02  0.45594000000E+02  0.51100000000E-03 0. -1.
         11   -1    0    0    0    0 -0.00000000000E+00 -0.00000000000E+00 -0.45593999997E+02  0.45594000000E+02  0.51100000000E-03 0.  1.
         23    2    1    2    0    0  0.11102230246E-15  0.00000000000E+00 -0.71054273576E-14  0.91188000000E+02  0.91188000000E+02 0.  0.
    9900012    2    3    3    0    0  0.53766069236E+00  0.24582778388E+02 -0.35763403127E+02  0.47787273330E+02  0.20000010419E+02 0.  0.
         12    1    3    3    0    0 -0.53766069236E+00 -0.24582778388E+02  0.35763403127E+02  0.43400726670E+02  0.00000000000E+00 0. -1.
         11    1    4    4    0    0  0.12346147871E+01  0.10745256961E+02 -0.27280723720E+01  0.11154694077E+02  0.51100000000E-03 0. -1.
        -11    1    4    4    0    0  0.19748604198E+00  0.65940105661E+01 -0.24642108439E+02  0.25509870338E+02  0.51100000000E-03 0.  1.
         12    1    4    4    0    0 -0.89444013675E+00  0.72435108609E+01 -0.83932223160E+01  0.11122708914E+02  0.00000000000E+00 0. -1.
</event>
<event>
 8    1  0.4798632E-010  0.9118800E+02  0.7816164E-02  0.1184000E+00
        -11   -1    0    0    0    0  0.00000000000E+00  0.00000000000E+00  0.45593999997E+02  0.45594000000E+02  0.51100000000E-03 0. -1.
         11   -1    0    0    0    0 -0.00000000000E+00 -0.00000000000E+00 -0.45593999997E+02  0.45594000000E+02  0.51100000000E-03 0.  1.
         23    2    1    2    0    0  0.00000000000E+00  0.00000000000E+00  0.00000000000E+00  0.91188000000E+02  0.91188000000E+02 0.  0.
    9900012    2    3    3    0    0  0.21921873595E+01  0.24694375748E+02 -0.35623100914E+02  0.47787271922E+02  0.20000004000E+02 0.  0.
         12    1    3    3    0    0 -0.21921873595E+01 -0.24694375748E+02  0.35623100914E+02  0.43400728078E+02  0.00000000000E+00 0. -1.
         11    1    4    4    0    0 -0.21788486569E+01  0.12839061546E+01 -0.12913732833E+01  0.28396199924E+01  0.51100000000E-03 0. -1.
        -11    1    4    4    0    0  0.45459304218E+01  0.98240402993E+01 -0.37036147040E+01  0.11440892157E+02  0.51100000000E-03 0.  1.
        -12    1    4    4    0    0 -0.17489440552E+00  0.13586429294E+02 -0.30628112927E+02  0.33506759773E+02  0.00000000000E+00 0.  1.
</event>
<event>
 8    1  0.4798632E-010  0.9118800E+02  0.7816164E-02  0.1184000E+00
        -11   -1    0    0    0    0  0.00000000000E+00  0.00000000000E+00  0.45593999997E+02  0.45594000000E+02  0.51100000000E-03 0. -1.
         11   -1    0    0    0    0 -0.00000000000E+00 -0.00000000000E+00 -0.45593999997E+02  0.45594000000E+02  0.51100000000E-03 0.  1.
         23    2    1    2    0    0  0.00000000000E+00  0.35527136788E-14  0.00000000000E+00  0.91188000000E+02  0.91188000000E+02 0.  0.
    9900012    2    3    3    0    0 -0.66852833684E+01 -0.20174007871E+02 -0.37840978092E+02  0.47787271547E+02  0.20000002291E+02 0.  0.
         12    1    3    3    0    0  0.66852833684E+01  0.20174007871E+02  0.37840978092E+02  0.43400728453E+02  0.00000000000E+00 0. -1.
         11    1    4    4    0    0 -0.83415066656E+01 -0.20476524941E+02 -0.28673955273E+02  0.36208624917E+02  0.51100000000E-03 0. -1.
        -11    1    4    4    0    0 -0.19295169678E+00  0.31270026071E+01 -0.67032472347E+01  0.73992499223E+01  0.51100000000E-03 0.  1.
        -12    1    4    4    0    0  0.18491749939E+01 -0.28244855379E+01 -0.24637755838E+01  0.41793967076E+01  0.00000000000E+00 0.  1.
</event>
<event>
 8    1  0.4798632E-010  0.9118800E+02  0.7816164E-02  0.1184000E+00
        -11   -1    0    0    0    0  0.00000000000E+00  0.00000000000E+00  0.45593999997E+02  0.45594000000E+02  0.51100000000E-03 0. -1.
         11   -1    0    0    0    0 -0.00000000000E+00 -0.00000000000E+00 -0.45593999997E+02  0.45594000000E+02  0.51100000000E-03 0.  1.
         23    2    1    2    0    0  0.00000000000E+00  0.00000000000E+00  0.00000000000E+00  0.91188000000E+02  0.91188000000E+02 0.  0.
    9900012    2    3    3    0    0  0.12122015486E+02 -0.18593062450E+01 -0.41631994530E+02  0.47787271346E+02  0.20000001375E+02 0.  0.
         12    1    3    3    0    0 -0.12122015486E+02  0.18593062450E+01  0.41631994530E+02  0.43400728654E+02  0.00000000000E+00 0. -1.
         11    1    4    4    0    0 -0.28815161481E+01 -0.52587805618E+01 -0.44179870091E+01  0.74482560229E+01  0.51100000000E-03 0. -1.
        -11    1    4    4    0    0  0.10520467059E+02  0.16174544219E+01 -0.27629032594E+02  0.29608441842E+02  0.51100000000E-03 0.  1.
         12    1    4    4    0    0  0.44830645750E+01  0.17820198949E+01 -0.95849749265E+01  0.10730573481E+02  0.00000000000E+00 0. -1.
</event>
<event>
 8    1  0.4798632E-010  0.9118800E+02  0.7816164E-02  0.1184000E+00
        -11   -1    0    0    0    0  0.00000000000E+00  0.00000000000E+00  0.45593999997E+02  0.45594000000E+02  0.51100000000E-03 0. -1.
         11   -1    0    0    0    0 -0.00000000000E+00 -0.00000000000E+00 -0.45593999997E+02  0.45594000000E+02  0.51100000000E-03 0.  1.
         23    2    1    2    0    0  0.88817841970E-15 -0.17763568394E-14  0.00000000000E+00  0.91188000000E+02  0.91188000000E+02 0.  0.
    9900012    2    3    3    0    0 -0.42301333230E+01 -0.10250490296E+02 -0.41960192522E+02  0.47787258811E+02  0.19999944225E+02 0.  0.
         12    1    3    3    0    0  0.42301333230E+01  0.10250490296E+02  0.41960192522E+02  0.43400741189E+02  0.00000000000E+00 0. -1.
         11    1    4    4    0    0  0.16205078203E+01  0.51921235360E+01 -0.55876252217E+01  0.77978040684E+01  0.51100000000E-03 0. -1.
        -11    1    4    4    0    0 -0.41288700269E+01 -0.11171325564E+02 -0.28134735405E+02  0.30551749854E+02  0.51100000000E-03 0.  1.
         12    1    4    4    0    0 -0.17217711165E+01 -0.42712882678E+01 -0.82378318950E+01  0.94377048891E+01  0.00000000000E+00 0. -1.
</event>
<event>
 8    1  0.4798632E-010  0.9118800E+02  0.7816164E-02  0.1184000E+00
        -11   -1    0    0    0    0  0.00000000000E+00  0.00000000000E+00  0.45593999997E+02  0.45594000000E+02  0.51100000000E-03 0. -1.
         11   -1    0    0    0    0 -0.00000000000E+00 -0.00000000000E+00 -0.45593999997E+02  0.45594000000E+02  0.51100000000E-03 0.  1.
         23    2    1    2    0    0 -0.17763568394E-14  0.00000000000E+00  0.00000000000E+00  0.91188000000E+02  0.91188000000E+02 0.  0.
    9900012    2    3    3    0    0  0.11970552355E+02  0.18709674465E+02  0.37286423429E+02  0.47787269426E+02  0.19999992620E+02 0.  0.
        -12    1    3    3    0    0 -0.11970552355E+02 -0.18709674465E+02 -0.37286423429E+02  0.43400730574E+02  0.00000000000E+00 0.  1.
         11    1    4    4    0    0 -0.32752372131E+01  0.62088785509E+01  0.16349343117E+02  0.17792649389E+02  0.51100000000E-03 0. -1.
        -11    1    4    4    0    0  0.35192710088E+01 -0.56578808209E+00  0.16964510196E+01  0.39475727872E+01  0.51100000000E-03 0.  1.
         12    1    4    4    0    0  0.11726518560E+02  0.13066583996E+02  0.19240629292E+02  0.26047047249E+02  0.00000000000E+00 0. -1.
</event>
<event>
 8    1  0.4798632E-010  0.9118800E+02  0.7816164E-02  0.1184000E+00
        -11   -1    0    0    0    0  0.00000000000E+00  0.00000000000E+00  0.45593999997E+02  0.45594000000E+02  0.51100000000E-03 0. -1.
         11   -1    0    0    0    0 -0.00000000000E+00 -0.00000000000E+00 -0.45593999997E+02  0.45594000000E+02  0.51100000000E-03 0.  1.
         23    2    1    2    0    0  0.00000000000E+00  0.00000000000E+00 -0.33306690739E-15  0.91188000000E+02  0.91188000000E+02 0.  0.
    9900012    2    3    3    0    0  0.40159061102E+02  0.16453072702E+02 -0.41201697815E+00  0.47787267887E+02  0.19999985606E+02 0.  0.
        -12    1    3    3    0    0 -0.40159061102E+02 -0.16453072702E+02  0.41201697815E+00  0.43400732113E+02  0.00000000000E+00 0.  1.
         11    1    4    4    0    0  0.31589195059E+02  0.16328685346E+02 -0.62679240111E+01  0.36108033473E+02  0.51100000000E-03 0. -1.
        -11    1    4    4    0    0  0.87573115447E+01  0.12757437038E+01  0.56364272414E+01  0.10492251417E+02  0.51100000000E-03 0.  1.
         12    1    4    4    0    0 -0.18744550211E+00 -0.11513563482E+01  0.21947979155E+00  0.11869829972E+01  0.00000000000E+00 0. -1.
</event>
<event>
 8    1  0.4798632E-010  0.9118800E+02  0.7816164E-02  0.1184000E+00
        -11   -1    0    0    0    0  0.00000000000E+00  0.00000000000E+00  0.45593999997E+02  0.45594000000E+02  0.51100000000E-03 0. -1.
         11   -1    0    0    0    0 -0.00000000000E+00 -0.00000000000E+00 -0.45593999997E+02  0.45594000000E+02  0.51100000000E-03 0.  1.
         23    2    1    2    0    0 -0.35527136788E-14  0.26645352591E-14  0.00000000000E+00  0.91188000000E+02  0.91188000000E+02 0.  0.
    9900012    2    3    3    0    0 -0.25768203834E+02  0.54820667675E+01 -0.34490142200E+02  0.47787270814E+02  0.19999998951E+02 0.  0.
         12    1    3    3    0    0  0.25768203834E+02 -0.54820667675E+01  0.34490142200E+02  0.43400729186E+02  0.00000000000E+00 0. -1.
         11    1    4    4    0    0  0.68709162963E+00 -0.35082026335E+01 -0.41193245585E+01  0.54542108232E+01  0.51100000000E-03 0. -1.
        -11    1    4    4    0    0 -0.20490250646E+02  0.62525445495E+01 -0.28211604889E+02  0.35423711488E+02  0.51100000000E-03 0.  1.
         12    1    4    4    0    0 -0.59650448171E+01  0.27377248515E+01 -0.21592127528E+01  0.69093485036E+01  0.00000000000E+00 0. -1.
</event>
<event>
 8    1  0.4798632E-010  0.9118800E+02  0.7816164E-02  0.1184000E+00
        -11   -1    0    0    0    0  0.00000000000E+00  0.00000000000E+00  0.45593999997E+02  0.45594000000E+02  0.51100000000E-03 0. -1.
         11   -1    0    0    0    0 -0.00000000000E+00 -0.00000000000E+00 -0.45593999997E+02  0.45594000000E+02  0.51100000000E-03 0.  1.
         23    2    1    2    0    0 -0.35527136788E-14  0.00000000000E+00  0.00000000000E+00  0.91188000000E+02  0.91188000000E+02 0.  0.
    9900012    2    3    3    0    0 -0.23249438626E+02  0.73712158782E+01  0.35899196796E+02  0.47787267857E+02  0.19999985466E+02 0.  0.
        -12    1    3    3    0    0  0.23249438626E+02 -0.73712158782E+01 -0.35899196796E+02  0.43400732143E+02  0.00000000000E+00 0.  1.
         11    1    4    4    0    0 -0.31589562585E+01  0.86210209236E+01  0.12089830829E+02  0.15181074275E+02  0.51100000000E-03 0. -1.
        -11    1    4    4    0    0 -0.10951448219E+02 -0.23143069529E+01  0.63454803258E+01  0.12866831607E+02  0.51100000000E-03 0.  1.
         12    1    4    4    0    0 -0.91390341484E+01  0.10645019074E+01  0.17463885641E+02  0.19739361975E+02  0.00000000000E+00 0. -1.
</event>
<event>
 8    1  0.4798632E-010  0.9118800E+02  0.7816164E-02  0.1184000E+00
        -11   -1    0    0    0    0  0.00000000000E+00  0.00000000000E+00  0.45593999997E+02  0.45594000000E+02  0.51100000000E-03 0. -1.
         11   -1    0    0    0    0 -0.00000000000E+00 -0.00000000000E+00 -0.45593999997E+02  0.45594000000E+02  0.51100000000E-03 0.  1.
         23    2    1    2    0    0 -0.44408920985E-15  0.00000000000E+00  0.00000000000E+00  0.91188000000E+02  0.91188000000E+02 0.  0.
    9900012    2    3    3    0    0  0.39877048210E+01 -0.29394069258E+02 -0.31681400620E+02  0.47787259885E+02  0.19999949119E+02 0.  0.
         12    1    3    3    0    0 -0.39877048210E+01  0.29394069258E+02  0.31681400620E+02  0.43400740115E+02  0.00000000000E+00 0. -1.
         11    1    4    4    0    0  0.80308639778E+00 -0.14928653340E+01 -0.57421199773E-01  0.16961403607E+01  0.51100000000E-03 0. -1.
        -11    1    4    4    0    0  0.78239907647E+01 -0.46493275262E+01 -0.47967386440E+01  0.10287846218E+02  0.51100000000E-03 0.  1.
        -12    1    4    4    0    0 -0.46393723415E+01 -0.23251876398E+02 -0.26827240776E+02  0.35803273306E+02  0.00000000000E+00 0.  1.
</event>
<event>
 8    1  0.4798632E-010  0.9118800E+02  0.7816164E-02  0.1184000E+00
        -11   -1    0    0    0    0  0.00000000000E+00  0.00000000000E+00  0.45593999997E+02  0.45594000000E+02  0.51100000000E-03 0.  1.
         11   -1    0    0    0    0 -0.00000000000E+00 -0.00000000000E+00 -0.45593999997E+02  0.45594000000E+02  0.51100000000E-03 0. -1.
         23    2    1    2    0    0  0.17763568394E-14 -0.71054273576E-14  0.00000000000E+00  0.91188000000E+02  0.91188000000E+02 0.  0.
    9900012    2    3    3    0    0  0.14183534696E+02 -0.39469156644E+02  0.11164074042E+02  0.47787268072E+02  0.19999986449E+02 0.  0.
         12    1    3    3    0    0 -0.14183534696E+02  0.39469156644E+02 -0.11164074042E+02  0.43400731928E+02  0.00000000000E+00 0. -1.
         11    1    4    4    0    0 -0.12350492359E+01 -0.70890887136E+01  0.55047027273E+01  0.90599270296E+01  0.51100000000E-03 0. -1.
        -11    1    4    4    0    0  0.15675875016E+02 -0.31410174269E+02  0.81534108912E+01  0.36039009622E+02  0.51100000000E-03 0.  1.
        -12    1    4    4    0    0 -0.25729108364E+00 -0.96989366097E+00 -0.24940395768E+01  0.26883314204E+01  0.00000000000E+00 0.  1.
</event>
<event>
 8    1  0.4798632E-010  0.9118800E+02  0.7816164E-02  0.1184000E+00
        -11   -1    0    0    0    0  0.00000000000E+00  0.00000000000E+00  0.45593999997E+02  0.45594000000E+02  0.51100000000E-03 0. -1.
         11   -1    0    0    0    0 -0.00000000000E+00 -0.00000000000E+00 -0.45593999997E+02  0.45594000000E+02  0.51100000000E-03 0.  1.
         23    2    1    2    0    0  0.00000000000E+00  0.00000000000E+00  0.00000000000E+00  0.91188000000E+02  0.91188000000E+02 0.  0.
    9900012    2    3    3    0    0 -0.14141642071E+02 -0.24735608341E+02 -0.32738132057E+02  0.47787289740E+02  0.20000085241E+02 0.  0.
         12    1    3    3    0    0  0.14141642071E+02  0.24735608341E+02  0.32738132057E+02  0.43400710260E+02  0.00000000000E+00 0. -1.
         11    1    4    4    0    0 -0.62887835718E+01 -0.20924668699E+02 -0.13351222613E+02  0.25605579558E+02  0.51100000000E-03 0. -1.
        -11    1    4    4    0    0 -0.71376798514E+01 -0.54254862125E+01 -0.16910307502E+02  0.19140033291E+02  0.51100000000E-03 0.  1.
         12    1    4    4    0    0 -0.71517864780E+00  0.16145465708E+01 -0.24766019426E+01  0.30416768911E+01  0.00000000000E+00 0. -1.
</event>
<event>
 8    1  0.4798632E-010  0.9118800E+02  0.7816164E-02  0.1184000E+00
        -11   -1    0    0    0    0  0.00000000000E+00  0.00000000000E+00  0.45593999997E+02  0.45594000000E+02  0.51100000000E-03 0. -1.
         11   -1    0    0    0    0 -0.00000000000E+00 -0.00000000000E+00 -0.45593999997E+02  0.45594000000E+02  0.51100000000E-03 0.  1.
         23    2    1    2    0    0  0.88817841970E-15 -0.17763568394E-14  0.00000000000E+00  0.91188000000E+02  0.91188000000E+02 0.  0.
    9900012    2    3    3    0    0 -0.47782313607E+01  0.95356162820E+01  0.42069741179E+02  0.47787278858E+02  0.20000035624E+02 0.  0.
        -12    1    3    3    0    0  0.47782313607E+01 -0.95356162820E+01 -0.42069741179E+02  0.43400721142E+02  0.00000000000E+00 0.  1.
         11    1    4    4    0    0 -0.97820380376E+01  0.46741924627E+01  0.16492630673E+02  0.19736849043E+02  0.51100000000E-03 0. -1.
        -11    1    4    4    0    0  0.65604454724E+01  0.26416590747E+01  0.23751028462E+02  0.24781629501E+02  0.51100000000E-03 0.  1.
        -12    1    4    4    0    0 -0.15566387955E+01  0.22197647447E+01  0.18260820433E+01  0.32688003136E+01  0.00000000000E+00 0.  1.
</event>
<event>
 8    1  0.4798632E-010  0.9118800E+02  0.7816164E-02  0.1184000E+00
        -11   -1    0    0    0    0  0.00000000000E+00  0.00000000000E+00  0.45593999997E+02  0.45594000000E+02  0.51100000000E-03 0. -1.
         11   -1    0    0    0    0 -0.00000000000E+00 -0.00000000000E+00 -0.45593999997E+02  0.45594000000E+02  0.51100000000E-03 0.  1.
         23    2    1    2    0    0  0.17763568394E-14 -0.88817841970E-15  0.71054273576E-14  0.91188000000E+02  0.91188000000E+02 0.  0.
    9900012    2    3    3    0    0 -0.13736434442E+02 -0.45901476856E+01 -0.40912880090E+02  0.47787275994E+02  0.20000022568E+02 0.  0.
         12    1    3    3    0    0  0.13736434442E+02  0.45901476856E+01  0.40912880090E+02  0.43400724006E+02  0.00000000000E+00 0. -1.
         11    1    4    4    0    0  0.62697038389E+00 -0.24583764307E+01 -0.21514311770E+02  0.21663386571E+02  0.51100000000E-03 0. -1.
        -11    1    4    4    0    0 -0.11348271242E+02 -0.46144505675E+01 -0.18378363685E+02  0.22087115389E+02  0.51100000000E-03 0.  1.
        -12    1    4    4    0    0 -0.30151335845E+01  0.24826793125E+01 -0.10202046346E+01  0.40367740336E+01  0.00000000000E+00 0.  1.
</event>
<event>
 8    1  0.4798632E-010  0.9118800E+02  0.7816164E-02  0.1184000E+00
        -11   -1    0    0    0    0  0.00000000000E+00  0.00000000000E+00  0.45593999997E+02  0.45594000000E+02  0.51100000000E-03 0. -1.
         11   -1    0    0    0    0 -0.00000000000E+00 -0.00000000000E+00 -0.45593999997E+02  0.45594000000E+02  0.51100000000E-03 0.  1.
         23    2    1    2    0    0  0.17763568394E-14  0.00000000000E+00  0.00000000000E+00  0.91188000000E+02  0.91188000000E+02 0.  0.
    9900012    2    3    3    0    0  0.89465642329E+01  0.22933429153E+02 -0.35744079206E+02  0.47787281313E+02  0.20000046818E+02 0.  0.
         12    1    3    3    0    0 -0.89465642329E+01 -0.22933429153E+02  0.35744079206E+02  0.43400718687E+02  0.00000000000E+00 0. -1.
         11    1    4    4    0    0 -0.26272702098E+01  0.89769873300E+01 -0.13668047538E+02  0.16562136759E+02  0.51100000000E-03 0.  1.
        -11    1    4    4    0    0  0.10219161854E+02  0.46447676088E+01 -0.63442251132E+01  0.12893964778E+02  0.51100000000E-03 0. -1.
         12    1    4    4    0    0  0.13546725887E+01  0.93116742142E+01 -0.15731806555E+02  0.18331179776E+02  0.00000000000E+00 0. -1.
</event>
<event>
 8    1  0.4798632E-010  0.9118800E+02  0.7816164E-02  0.1184000E+00
        -11   -1    0    0    0    0  0.00000000000E+00  0.00000000000E+00  0.45593999997E+02  0.45594000000E+02  0.51100000000E-03 0. -1.
         11   -1    0    0    0    0 -0.00000000000E+00 -0.00000000000E+00 -0.45593999997E+02  0.45594000000E+02  0.51100000000E-03 0.  1.
         23    2    1    2    0    0  0.71054273576E-14  0.00000000000E+00  0.00000000000E+00  0.91188000000E+02  0.91188000000E+02 0.  0.
    9900012    2    3    3    0    0  0.42004328663E+02 -0.10871609846E+02 -0.10333643266E+01  0.47787269950E+02  0.19999995010E+02 0.  0.
         12    1    3    3    0    0 -0.42004328663E+02  0.10871609846E+02  0.10333643266E+01  0.43400730050E+02  0.00000000000E+00 0. -1.
         11    1    4    4    0    0  0.69318352167E+01 -0.86353096314E+01 -0.42069829294E+01  0.11845573753E+02  0.51100000000E-03 0. -1.
        -11    1    4    4    0    0  0.35179569443E+02 -0.26734489777E+01  0.28674123403E+01  0.35397337322E+02  0.51100000000E-03 0.  1.
         12    1    4    4    0    0 -0.10707599744E+00  0.43714876323E+00  0.30620626252E+00  0.54435887577E+00  0.00000000000E+00 0. -1.
</event>
<event>
 8    1  0.4798632E-010  0.9118800E+02  0.7816164E-02  0.1184000E+00
        -11   -1    0    0    0    0  0.00000000000E+00  0.00000000000E+00  0.45593999997E+02  0.45594000000E+02  0.51100000000E-03 0. -1.
         11   -1    0    0    0    0 -0.00000000000E+00 -0.00000000000E+00 -0.45593999997E+02  0.45594000000E+02  0.51100000000E-03 0.  1.
         23    2    1    2    0    0  0.00000000000E+00  0.00000000000E+00 -0.71054273576E-14  0.91188000000E+02  0.91188000000E+02 0.  0.
    9900012    2    3    3    0    0 -0.35524897341E+02  0.39058727182E+01  0.24624163651E+02  0.47787267191E+02  0.19999982432E+02 0.  0.
        -12    1    3    3    0    0  0.35524897341E+02 -0.39058727182E+01 -0.24624163651E+02  0.43400732809E+02  0.00000000000E+00 0.  1.
         11    1    4    4    0    0 -0.13676566443E+02 -0.23216367552E+01  0.88360230784E+01  0.16447302849E+02  0.51100000000E-03 0. -1.
        -11    1    4    4    0    0 -0.88111202839E+00  0.53245958436E+01  0.63358441150E+01  0.83228961434E+01  0.51100000000E-03 0.  1.
        -12    1    4    4    0    0 -0.20967218870E+02  0.90291362984E+00  0.94522964579E+01  0.23017068199E+02  0.00000000000E+00 0.  1.
</event>
<event>
 8    1  0.4798632E-010  0.9118800E+02  0.7816164E-02  0.1184000E+00
        -11   -1    0    0    0    0  0.00000000000E+00  0.00000000000E+00  0.45593999997E+02  0.45594000000E+02  0.51100000000E-03 0.  1.
         11   -1    0    0    0    0 -0.00000000000E+00 -0.00000000000E+00 -0.45593999997E+02  0.45594000000E+02  0.51100000000E-03 0. -1.
         23    2    1    2    0    0  0.00000000000E+00  0.00000000000E+00  0.00000000000E+00  0.91188000000E+02  0.91188000000E+02 0.  0.
    9900012    2    3    3    0    0  0.24198292774E+02  0.36014693295E+02 -0.10038567114E+01  0.47787271497E+02  0.20000002064E+02 0.  0.
        -12    1    3    3    0    0 -0.24198292774E+02 -0.36014693295E+02  0.10038567114E+01  0.43400728503E+02  0.00000000000E+00 0.  1.
         11    1    4    4    0    0  0.18987718753E+02  0.23640094145E+02 -0.59185799884E+01  0.30893641805E+02  0.51100000000E-03 0. -1.
        -11    1    4    4    0    0  0.43497188144E+01  0.13814258828E+02  0.44971238027E+01  0.15165023029E+02  0.51100000000E-03 0.  1.
         12    1    4    4    0    0  0.86085520612E+00 -0.14396596778E+01  0.41759947426E+00  0.17286066628E+01  0.00000000000E+00 0. -1.
</event>
<event>
 8    1  0.4798632E-010  0.9118800E+02  0.7816164E-02  0.1184000E+00
        -11   -1    0    0    0    0  0.00000000000E+00  0.00000000000E+00  0.45593999997E+02  0.45594000000E+02  0.51100000000E-03 0. -1.
         11   -1    0    0    0    0 -0.00000000000E+00 -0.00000000000E+00 -0.45593999997E+02  0.45594000000E+02  0.51100000000E-03 0.  1.
         23    2    1    2    0    0  0.00000000000E+00  0.00000000000E+00  0.00000000000E+00  0.91188000000E+02  0.91188000000E+02 0.  0.
    9900012    2    3    3    0    0  0.11008435767E+02  0.30542957952E+02 -0.28802235162E+02  0.47787231702E+02  0.19999820622E+02 0.  0.
         12    1    3    3    0    0 -0.11008435767E+02 -0.30542957952E+02  0.28802235162E+02  0.43400768298E+02  0.00000000000E+00 0. -1.
         11    1    4    4    0    0  0.85056498637E+01  0.20559795555E+02 -0.11342624493E+02  0.24974114669E+02  0.51100000000E-03 0. -1.
        -11    1    4    4    0    0 -0.30538941968E+01  0.76405113128E+01 -0.12691898128E+02  0.15125738370E+02  0.51100000000E-03 0.  1.
        -12    1    4    4    0    0  0.55566800997E+01  0.23426510849E+01 -0.47677125410E+01  0.76873786630E+01  0.00000000000E+00 0.  1.
</event>
<event>
 8    1  0.4798632E-010  0.9118800E+02  0.7816164E-02  0.1184000E+00
        -11   -1    0    0    0    0  0.00000000000E+00  0.00000000000E+00  0.45593999997E+02  0.45594000000E+02  0.51100000000E-03 0. -1.
         11   -1    0    0    0    0 -0.00000000000E+00 -0.00000000000E+00 -0.45593999997E+02  0.45594000000E+02  0.51100000000E-03 0.  1.
         23    2    1    2    0    0  0.00000000000E+00 -0.17763568394E-14  0.00000000000E+00  0.91188000000E+02  0.91188000000E+02 0.  0.
    9900012    2    3    3    0    0  0.16125577310E+02  0.11436470713E+02  0.38636726774E+02  0.47787265424E+02  0.19999974374E+02 0.  0.
        -12    1    3    3    0    0 -0.16125577310E+02 -0.11436470713E+02 -0.38636726774E+02  0.43400734576E+02  0.00000000000E+00 0.  1.
         11    1    4    4    0    0 -0.19073104498E+00  0.48965076907E+01  0.72188534532E+01  0.87249075260E+01  0.51100000000E-03 0. -1.
        -11    1    4    4    0    0  0.12814213942E+02  0.10438888819E+02  0.28796263027E+02  0.33202398157E+02  0.51100000000E-03 0.  1.
        -12    1    4    4    0    0  0.35020944128E+01 -0.38989257967E+01  0.26216102929E+01  0.58599597416E+01  0.00000000000E+00 0.  1.
</event>
<event>
 8    1  0.4798632E-010  0.9118800E+02  0.7816164E-02  0.1184000E+00
        -11   -1    0    0    0    0  0.00000000000E+00  0.00000000000E+00  0.45593999997E+02  0.45594000000E+02  0.51100000000E-03 0. -1.
         11   -1    0    0    0    0 -0.00000000000E+00 -0.00000000000E+00 -0.45593999997E+02  0.45594000000E+02  0.51100000000E-03 0.  1.
         23    2    1    2    0    0 -0.17763568394E-14  0.88817841970E-15  0.71054273576E-14  0.91188000000E+02  0.91188000000E+02 0.  0.
    9900012    2    3    3    0    0  0.14080709942E+02  0.52871299945E+01 -0.40711255740E+02  0.47787234109E+02  0.19999831594E+02 0.  0.
         12    1    3    3    0    0 -0.14080709942E+02 -0.52871299945E+01  0.40711255740E+02  0.43400765891E+02  0.00000000000E+00 0. -1.
         11    1    4    4    0    0  0.11611541028E+01  0.22290417528E+00  0.66385614833E+00  0.13559757994E+01  0.51100000000E-03 0. -1.
        -11    1    4    4    0    0  0.10286502213E+02 -0.41261693005E+01 -0.17514406159E+02  0.20726597025E+02  0.51100000000E-03 0.  1.
        -12    1    4    4    0    0  0.26330536270E+01  0.91903951197E+01 -0.23860705729E+02  0.25704661284E+02  0.00000000000E+00 0.  1.
</event>
<event>
 8    1  0.4798632E-010  0.9118800E+02  0.7816164E-02  0.1184000E+00
        -11   -1    0    0    0    0  0.00000000000E+00  0.00000000000E+00  0.45593999997E+02  0.45594000000E+02  0.51100000000E-03 0. -1.
         11   -1    0    0    0    0 -0.00000000000E+00 -0.00000000000E+00 -0.45593999997E+02  0.45594000000E+02  0.51100000000E-03 0.  1.
         23    2    1    2    0    0  0.00000000000E+00  0.71054273576E-14  0.17763568394E-14  0.91188000000E+02  0.91188000000E+02 0.  0.
    9900012    2    3    3    0    0  0.24247402527E+01 -0.42953174552E+02 -0.57244101300E+01  0.47787269122E+02  0.19999991236E+02 0.  0.
         12    1    3    3    0    0 -0.24247402527E+01  0.42953174552E+02  0.57244101300E+01  0.43400730878E+02  0.00000000000E+00 0. -1.
         11    1    4    4    0    0  0.19401892108E+01 -0.32425195933E+02 -0.10906161754E+02  0.34265172259E+02  0.51100000000E-03 0.  1.
        -11    1    4    4    0    0  0.33856137837E+01 -0.34391971945E+01  0.18285266899E+01  0.51608108037E+01  0.51100000000E-03 0. -1.
         12    1    4    4    0    0 -0.29010627417E+01 -0.70887814247E+01  0.33532249341E+01  0.83612860600E+01  0.00000000000E+00 0. -1.
</event>
<event>
 8    1  0.4798632E-010  0.9118800E+02  0.7816164E-02  0.1184000E+00
        -11   -1    0    0    0    0  0.00000000000E+00  0.00000000000E+00  0.45593999997E+02  0.45594000000E+02  0.51100000000E-03 0.  1.
         11   -1    0    0    0    0 -0.00000000000E+00 -0.00000000000E+00 -0.45593999997E+02  0.45594000000E+02  0.51100000000E-03 0. -1.
         23    2    1    2    0    0  0.00000000000E+00  0.00000000000E+00  0.00000000000E+00  0.91188000000E+02  0.91188000000E+02 0.  0.
    9900012    2    3    3    0    0  0.33282450386E+02  0.20033991701E+02  0.19353062334E+02  0.47787270181E+02  0.19999996061E+02 0.  0.
        -12    1    3    3    0    0 -0.33282450386E+02 -0.20033991701E+02 -0.19353062334E+02  0.43400729819E+02  0.00000000000E+00 0.  1.
         11    1    4    4    0    0  0.12939058415E+02  0.10348454194E+02  0.16142015178E+02  0.23131675061E+02  0.51100000000E-03 0. -1.
        -11    1    4    4    0    0  0.88516957147E+01  0.20993912443E+01 -0.29592864309E+01  0.95664694148E+01  0.51100000000E-03 0.  1.
         12    1    4    4    0    0  0.11491696256E+02  0.75861462633E+01  0.61703335869E+01  0.15089125705E+02  0.00000000000E+00 0. -1.
</event>
<event>
 8    1  0.4798632E-010  0.9118800E+02  0.7816164E-02  0.1184000E+00
        -11   -1    0    0    0    0  0.00000000000E+00  0.00000000000E+00  0.45593999997E+02  0.45594000000E+02  0.51100000000E-03 0. -1.
         11   -1    0    0    0    0 -0.00000000000E+00 -0.00000000000E+00 -0.45593999997E+02  0.45594000000E+02  0.51100000000E-03 0.  1.
         23    2    1    2    0    0  0.35527136788E-14  0.17763568394E-14 -0.71054273576E-14  0.91188000000E+02  0.91188000000E+02 0.  0.
    9900012    2    3    3    0    0  0.21206124972E+02  0.13776786455E+02  0.35272058429E+02  0.47787335406E+02  0.20000293448E+02 0.  0.
        -12    1    3    3    0    0 -0.21206124972E+02 -0.13776786455E+02 -0.35272058429E+02  0.43400664594E+02  0.00000000000E+00 0.  1.
         11    1    4    4    0    0  0.89766691273E+01  0.57866336954E+01  0.21714507224E+02  0.24198874816E+02  0.51100000000E-03 0. -1.
        -11    1    4    4    0    0  0.27825432280E+01  0.52989508637E+01 -0.95840167000E+00  0.60613497749E+01  0.51100000000E-03 0.  1.
        -12    1    4    4    0    0  0.94469126172E+01  0.26912018963E+01  0.14515952875E+02  0.17527110815E+02  0.00000000000E+00 0.  1.
</event>
<event>
 8    1  0.4798632E-010  0.9118800E+02  0.7816164E-02  0.1184000E+00
        -11   -1    0    0    0    0  0.00000000000E+00  0.00000000000E+00  0.45593999997E+02  0.45594000000E+02  0.51100000000E-03 0. -1.
         11   -1    0    0    0    0 -0.00000000000E+00 -0.00000000000E+00 -0.45593999997E+02  0.45594000000E+02  0.51100000000E-03 0.  1.
         23    2    1    2    0    0 -0.35527136788E-14 -0.88817841970E-15  0.00000000000E+00  0.91188000000E+02  0.91188000000E+02 0.  0.
    9900012    2    3    3    0    0 -0.31835076775E+02 -0.27777294654E+01 -0.29367254393E+02  0.47787268153E+02  0.19999986818E+02 0.  0.
         12    1    3    3    0    0  0.31835076775E+02  0.27777294654E+01  0.29367254393E+02  0.43400731847E+02  0.00000000000E+00 0. -1.
         11    1    4    4    0    0 -0.25024879680E+02 -0.85777665989E+01 -0.25564213049E+02  0.36787928345E+02  0.51100000000E-03 0.  1.
        -11    1    4    4    0    0 -0.32103679293E+01  0.22449731238E+01  0.97870469976E+00  0.40378496404E+01  0.51100000000E-03 0. -1.
        -12    1    4    4    0    0 -0.35998291656E+01  0.35550640097E+01 -0.47817460438E+01  0.69614901682E+01  0.00000000000E+00 0.  1.
</event>
<event>
 8    1  0.4798632E-010  0.9118800E+02  0.7816164E-02  0.1184000E+00
        -11   -1    0    0    0    0  0.00000000000E+00  0.00000000000E+00  0.45593999997E+02  0.45594000000E+02  0.51100000000E-03 0. -1.
         11   -1    0    0    0    0 -0.00000000000E+00 -0.00000000000E+00 -0.45593999997E+02  0.45594000000E+02  0.51100000000E-03 0.  1.
         23    2    1    2    0    0 -0.71054273576E-14  0.00000000000E+00  0.00000000000E+00  0.91188000000E+02  0.91188000000E+02 0.  0.
    9900012    2    3    3    0    0 -0.34600358558E+02 -0.79555451488E+01  0.24963000743E+02  0.47787229073E+02  0.19999808636E+02 0.  0.
        -12    1    3    3    0    0  0.34600358558E+02  0.79555451488E+01 -0.24963000743E+02  0.43400770927E+02  0.00000000000E+00 0.  1.
         11    1    4    4    0    0 -0.79803743356E+01  0.27401219972E+01  0.14078358413E+02  0.16413251322E+02  0.51100000000E-03 0. -1.
        -11    1    4    4    0    0 -0.21011969670E+02 -0.57105504111E+01  0.94417194786E+01  0.23733084974E+02  0.51100000000E-03 0.  1.
         12    1    4    4    0    0 -0.56080145521E+01 -0.49851167349E+01  0.14429228512E+01  0.76408927772E+01  0.00000000000E+00 0. -1.
</event>
<event>
 8    1  0.4798632E-010  0.9118800E+02  0.7816164E-02  0.1184000E+00
        -11   -1    0    0    0    0  0.00000000000E+00  0.00000000000E+00  0.45593999997E+02  0.45594000000E+02  0.51100000000E-03 0. -1.
         11   -1    0    0    0    0 -0.00000000000E+00 -0.00000000000E+00 -0.45593999997E+02  0.45594000000E+02  0.51100000000E-03 0.  1.
         23    2    1    2    0    0  0.00000000000E+00  0.00000000000E+00  0.00000000000E+00  0.91188000000E+02  0.91188000000E+02 0.  0.
    9900012    2    3    3    0    0 -0.26700196945E+02  0.27764535688E+02 -0.19996334103E+02  0.47787270324E+02  0.19999996715E+02 0.  0.
         12    1    3    3    0    0  0.26700196945E+02 -0.27764535688E+02  0.19996334103E+02  0.43400729676E+02  0.00000000000E+00 0. -1.
         11    1    4    4    0    0 -0.17380345920E+01  0.41591057767E+01  0.13776071102E+01  0.47134622854E+01  0.51100000000E-03 0. -1.
        -11    1    4    4    0    0 -0.93094081242E+01  0.10978255564E+02 -0.17385915864E+02  0.22571159597E+02  0.51100000000E-03 0.  1.
        -12    1    4    4    0    0 -0.15652754229E+02  0.12627174347E+02 -0.39880253488E+01  0.20502648442E+02  0.00000000000E+00 0.  1.
</event>
<event>
 8    1  0.4798632E-010  0.9118800E+02  0.7816164E-02  0.1184000E+00
        -11   -1    0    0    0    0  0.00000000000E+00  0.00000000000E+00  0.45593999997E+02  0.45594000000E+02  0.51100000000E-03 0.  1.
         11   -1    0    0    0    0 -0.00000000000E+00 -0.00000000000E+00 -0.45593999997E+02  0.45594000000E+02  0.51100000000E-03 0. -1.
         23    2    1    2    0    0  0.00000000000E+00 -0.35527136788E-14  0.71054273576E-14  0.91188000000E+02  0.91188000000E+02 0.  0.
    9900012    2    3    3    0    0  0.17244294137E+02 -0.24934440593E+02 -0.31056901638E+02  0.47787272502E+02  0.20000006646E+02 0.  0.
         12    1    3    3    0    0 -0.17244294137E+02  0.24934440593E+02  0.31056901638E+02  0.43400727498E+02  0.00000000000E+00 0. -1.
         11    1    4    4    0    0  0.13605221779E+02 -0.71842682733E+01 -0.13881523811E+02  0.20722269998E+02  0.51100000000E-03 0. -1.
        -11    1    4    4    0    0 -0.33643385336E+01 -0.70212831039E+01 -0.42702960320E+01  0.88798996985E+01  0.51100000000E-03 0.  1.
        -12    1    4    4    0    0  0.70034108919E+01 -0.10728889216E+02 -0.12905081795E+02  0.18185102806E+02  0.00000000000E+00 0.  1.
</event>
<event>
 8    1  0.4798632E-010  0.9118800E+02  0.7816164E-02  0.1184000E+00
        -11   -1    0    0    0    0  0.00000000000E+00  0.00000000000E+00  0.45593999997E+02  0.45594000000E+02  0.51100000000E-03 0. -1.
         11   -1    0    0    0    0 -0.00000000000E+00 -0.00000000000E+00 -0.45593999997E+02  0.45594000000E+02  0.51100000000E-03 0.  1.
         23    2    1    2    0    0 -0.11102230246E-15  0.44408920985E-15  0.00000000000E+00  0.91188000000E+02  0.91188000000E+02 0.  0.
    9900012    2    3    3    0    0  0.65230553655E+00 -0.23946610222E+01  0.43329694429E+02  0.47787281996E+02  0.20000049934E+02 0.  0.
        -12    1    3    3    0    0 -0.65230553655E+00  0.23946610222E+01 -0.43329694429E+02  0.43400718004E+02  0.00000000000E+00 0.  1.
         11    1    4    4    0    0  0.23768659714E+01 -0.19531697874E+00  0.43530452045E+02  0.43595732545E+02  0.51100000000E-03 0. -1.
        -11    1    4    4    0    0  0.27067730055E+00 -0.24554139204E+00 -0.11776594201E+01  0.12330607232E+01  0.51100000000E-03 0.  1.
         12    1    4    4    0    0 -0.19952377354E+01 -0.19538026514E+01  0.97690180383E+00  0.29584887283E+01  0.00000000000E+00 0. -1.
</event>
<event>
 8    1  0.4798632E-010  0.9118800E+02  0.7816164E-02  0.1184000E+00
        -11   -1    0    0    0    0  0.00000000000E+00  0.00000000000E+00  0.45593999997E+02  0.45594000000E+02  0.51100000000E-03 0. -1.
         11   -1    0    0    0    0 -0.00000000000E+00 -0.00000000000E+00 -0.45593999997E+02  0.45594000000E+02  0.51100000000E-03 0.  1.
         23    2    1    2    0    0  0.00000000000E+00  0.35527136788E-14  0.00000000000E+00  0.91188000000E+02  0.91188000000E+02 0.  0.
    9900012    2    3    3    0    0 -0.14001681031E+02 -0.25065513658E+02 -0.32546836264E+02  0.47787267316E+02  0.19999983002E+02 0.  0.
         12    1    3    3    0    0  0.14001681031E+02  0.25065513658E+02  0.32546836264E+02  0.43400732684E+02  0.00000000000E+00 0. -1.
         11    1    4    4    0    0  0.22258580922E+01 -0.36931395768E+01 -0.80805073544E+01  0.91590569135E+01  0.51100000000E-03 0. -1.
        -11    1    4    4    0    0 -0.18105596357E+02 -0.16283094532E+02 -0.18628204839E+02  0.30658796499E+02  0.51100000000E-03 0.  1.
        -12    1    4    4    0    0  0.18780572335E+01 -0.50892795493E+01 -0.58381240708E+01  0.79694139038E+01  0.00000000000E+00 0.  1.
</event>
<event>
 8    1  0.4798632E-010  0.9118800E+02  0.7816164E-02  0.1184000E+00
        -11   -1    0    0    0    0  0.00000000000E+00  0.00000000000E+00  0.45593999997E+02  0.45594000000E+02  0.51100000000E-03 0. -1.
         11   -1    0    0    0    0 -0.00000000000E+00 -0.00000000000E+00 -0.45593999997E+02  0.45594000000E+02  0.51100000000E-03 0.  1.
         23    2    1    2    0    0  0.00000000000E+00  0.00000000000E+00  0.00000000000E+00  0.91188000000E+02  0.91188000000E+02 0.  0.
    9900012    2    3    3    0    0  0.15575510519E+02 -0.14222385985E+02  0.37930855949E+02  0.47787278531E+02  0.20000034132E+02 0.  0.
        -12    1    3    3    0    0 -0.15575510519E+02  0.14222385985E+02 -0.37930855949E+02  0.43400721469E+02  0.00000000000E+00 0.  1.
         11    1    4    4    0    0  0.14060748076E+02 -0.93631129664E+01  0.15752587134E+02  0.23097976590E+02  0.51100000000E-03 0. -1.
        -11    1    4    4    0    0 -0.72474431885E+00 -0.57440492083E+01  0.21383768538E+02  0.22153665899E+02  0.51100000000E-03 0.  1.
        -12    1    4    4    0    0  0.22395067619E+01  0.88477618984E+00  0.79450027732E+00  0.25356360412E+01  0.00000000000E+00 0.  1.
</event>
<event>
 8    1  0.4798632E-010  0.9118800E+02  0.7816164E-02  0.1184000E+00
        -11   -1    0    0    0    0  0.00000000000E+00  0.00000000000E+00  0.45593999997E+02  0.45594000000E+02  0.51100000000E-03 0. -1.
         11   -1    0    0    0    0 -0.00000000000E+00 -0.00000000000E+00 -0.45593999997E+02  0.45594000000E+02  0.51100000000E-03 0.  1.
         23    2    1    2    0    0  0.00000000000E+00  0.22204460493E-15  0.00000000000E+00  0.91188000000E+02  0.91188000000E+02 0.  0.
    9900012    2    3    3    0    0  0.68079259309E+01 -0.12732052417E+01 -0.42844536446E+02  0.47787271776E+02  0.20000003337E+02 0.  0.
         12    1    3    3    0    0 -0.68079259309E+01  0.12732052417E+01  0.42844536446E+02  0.43400728224E+02  0.00000000000E+00 0. -1.
         11    1    4    4    0    0  0.67313158657E+01 -0.54399272120E+01 -0.85499125035E+01  0.12165706943E+02  0.51100000000E-03 0. -1.
        -11    1    4    4    0    0  0.18190280817E+01  0.37864069077E+00 -0.28058253912E+02  0.28119705631E+02  0.51100000000E-03 0.  1.
         12    1    4    4    0    0 -0.17424180164E+01  0.37880812795E+01 -0.62363700303E+01  0.75018592015E+01  0.00000000000E+00 0. -1.
</event>
<event>
 8    1  0.4798632E-010  0.9118800E+02  0.7816164E-02  0.1184000E+00
        -11   -1    0    0    0    0  0.00000000000E+00  0.00000000000E+00  0.45593999997E+02  0.45594000000E+02  0.51100000000E-03 0. -1.
         11   -1    0    0    0    0 -0.00000000000E+00 -0.00000000000E+00 -0.45593999997E+02  0.45594000000E+02  0.51100000000E-03 0.  1.
         23    2    1    2    0    0  0.35527136788E-14  0.00000000000E+00  0.71054273576E-14  0.91188000000E+02  0.91188000000E+02 0.  0.
    9900012    2    3    3    0    0 -0.20542459827E+02  0.32860668124E+02 -0.19539866192E+02  0.47787279544E+02  0.20000038752E+02 0.  0.
         12    1    3    3    0    0  0.20542459827E+02 -0.32860668124E+02  0.19539866192E+02  0.43400720456E+02  0.00000000000E+00 0. -1.
         11    1    4    4    0    0 -0.14914741631E+01  0.14264015454E+02 -0.85080225312E+00  0.14366993310E+02  0.51100000000E-03 0. -1.
        -11    1    4    4    0    0 -0.89082581093E+01  0.37717549221E+01 -0.76874954794E+01  0.12356406627E+02  0.51100000000E-03 0.  1.
         12    1    4    4    0    0 -0.10142727555E+02  0.14824897748E+02 -0.11001568460E+02  0.21063879606E+02  0.00000000000E+00 0. -1.
</event>
<event>
 8    1  0.4798632E-010  0.9118800E+02  0.7816164E-02  0.1184000E+00
        -11   -1    0    0    0    0  0.00000000000E+00  0.00000000000E+00  0.45593999997E+02  0.45594000000E+02  0.51100000000E-03 0. -1.
         11   -1    0    0    0    0 -0.00000000000E+00 -0.00000000000E+00 -0.45593999997E+02  0.45594000000E+02  0.51100000000E-03 0.  1.
         23    2    1    2    0    0 -0.44408920985E-15  0.00000000000E+00  0.00000000000E+00  0.91188000000E+02  0.91188000000E+02 0.  0.
    9900012    2    3    3    0    0 -0.36435320177E+01  0.13318209278E+02 -0.41145755628E+02  0.47787271548E+02  0.20000002296E+02 0.  0.
         12    1    3    3    0    0  0.36435320177E+01 -0.13318209278E+02  0.41145755628E+02  0.43400728452E+02  0.00000000000E+00 0. -1.
         11    1    4    4    0    0 -0.77174310632E+01  0.78714592365E+01 -0.10767615471E+02  0.15409742240E+02  0.51100000000E-03 0. -1.
        -11    1    4    4    0    0 -0.10313051163E-01  0.68044044603E+01 -0.20581875185E+02  0.21677490925E+02  0.51100000000E-03 0.  1.
         12    1    4    4    0    0  0.40842120967E+01 -0.13576544192E+01 -0.97962649725E+01  0.10700038382E+02  0.00000000000E+00 0. -1.
</event>
<event>
 8    1  0.4798632E-010  0.9118800E+02  0.7816164E-02  0.1184000E+00
        -11   -1    0    0    0    0  0.00000000000E+00  0.00000000000E+00  0.45593999997E+02  0.45594000000E+02  0.51100000000E-03 0. -1.
         11   -1    0    0    0    0 -0.00000000000E+00 -0.00000000000E+00 -0.45593999997E+02  0.45594000000E+02  0.51100000000E-03 0.  1.
         23    2    1    2    0    0  0.00000000000E+00  0.66613381478E-15  0.00000000000E+00  0.91188000000E+02  0.91188000000E+02 0.  0.
    9900012    2    3    3    0    0  0.33522332485E+02 -0.15880077401E+01  0.27520089305E+02  0.47787264301E+02  0.19999969256E+02 0.  0.
        -12    1    3    3    0    0 -0.33522332485E+02  0.15880077401E+01 -0.27520089305E+02  0.43400735699E+02  0.00000000000E+00 0.  1.
         11    1    4    4    0    0  0.11527668262E+01 -0.26534929036E+01  0.65323624761E+01  0.71443443174E+01  0.51100000000E-03 0. -1.
        -11    1    4    4    0    0  0.27677857356E+02 -0.36928493593E+01  0.18581136648E+02  0.33540416867E+02  0.51100000000E-03 0.  1.
        -12    1    4    4    0    0  0.46917083032E+01  0.47583345229E+01  0.24065901809E+01  0.71025031174E+01  0.00000000000E+00 0.  1.
</event>
<event>
 8    1  0.4798632E-010  0.9118800E+02  0.7816164E-02  0.1184000E+00
        -11   -1    0    0    0    0  0.00000000000E+00  0.00000000000E+00  0.45593999997E+02  0.45594000000E+02  0.51100000000E-03 0. -1.
         11   -1    0    0    0    0 -0.00000000000E+00 -0.00000000000E+00 -0.45593999997E+02  0.45594000000E+02  0.51100000000E-03 0.  1.
         23    2    1    2    0    0  0.00000000000E+00  0.00000000000E+00  0.00000000000E+00  0.91188000000E+02  0.91188000000E+02 0.  0.
    9900012    2    3    3    0    0 -0.21521708076E+02 -0.58013352787E+01  0.37239547360E+02  0.47787270777E+02  0.19999998780E+02 0.  0.
        -12    1    3    3    0    0  0.21521708076E+02  0.58013352787E+01 -0.37239547360E+02  0.43400729223E+02  0.00000000000E+00 0.  1.
         11    1    4    4    0    0 -0.17829462610E+02 -0.48703036766E+01  0.14532411983E+02  0.23511711830E+02  0.51100000000E-03 0. -1.
        -11    1    4    4    0    0 -0.32637386353E+01 -0.40565258022E+01  0.16665747375E+02  0.17460083829E+02  0.51100000000E-03 0.  1.
         12    1    4    4    0    0 -0.42850683022E+00  0.31254942001E+01  0.60413880017E+01  0.68154751181E+01  0.00000000000E+00 0. -1.
</event>
<event>
 8    1  0.4798632E-010  0.9118800E+02  0.7816164E-02  0.1184000E+00
        -11   -1    0    0    0    0  0.00000000000E+00  0.00000000000E+00  0.45593999997E+02  0.45594000000E+02  0.51100000000E-03 0. -1.
         11   -1    0    0    0    0 -0.00000000000E+00 -0.00000000000E+00 -0.45593999997E+02  0.45594000000E+02  0.51100000000E-03 0.  1.
         23    2    1    2    0    0  0.35527136788E-14  0.00000000000E+00  0.00000000000E+00  0.91188000000E+02  0.91188000000E+02 0.  0.
    9900012    2    3    3    0    0 -0.25357365160E+02  0.29688844376E+02  0.18952568445E+02  0.47787270756E+02  0.19999998685E+02 0.  0.
        -12    1    3    3    0    0  0.25357365160E+02 -0.29688844376E+02 -0.18952568445E+02  0.43400729244E+02  0.00000000000E+00 0.  1.
         11    1    4    4    0    0 -0.28399165150E+01  0.58736581704E+01  0.21880962504E+01  0.68813335610E+01  0.51100000000E-03 0. -1.
        -11    1    4    4    0    0 -0.97951402506E+01  0.18917531391E+02  0.29651385122E+01  0.21508366119E+02  0.51100000000E-03 0.  1.
        -12    1    4    4    0    0 -0.12722308395E+02  0.48976548145E+01  0.13799333682E+02  0.19397571076E+02  0.00000000000E+00 0.  1.
</event>
<event>
 8    1  0.4798632E-010  0.9118800E+02  0.7816164E-02  0.1184000E+00
        -11   -1    0    0    0    0  0.00000000000E+00  0.00000000000E+00  0.45593999997E+02  0.45594000000E+02  0.51100000000E-03 0. -1.
         11   -1    0    0    0    0 -0.00000000000E+00 -0.00000000000E+00 -0.45593999997E+02  0.45594000000E+02  0.51100000000E-03 0.  1.
         23    2    1    2    0    0  0.00000000000E+00 -0.17763568394E-14  0.00000000000E+00  0.91188000000E+02  0.91188000000E+02 0.  0.
    9900012    2    3    3    0    0  0.93092239885E+01  0.15237513771E+02  0.39557275395E+02  0.47787291321E+02  0.20000092448E+02 0.  0.
        -12    1    3    3    0    0 -0.93092239885E+01 -0.15237513771E+02 -0.39557275395E+02  0.43400708679E+02  0.00000000000E+00 0.  1.
         11    1    4    4    0    0 -0.16411121257E+01  0.21546415440E+01  0.91372716324E+01  0.95302393641E+01  0.51100000000E-03 0. -1.
        -11    1    4    4    0    0  0.14012521382E+01  0.10520783019E+02  0.66806853444E+01  0.12541209663E+02  0.51100000000E-03 0.  1.
        -12    1    4    4    0    0  0.95490839761E+01  0.25620892079E+01  0.23739318418E+02  0.25715842293E+02  0.00000000000E+00 0.  1.
</event>
<event>
 8    1  0.4798632E-010  0.9118800E+02  0.7816164E-02  0.1184000E+00
        -11   -1    0    0    0    0  0.00000000000E+00  0.00000000000E+00  0.45593999997E+02  0.45594000000E+02  0.51100000000E-03 0. -1.
         11   -1    0    0    0    0 -0.00000000000E+00 -0.00000000000E+00 -0.45593999997E+02  0.45594000000E+02  0.51100000000E-03 0.  1.
         23    2    1    2    0    0 -0.88817841970E-15  0.71054273576E-14  0.00000000000E+00  0.91188000000E+02  0.91188000000E+02 0.  0.
    9900012    2    3    3    0    0  0.46474136125E+01 -0.38955697348E+02  0.18560134301E+02  0.47787269656E+02  0.19999993668E+02 0.  0.
        -12    1    3    3    0    0 -0.46474136125E+01  0.38955697348E+02 -0.18560134301E+02  0.43400730344E+02  0.00000000000E+00 0.  1.
         11    1    4    4    0    0  0.42605834480E+01 -0.27352447788E+02  0.14941460401E+02  0.31457212376E+02  0.51100000000E-03 0. -1.
        -11    1    4    4    0    0  0.26806254387E+01  0.45551549271E+00 -0.14124516314E+01  0.30640279011E+01  0.51100000000E-03 0.  1.
         12    1    4    4    0    0 -0.22937952742E+01 -0.12058765053E+02  0.50311255309E+01  0.13266029378E+02  0.00000000000E+00 0. -1.
</event>
<event>
 8    1  0.4798632E-010  0.9118800E+02  0.7816164E-02  0.1184000E+00
        -11   -1    0    0    0    0  0.00000000000E+00  0.00000000000E+00  0.45593999997E+02  0.45594000000E+02  0.51100000000E-03 0. -1.
         11   -1    0    0    0    0 -0.00000000000E+00 -0.00000000000E+00 -0.45593999997E+02  0.45594000000E+02  0.51100000000E-03 0.  1.
         23    2    1    2    0    0  0.00000000000E+00  0.00000000000E+00  0.35527136788E-14  0.91188000000E+02  0.91188000000E+02 0.  0.
    9900012    2    3    3    0    0  0.28710169041E+02 -0.11986451380E+02  0.30260117313E+02  0.47787268176E+02  0.19999986922E+02 0.  0.
        -12    1    3    3    0    0 -0.28710169041E+02  0.11986451380E+02 -0.30260117313E+02  0.43400731824E+02  0.00000000000E+00 0.  1.
         11    1    4    4    0    0  0.11368435802E+02  0.21303598109E+01  0.12039429062E+02  0.16695137553E+02  0.51100000000E-03 0. -1.
        -11    1    4    4    0    0  0.11955953537E+02 -0.14685660163E+02  0.10475745748E+02  0.21641503844E+02  0.51100000000E-03 0.  1.
        -12    1    4    4    0    0  0.53857797026E+01  0.56884897139E+00  0.77449425026E+01  0.94506267795E+01  0.00000000000E+00 0.  1.
</event>
<event>
 8    1  0.4798632E-010  0.9118800E+02  0.7816164E-02  0.1184000E+00
        -11   -1    0    0    0    0  0.00000000000E+00  0.00000000000E+00  0.45593999997E+02  0.45594000000E+02  0.51100000000E-03 0. -1.
         11   -1    0    0    0    0 -0.00000000000E+00 -0.00000000000E+00 -0.45593999997E+02  0.45594000000E+02  0.51100000000E-03 0.  1.
         23    2    1    2    0    0  0.17763568394E-14  0.00000000000E+00  0.71054273576E-14  0.91188000000E+02  0.91188000000E+02 0.  0.
    9900012    2    3    3    0    0 -0.83510160743E+01  0.20795008672E+02 -0.37167882974E+02  0.47787269823E+02  0.19999994430E+02 0.  0.
         12    1    3    3    0    0  0.83510160743E+01 -0.20795008672E+02  0.37167882974E+02  0.43400730177E+02  0.00000000000E+00 0. -1.
         11    1    4    4    0    0  0.42509489449E+01  0.21617946588E+01 -0.13098820900E+02  0.13939979638E+02  0.51100000000E-03 0. -1.
        -11    1    4    4    0    0 -0.87413390183E+01  0.99974041258E+01 -0.18805955291E+02  0.23022229513E+02  0.51100000000E-03 0.  1.
         12    1    4    4    0    0 -0.38606260009E+01  0.86358098876E+01 -0.52631067824E+01  0.10825060671E+02  0.00000000000E+00 0. -1.
</event>
<event>
 8    1  0.4798632E-010  0.9118800E+02  0.7816164E-02  0.1184000E+00
        -11   -1    0    0    0    0  0.00000000000E+00  0.00000000000E+00  0.45593999997E+02  0.45594000000E+02  0.51100000000E-03 0. -1.
         11   -1    0    0    0    0 -0.00000000000E+00 -0.00000000000E+00 -0.45593999997E+02  0.45594000000E+02  0.51100000000E-03 0.  1.
         23    2    1    2    0    0  0.35527136788E-14 -0.35527136788E-14  0.00000000000E+00  0.91188000000E+02  0.91188000000E+02 0.  0.
    9900012    2    3    3    0    0 -0.20500094808E+02  0.22928556423E+02  0.30621065949E+02  0.47787282649E+02  0.20000052908E+02 0.  0.
        -12    1    3    3    0    0  0.20500094808E+02 -0.22928556423E+02 -0.30621065949E+02  0.43400717351E+02  0.00000000000E+00 0.  1.
         11    1    4    4    0    0 -0.95297170532E+01  0.11850608246E+02  0.14171942192E+02  0.20786927831E+02  0.51100000000E-03 0. -1.
        -11    1    4    4    0    0 -0.38916709449E+01 -0.28874260057E+01  0.88952849029E+00  0.49268238124E+01  0.51100000000E-03 0.  1.
        -12    1    4    4    0    0 -0.70787068098E+01  0.13965374182E+02  0.15559595267E+02  0.22073531005E+02  0.00000000000E+00 0.  1.
</event>
<event>
 8    1  0.4798632E-010  0.9118800E+02  0.7816164E-02  0.1184000E+00
        -11   -1    0    0    0    0  0.00000000000E+00  0.00000000000E+00  0.45593999997E+02  0.45594000000E+02  0.51100000000E-03 0. -1.
         11   -1    0    0    0    0 -0.00000000000E+00 -0.00000000000E+00 -0.45593999997E+02  0.45594000000E+02  0.51100000000E-03 0.  1.
         23    2    1    2    0    0 -0.35527136788E-14  0.00000000000E+00  0.71054273576E-14  0.91188000000E+02  0.91188000000E+02 0.  0.
    9900012    2    3    3    0    0  0.15909149299E+02 -0.17928966470E+02 -0.36181119368E+02  0.47787282623E+02  0.20000052790E+02 0.  0.
         12    1    3    3    0    0 -0.15909149299E+02  0.17928966470E+02  0.36181119368E+02  0.43400717377E+02  0.00000000000E+00 0. -1.
         11    1    4    4    0    0  0.11768029440E+01  0.14559710588E+01  0.16547230203E+01  0.24985646736E+01  0.51100000000E-03 0. -1.
        -11    1    4    4    0    0  0.84599787351E+01 -0.88460393937E+01 -0.22870637434E+02  0.25940117772E+02  0.51100000000E-03 0.  1.
         12    1    4    4    0    0  0.62723676194E+01 -0.10538898135E+02 -0.14965204955E+02  0.19348600177E+02  0.00000000000E+00 0. -1.
</event>
<event>
 8    1  0.4798632E-010  0.9118800E+02  0.7816164E-02  0.1184000E+00
        -11   -1    0    0    0    0  0.00000000000E+00  0.00000000000E+00  0.45593999997E+02  0.45594000000E+02  0.51100000000E-03 0.  1.
         11   -1    0    0    0    0 -0.00000000000E+00 -0.00000000000E+00 -0.45593999997E+02  0.45594000000E+02  0.51100000000E-03 0. -1.
         23    2    1    2    0    0  0.71054273576E-14  0.00000000000E+00  0.17763568394E-14  0.91188000000E+02  0.91188000000E+02 0.  0.
    9900012    2    3    3    0    0 -0.39036832302E+02  0.15985687417E+02 -0.10208178210E+02  0.47787269813E+02  0.19999994387E+02 0.  0.
        -12    1    3    3    0    0  0.39036832302E+02 -0.15985687417E+02  0.10208178210E+02  0.43400730187E+02  0.00000000000E+00 0.  1.
         11    1    4    4    0    0 -0.30062197540E+02  0.17459408146E+02 -0.67199164573E+01  0.35407964234E+02  0.51100000000E-03 0. -1.
        -11    1    4    4    0    0 -0.98949515292E+01 -0.26739642102E+01 -0.24318320897E+01  0.10534417779E+02  0.51100000000E-03 0.  1.
        -12    1    4    4    0    0  0.92031676673E+00  0.12002434805E+01 -0.10564296634E+01  0.18448878007E+01  0.00000000000E+00 0.  1.
</event>
<event>
 8    1  0.4798632E-010  0.9118800E+02  0.7816164E-02  0.1184000E+00
        -11   -1    0    0    0    0  0.00000000000E+00  0.00000000000E+00  0.45593999997E+02  0.45594000000E+02  0.51100000000E-03 0. -1.
         11   -1    0    0    0    0 -0.00000000000E+00 -0.00000000000E+00 -0.45593999997E+02  0.45594000000E+02  0.51100000000E-03 0.  1.
         23    2    1    2    0    0  0.00000000000E+00 -0.88817841970E-15  0.00000000000E+00  0.91188000000E+02  0.91188000000E+02 0.  0.
    9900012    2    3    3    0    0 -0.24157150804E+02  0.79242168476E+01  0.35174733689E+02  0.47787273765E+02  0.20000012403E+02 0.  0.
        -12    1    3    3    0    0  0.24157150804E+02 -0.79242168476E+01 -0.35174733689E+02  0.43400726235E+02  0.00000000000E+00 0.  1.
         11    1    4    4    0    0 -0.14829668361E+02  0.61645212720E+01  0.34359567189E+02  0.37927565752E+02  0.51100000000E-03 0. -1.
        -11    1    4    4    0    0 -0.66595385053E+01  0.23485879069E+01  0.94484495492E+00  0.71244684371E+01  0.51100000000E-03 0.  1.
         12    1    4    4    0    0 -0.26679439379E+01 -0.58889233138E+00 -0.12967845431E+00  0.27352395755E+01  0.00000000000E+00 0. -1.
</event>
<event>
 8    1  0.4798632E-010  0.9118800E+02  0.7816164E-02  0.1184000E+00
        -11   -1    0    0    0    0  0.00000000000E+00  0.00000000000E+00  0.45593999997E+02  0.45594000000E+02  0.51100000000E-03 0. -1.
         11   -1    0    0    0    0 -0.00000000000E+00 -0.00000000000E+00 -0.45593999997E+02  0.45594000000E+02  0.51100000000E-03 0.  1.
         23    2    1    2    0    0  0.00000000000E+00 -0.35527136788E-14  0.71054273576E-14  0.91188000000E+02  0.91188000000E+02 0.  0.
    9900012    2    3    3    0    0  0.16473818526E+02 -0.20076024957E+02  0.34773414837E+02  0.47787264357E+02  0.19999969510E+02 0.  0.
        -12    1    3    3    0    0 -0.16473818526E+02  0.20076024957E+02 -0.34773414837E+02  0.43400735643E+02  0.00000000000E+00 0.  1.
         11    1    4    4    0    0  0.43711611507E+00 -0.29136904911E+01  0.31570533420E+01  0.43182923524E+01  0.51100000000E-03 0. -1.
        -11    1    4    4    0    0 -0.41600422000E+01 -0.22808668914E+01  0.51359363544E+01  0.69918629406E+01  0.51100000000E-03 0.  1.
        -12    1    4    4    0    0  0.20196744611E+02 -0.14881467575E+02  0.26480425141E+02  0.36477109064E+02  0.00000000000E+00 0.  1.
</event>
<event>
 8    1  0.4798632E-010  0.9118800E+02  0.7816164E-02  0.1184000E+00
        -11   -1    0    0    0    0  0.00000000000E+00  0.00000000000E+00  0.45593999997E+02  0.45594000000E+02  0.51100000000E-03 0.  1.
         11   -1    0    0    0    0 -0.00000000000E+00 -0.00000000000E+00 -0.45593999997E+02  0.45594000000E+02  0.51100000000E-03 0. -1.
         23    2    1    2    0    0  0.17763568394E-14  0.00000000000E+00  0.88817841970E-15  0.91188000000E+02  0.91188000000E+02 0.  0.
    9900012    2    3    3    0    0  0.14428235554E+02  0.40356979672E+02  0.68383586764E+01  0.47787274904E+02  0.20000017598E+02 0.  0.
        -12    1    3    3    0    0 -0.14428235554E+02 -0.40356979672E+02 -0.68383586764E+01  0.43400725096E+02  0.00000000000E+00 0.  1.
         11    1    4    4    0    0  0.31670261569E+01  0.91923422909E+01 -0.17032610140E+00  0.97241052397E+01  0.51100000000E-03 0. -1.
        -11    1    4    4    0    0  0.89555945465E+01  0.31597452298E+02  0.99356951831E+01  0.34312092685E+02  0.51100000000E-03 0.  1.
        -12    1    4    4    0    0  0.23056148509E+01 -0.43281491683E+00 -0.29270104053E+01  0.37510769794E+01  0.00000000000E+00 0.  1.
</event>
<event>
 8    1  0.4798632E-010  0.9118800E+02  0.7816164E-02  0.1184000E+00
        -11   -1    0    0    0    0  0.00000000000E+00  0.00000000000E+00  0.45593999997E+02  0.45594000000E+02  0.51100000000E-03 0. -1.
         11   -1    0    0    0    0 -0.00000000000E+00 -0.00000000000E+00 -0.45593999997E+02  0.45594000000E+02  0.51100000000E-03 0.  1.
         23    2    1    2    0    0  0.00000000000E+00  0.35527136788E-14  0.00000000000E+00  0.91188000000E+02  0.91188000000E+02 0.  0.
    9900012    2    3    3    0    0  0.15651671513E+02 -0.28083914673E+02 -0.29153778397E+02  0.47787264069E+02  0.19999968198E+02 0.  0.
         12    1    3    3    0    0 -0.15651671513E+02  0.28083914673E+02  0.29153778397E+02  0.43400735931E+02  0.00000000000E+00 0. -1.
         11    1    4    4    0    0 -0.28536507378E+01 -0.32049724778E+01 -0.40265800357E+01  0.58846000851E+01  0.51100000000E-03 0.  1.
        -11    1    4    4    0    0  0.14558020695E+02 -0.94417586533E+01 -0.15628607696E+02  0.23352433530E+02  0.51100000000E-03 0. -1.
        -12    1    4    4    0    0  0.39473015555E+01 -0.15437183541E+02 -0.94985906659E+01  0.18550230454E+02  0.00000000000E+00 0.  1.
</event>
<event>
 8    1  0.4798632E-010  0.9118800E+02  0.7816164E-02  0.1184000E+00
        -11   -1    0    0    0    0  0.00000000000E+00  0.00000000000E+00  0.45593999997E+02  0.45594000000E+02  0.51100000000E-03 0. -1.
         11   -1    0    0    0    0 -0.00000000000E+00 -0.00000000000E+00 -0.45593999997E+02  0.45594000000E+02  0.51100000000E-03 0.  1.
         23    2    1    2    0    0  0.00000000000E+00  0.00000000000E+00  0.35527136788E-14  0.91188000000E+02  0.91188000000E+02 0.  0.
    9900012    2    3    3    0    0  0.23999379195E+02 -0.24107127060E+02  0.26953663168E+02  0.47787265732E+02  0.19999975779E+02 0.  0.
        -12    1    3    3    0    0 -0.23999379195E+02  0.24107127060E+02 -0.26953663168E+02  0.43400734268E+02  0.00000000000E+00 0.  1.
         11    1    4    4    0    0  0.11723931938E+02 -0.72960797929E+00  0.89573737759E+01  0.14772185117E+02  0.51100000000E-03 0. -1.
        -11    1    4    4    0    0  0.54759537073E+01 -0.18193683279E+02  0.10905468924E+02  0.21907200482E+02  0.51100000000E-03 0.  1.
        -12    1    4    4    0    0  0.67994935493E+01 -0.51838358023E+01  0.70908204673E+01  0.11107880133E+02  0.00000000000E+00 0.  1.
</event>
<event>
 8    1  0.4798632E-010  0.9118800E+02  0.7816164E-02  0.1184000E+00
        -11   -1    0    0    0    0  0.00000000000E+00  0.00000000000E+00  0.45593999997E+02  0.45594000000E+02  0.51100000000E-03 0. -1.
         11   -1    0    0    0    0 -0.00000000000E+00 -0.00000000000E+00 -0.45593999997E+02  0.45594000000E+02  0.51100000000E-03 0.  1.
         23    2    1    2    0    0 -0.88817841970E-15 -0.35527136788E-14  0.00000000000E+00  0.91188000000E+02  0.91188000000E+02 0.  0.
    9900012    2    3    3    0    0 -0.49653033417E+01 -0.23369990287E+02  0.36232756508E+02  0.47787270427E+02  0.19999997184E+02 0.  0.
        -12    1    3    3    0    0  0.49653033417E+01  0.23369990287E+02 -0.36232756508E+02  0.43400729573E+02  0.00000000000E+00 0.  1.
         11    1    4    4    0    0  0.28876627420E+01 -0.12828572204E+02  0.19271637101E+02  0.23330384860E+02  0.51100000000E-03 0. -1.
        -11    1    4    4    0    0 -0.99519196060E+01 -0.77950357918E+01  0.16762082831E+02  0.20994539955E+02  0.51100000000E-03 0.  1.
        -12    1    4    4    0    0  0.20989535224E+01 -0.27463822908E+01  0.19903657691E+00  0.34623456118E+01  0.00000000000E+00 0.  1.
</event>
<event>
 8    1  0.4798632E-010  0.9118800E+02  0.7816164E-02  0.1184000E+00
        -11   -1    0    0    0    0  0.00000000000E+00  0.00000000000E+00  0.45593999997E+02  0.45594000000E+02  0.51100000000E-03 0. -1.
         11   -1    0    0    0    0 -0.00000000000E+00 -0.00000000000E+00 -0.45593999997E+02  0.45594000000E+02  0.51100000000E-03 0.  1.
         23    2    1    2    0    0 -0.10658141036E-13  0.00000000000E+00  0.35527136788E-14  0.91188000000E+02  0.91188000000E+02 0.  0.
    9900012    2    3    3    0    0  0.30881801390E+02  0.93846111755E+01 -0.29014935792E+02  0.47787273243E+02  0.20000010023E+02 0.  0.
         12    1    3    3    0    0 -0.30881801390E+02 -0.93846111755E+01  0.29014935792E+02  0.43400726757E+02  0.00000000000E+00 0. -1.
         11    1    4    4    0    0 -0.19952142403E+01  0.31836062962E+01 -0.39884200397E+01  0.54793908045E+01  0.51100000000E-03 0. -1.
        -11    1    4    4    0    0  0.59278097170E+01  0.28872831193E+01 -0.75198227330E+01  0.10001153236E+02  0.51100000000E-03 0.  1.
         12    1    4    4    0    0  0.26949205914E+02  0.33137217600E+01 -0.17506693019E+02  0.32306729202E+02  0.00000000000E+00 0. -1.
</event>
<event>
 8    1  0.4798632E-010  0.9118800E+02  0.7816164E-02  0.1184000E+00
        -11   -1    0    0    0    0  0.00000000000E+00  0.00000000000E+00  0.45593999997E+02  0.45594000000E+02  0.51100000000E-03 0.  1.
         11   -1    0    0    0    0 -0.00000000000E+00 -0.00000000000E+00 -0.45593999997E+02  0.45594000000E+02  0.51100000000E-03 0. -1.
         23    2    1    2    0    0 -0.35527136788E-14  0.00000000000E+00 -0.17763568394E-14  0.91188000000E+02  0.91188000000E+02 0.  0.
    9900012    2    3    3    0    0  0.19058111045E+02  0.38107717637E+02  0.82592075991E+01  0.47787259796E+02  0.19999948715E+02 0.  0.
        -12    1    3    3    0    0 -0.19058111045E+02 -0.38107717637E+02 -0.82592075991E+01  0.43400740204E+02  0.00000000000E+00 0.  1.
         11    1    4    4    0    0  0.60201138569E+01  0.14583442059E+02  0.23563986469E+01  0.15952152456E+02  0.51100000000E-03 0. -1.
        -11    1    4    4    0    0 -0.23490281816E+01  0.11540601626E+02  0.24283754028E+01  0.12024991752E+02  0.51100000000E-03 0.  1.
        -12    1    4    4    0    0  0.15387025370E+02  0.11983673952E+02  0.34744335495E+01  0.19810115588E+02  0.00000000000E+00 0.  1.
</event>
<event>
 8    1  0.4798632E-010  0.9118800E+02  0.7816164E-02  0.1184000E+00
        -11   -1    0    0    0    0  0.00000000000E+00  0.00000000000E+00  0.45593999997E+02  0.45594000000E+02  0.51100000000E-03 0.  1.
         11   -1    0    0    0    0 -0.00000000000E+00 -0.00000000000E+00 -0.45593999997E+02  0.45594000000E+02  0.51100000000E-03 0. -1.
         23    2    1    2    0    0  0.88817841970E-15  0.00000000000E+00  0.00000000000E+00  0.91188000000E+02  0.91188000000E+02 0.  0.
    9900012    2    3    3    0    0  0.75123276654E+01 -0.41441029124E+02 -0.10479950236E+02  0.47787270528E+02  0.19999997645E+02 0.  0.
         12    1    3    3    0    0 -0.75123276654E+01  0.41441029124E+02  0.10479950236E+02  0.43400729472E+02  0.00000000000E+00 0. -1.
         11    1    4    4    0    0  0.10807216718E+02 -0.16556267214E+02 -0.20127052330E+01  0.19873522583E+02  0.51100000000E-03 0. -1.
        -11    1    4    4    0    0 -0.21768795608E+01 -0.19482004770E+01  0.98178588409E+00  0.30819139352E+01  0.51100000000E-03 0.  1.
         12    1    4    4    0    0 -0.11180094917E+01 -0.22936561433E+02 -0.94490308866E+01  0.24831834010E+02  0.00000000000E+00 0. -1.
</event>
<event>
 8    1  0.5629626E-010  0.9118800E+02  0.7816164E-02  0.1184000E+00
        -11   -1    0    0    0    0  0.00000000000E+00  0.00000000000E+00  0.45593999997E+02  0.45594000000E+02  0.51100000000E-03 0.  1.
         11   -1    0    0    0    0 -0.00000000000E+00 -0.00000000000E+00 -0.45593999997E+02  0.45594000000E+02  0.51100000000E-03 0. -1.
         23    2    1    2    0    0  0.00000000000E+00  0.00000000000E+00 -0.35527136788E-14  0.91188000000E+02  0.91188000000E+02 0.  0.
    9900012    2    3    3    0    0 -0.21550256609E+02 -0.23277017687E+02  0.29620770849E+02  0.47787272149E+02  0.20000005035E+02 0.  0.
        -12    1    3    3    0    0  0.21550256609E+02  0.23277017687E+02 -0.29620770849E+02  0.43400727851E+02  0.00000000000E+00 0.  1.
         11    1    4    4    0    0 -0.64799298470E+01 -0.82574439024E+01  0.85284245736E+01  0.13524381560E+02  0.51100000000E-03 0. -1.
        -11    1    4    4    0    0 -0.90779125724E+01 -0.14682215399E+02  0.64317018711E+01  0.18421257691E+02  0.51100000000E-03 0.  1.
        -12    1    4    4    0    0 -0.59924141899E+01 -0.33735838528E+00  0.14660644405E+02  0.15841632898E+02  0.00000000000E+00 0.  1.
</event>
<event>
 8    1  0.4798632E-010  0.9118800E+02  0.7816164E-02  0.1184000E+00
        -11   -1    0    0    0    0  0.00000000000E+00  0.00000000000E+00  0.45593999997E+02  0.45594000000E+02  0.51100000000E-03 0. -1.
         11   -1    0    0    0    0 -0.00000000000E+00 -0.00000000000E+00 -0.45593999997E+02  0.45594000000E+02  0.51100000000E-03 0.  1.
         23    2    1    2    0    0 -0.17763568394E-14  0.00000000000E+00 -0.71054273576E-14  0.91188000000E+02  0.91188000000E+02 0.  0.
    9900012    2    3    3    0    0  0.15703280033E+02 -0.49605636904E+01  0.40154989195E+02  0.47787270131E+02  0.19999995834E+02 0.  0.
        -12    1    3    3    0    0 -0.15703280033E+02  0.49605636904E+01 -0.40154989195E+02  0.43400729869E+02  0.00000000000E+00 0.  1.
         11    1    4    4    0    0  0.17511217342E+02 -0.73892841248E+01  0.25028570414E+02  0.31427274618E+02  0.51100000000E-03 0. -1.
        -11    1    4    4    0    0 -0.21495300416E+01  0.26338096318E+01  0.40988153932E+01  0.53251967537E+01  0.51100000000E-03 0.  1.
         12    1    4    4    0    0  0.34159273270E+00 -0.20508919737E+00  0.11027603388E+02  0.11034798759E+02  0.00000000000E+00 0. -1.
</event>
<event>
 8    1  0.4798632E-010  0.9118800E+02  0.7816164E-02  0.1184000E+00
        -11   -1    0    0    0    0  0.00000000000E+00  0.00000000000E+00  0.45593999997E+02  0.45594000000E+02  0.51100000000E-03 0. -1.
         11   -1    0    0    0    0 -0.00000000000E+00 -0.00000000000E+00 -0.45593999997E+02  0.45594000000E+02  0.51100000000E-03 0.  1.
         23    2    1    2    0    0  0.00000000000E+00  0.35527136788E-14  0.00000000000E+00  0.91188000000E+02  0.91188000000E+02 0.  0.
    9900012    2    3    3    0    0  0.10583811037E+02 -0.21698692576E+02  0.36066230855E+02  0.47787270471E+02  0.19999997386E+02 0.  0.
        -12    1    3    3    0    0 -0.10583811037E+02  0.21698692576E+02 -0.36066230855E+02  0.43400729529E+02  0.00000000000E+00 0.  1.
         11    1    4    4    0    0  0.76694859352E+01  0.10326928116E+01  0.89090218341E+01  0.11800768587E+02  0.51100000000E-03 0. -1.
        -11    1    4    4    0    0  0.37337652843E+01 -0.21626733857E+02  0.26642810118E+02  0.34518052549E+02  0.51100000000E-03 0.  1.
         12    1    4    4    0    0 -0.81944018264E+00 -0.11046515314E+01  0.51439890257E+00  0.14684493350E+01  0.00000000000E+00 0. -1.
</event>
<event>
 8    1  0.4798632E-010  0.9118800E+02  0.7816164E-02  0.1184000E+00
        -11   -1    0    0    0    0  0.00000000000E+00  0.00000000000E+00  0.45593999997E+02  0.45594000000E+02  0.51100000000E-03 0.  1.
         11   -1    0    0    0    0 -0.00000000000E+00 -0.00000000000E+00 -0.45593999997E+02  0.45594000000E+02  0.51100000000E-03 0. -1.
         23    2    1    2    0    0  0.00000000000E+00  0.00000000000E+00  0.00000000000E+00  0.91188000000E+02  0.91188000000E+02 0.  0.
    9900012    2    3    3    0    0  0.41691751711E+02 -0.11985743265E+02 -0.13281512080E+01  0.47787260513E+02  0.19999951983E+02 0.  0.
         12    1    3    3    0    0 -0.41691751711E+02  0.11985743265E+02  0.13281512080E+01  0.43400739487E+02  0.00000000000E+00 0. -1.
         11    1    4    4    0    0  0.20564347276E+02  0.42447660862E+00 -0.50247511181E+01  0.21173584566E+02  0.51100000000E-03 0. -1.
        -11    1    4    4    0    0  0.59006557423E+01  0.63798799228E-01 -0.18130474084E+01  0.61732446608E+01  0.51100000000E-03 0.  1.
         12    1    4    4    0    0  0.15226748693E+02 -0.12474018673E+02  0.55096473184E+01  0.20440431287E+02  0.00000000000E+00 0. -1.
</event>
<event>
 8    1  0.4798632E-010  0.9118800E+02  0.7816164E-02  0.1184000E+00
        -11   -1    0    0    0    0  0.00000000000E+00  0.00000000000E+00  0.45593999997E+02  0.45594000000E+02  0.51100000000E-03 0. -1.
         11   -1    0    0    0    0 -0.00000000000E+00 -0.00000000000E+00 -0.45593999997E+02  0.45594000000E+02  0.51100000000E-03 0.  1.
         23    2    1    2    0    0  0.00000000000E+00  0.00000000000E+00  0.00000000000E+00  0.91188000000E+02  0.91188000000E+02 0.  0.
    9900012    2    3    3    0    0 -0.37187480120E+02  0.57621845220E+01  0.21622023613E+02  0.47787270130E+02  0.19999995831E+02 0.  0.
        -12    1    3    3    0    0  0.37187480120E+02 -0.57621845220E+01 -0.21622023613E+02  0.43400729870E+02  0.00000000000E+00 0.  1.
         11    1    4    4    0    0 -0.19989981451E+02  0.11162140939E+02  0.16333356278E+02  0.28124211568E+02  0.51100000000E-03 0. -1.
        -11    1    4    4    0    0 -0.97864254010E+01 -0.51322736671E+00  0.11453774282E+01  0.98665806728E+01  0.51100000000E-03 0.  1.
         12    1    4    4    0    0 -0.74110732679E+01 -0.48867290498E+01  0.41432899062E+01  0.97964778893E+01  0.00000000000E+00 0. -1.
</event>
<event>
 8    1  0.4798632E-010  0.9118800E+02  0.7816164E-02  0.1184000E+00
        -11   -1    0    0    0    0  0.00000000000E+00  0.00000000000E+00  0.45593999997E+02  0.45594000000E+02  0.51100000000E-03 0. -1.
         11   -1    0    0    0    0 -0.00000000000E+00 -0.00000000000E+00 -0.45593999997E+02  0.45594000000E+02  0.51100000000E-03 0.  1.
         23    2    1    2    0    0  0.00000000000E+00  0.35527136788E-14 -0.71054273576E-14  0.91188000000E+02  0.91188000000E+02 0.  0.
    9900012    2    3    3    0    0  0.40465876637E+01 -0.25608798298E+02  0.34805686819E+02  0.47787294281E+02  0.20000105945E+02 0.  0.
        -12    1    3    3    0    0 -0.40465876637E+01  0.25608798298E+02 -0.34805686819E+02  0.43400705719E+02  0.00000000000E+00 0.  1.
         11    1    4    4    0    0 -0.23932809793E+01 -0.45671473558E+01  0.73032566972E-01  0.51567395544E+01  0.51100000000E-03 0. -1.
        -11    1    4    4    0    0  0.81424263662E+01 -0.81476358055E+01  0.18988841728E+02  0.22209439137E+02  0.51100000000E-03 0.  1.
         12    1    4    4    0    0 -0.17025577232E+01 -0.12894015136E+02  0.15743812523E+02  0.20421115589E+02  0.00000000000E+00 0. -1.
</event>
<event>
 8    1  0.4798632E-010  0.9118800E+02  0.7816164E-02  0.1184000E+00
        -11   -1    0    0    0    0  0.00000000000E+00  0.00000000000E+00  0.45593999997E+02  0.45594000000E+02  0.51100000000E-03 0. -1.
         11   -1    0    0    0    0 -0.00000000000E+00 -0.00000000000E+00 -0.45593999997E+02  0.45594000000E+02  0.51100000000E-03 0.  1.
         23    2    1    2    0    0  0.66613381478E-15  0.00000000000E+00  0.35527136788E-14  0.91188000000E+02  0.91188000000E+02 0.  0.
    9900012    2    3    3    0    0 -0.13942970442E+01  0.34726932753E+02 -0.25994606571E+02  0.47787268515E+02  0.19999988466E+02 0.  0.
         12    1    3    3    0    0  0.13942970442E+01 -0.34726932753E+02  0.25994606571E+02  0.43400731485E+02  0.00000000000E+00 0. -1.
         11    1    4    4    0    0  0.32819700200E+01  0.24396852410E+01 -0.78215989113E+01  0.88261430465E+01  0.51100000000E-03 0. -1.
        -11    1    4    4    0    0 -0.76020144969E+01  0.29116192446E+02 -0.16611036039E+02  0.34372515263E+02  0.51100000000E-03 0.  1.
        -12    1    4    4    0    0  0.29257474327E+01  0.31710550653E+01 -0.15619716213E+01  0.45886102049E+01  0.00000000000E+00 0.  1.
</event>
<event>
 8    1  0.4798632E-010  0.9118800E+02  0.7816164E-02  0.1184000E+00
        -11   -1    0    0    0    0  0.00000000000E+00  0.00000000000E+00  0.45593999997E+02  0.45594000000E+02  0.51100000000E-03 0. -1.
         11   -1    0    0    0    0 -0.00000000000E+00 -0.00000000000E+00 -0.45593999997E+02  0.45594000000E+02  0.51100000000E-03 0.  1.
         23    2    1    2    0    0  0.00000000000E+00  0.00000000000E+00  0.00000000000E+00  0.91188000000E+02  0.91188000000E+02 0.  0.
    9900012    2    3    3    0    0  0.16090517804E+02  0.28972619095E+02  0.28023297027E+02  0.47787278846E+02  0.20000035571E+02 0.  0.
        -12    1    3    3    0    0 -0.16090517804E+02 -0.28972619095E+02 -0.28023297027E+02  0.43400721154E+02  0.00000000000E+00 0.  1.
         11    1    4    4    0    0  0.14846501668E+02  0.30875733160E+02  0.26407839000E+02  0.43256253546E+02  0.51100000000E-03 0. -1.
        -11    1    4    4    0    0  0.53047628411E+00 -0.23722181803E+01  0.23674535955E+01  0.33931785940E+01  0.51100000000E-03 0.  1.
         12    1    4    4    0    0  0.71353985239E+00  0.46910411520E+00 -0.75199556834E+00  0.11378467061E+01  0.00000000000E+00 0. -1.
</event>
<event>
 8    1  0.4798632E-010  0.9118800E+02  0.7816164E-02  0.1184000E+00
        -11   -1    0    0    0    0  0.00000000000E+00  0.00000000000E+00  0.45593999997E+02  0.45594000000E+02  0.51100000000E-03 0. -1.
         11   -1    0    0    0    0 -0.00000000000E+00 -0.00000000000E+00 -0.45593999997E+02  0.45594000000E+02  0.51100000000E-03 0.  1.
         23    2    1    2    0    0 -0.35527136788E-14  0.00000000000E+00  0.00000000000E+00  0.91188000000E+02  0.91188000000E+02 0.  0.
    9900012    2    3    3    0    0 -0.25338024713E+02  0.54249159664E+01  0.34816345407E+02  0.47787272851E+02  0.20000008236E+02 0.  0.
        -12    1    3    3    0    0  0.25338024713E+02 -0.54249159664E+01 -0.34816345407E+02  0.43400727149E+02  0.00000000000E+00 0.  1.
         11    1    4    4    0    0 -0.16800429437E+01  0.40978742411E+01  0.12685008679E+02  0.13435942953E+02  0.51100000000E-03 0.  1.
        -11    1    4    4    0    0 -0.23390521940E+02  0.31911283408E+00  0.23137457433E+02  0.32902283907E+02  0.51100000000E-03 0. -1.
         12    1    4    4    0    0 -0.26745982955E+00  0.10079288912E+01 -0.10061207047E+01  0.14490459905E+01  0.00000000000E+00 0. -1.
</event>
<event>
 8    1  0.4798632E-010  0.9118800E+02  0.7816164E-02  0.1184000E+00
        -11   -1    0    0    0    0  0.00000000000E+00  0.00000000000E+00  0.45593999997E+02  0.45594000000E+02  0.51100000000E-03 0. -1.
         11   -1    0    0    0    0 -0.00000000000E+00 -0.00000000000E+00 -0.45593999997E+02  0.45594000000E+02  0.51100000000E-03 0.  1.
         23    2    1    2    0    0  0.00000000000E+00  0.88817841970E-15  0.00000000000E+00  0.91188000000E+02  0.91188000000E+02 0.  0.
    9900012    2    3    3    0    0  0.39384451703E+02 -0.45089623016E+01  0.17667978950E+02  0.47787271237E+02  0.20000000876E+02 0.  0.
        -12    1    3    3    0    0 -0.39384451703E+02  0.45089623016E+01 -0.17667978950E+02  0.43400728763E+02  0.00000000000E+00 0.  1.
         11    1    4    4    0    0  0.19223823772E+02  0.25449416096E+00  0.15943795195E+02  0.24976484404E+02  0.51100000000E-03 0. -1.
        -11    1    4    4    0    0  0.67995962840E+01 -0.60063367270E+01  0.23685823161E+01  0.93766077530E+01  0.51100000000E-03 0.  1.
         12    1    4    4    0    0  0.13361031648E+02  0.12428802645E+01 -0.64439856141E+00  0.13434179080E+02  0.00000000000E+00 0. -1.
</event>
<event>
 8    1  0.4798632E-010  0.9118800E+02  0.7816164E-02  0.1184000E+00
        -11   -1    0    0    0    0  0.00000000000E+00  0.00000000000E+00  0.45593999997E+02  0.45594000000E+02  0.51100000000E-03 0.  1.
         11   -1    0    0    0    0 -0.00000000000E+00 -0.00000000000E+00 -0.45593999997E+02  0.45594000000E+02  0.51100000000E-03 0. -1.
         23    2    1    2    0    0  0.35527136788E-14  0.00000000000E+00  0.00000000000E+00  0.91188000000E+02  0.91188000000E+02 0.  0.
    9900012    2    3    3    0    0  0.29297562551E+02  0.31715429436E+02 -0.44054503198E+01  0.47787266962E+02  0.19999981385E+02 0.  0.
        -12    1    3    3    0    0 -0.29297562551E+02 -0.31715429436E+02  0.44054503198E+01  0.43400733038E+02  0.00000000000E+00 0.  1.
         11    1    4    4    0    0  0.39480994153E+01  0.32732264293E+01 -0.19553449624E+01  0.54886131613E+01  0.51100000000E-03 0. -1.
        -11    1    4    4    0    0  0.19535389465E+02  0.29151579058E+02 -0.57743490796E+01  0.35563873674E+02  0.51100000000E-03 0.  1.
        -12    1    4    4    0    0  0.58140736700E+01 -0.70937605121E+00  0.33242437223E+01  0.67347801262E+01  0.00000000000E+00 0.  1.
</event>
<event>
 8    1  0.4798632E-010  0.9118800E+02  0.7816164E-02  0.1184000E+00
        -11   -1    0    0    0    0  0.00000000000E+00  0.00000000000E+00  0.45593999997E+02  0.45594000000E+02  0.51100000000E-03 0. -1.
         11   -1    0    0    0    0 -0.00000000000E+00 -0.00000000000E+00 -0.45593999997E+02  0.45594000000E+02  0.51100000000E-03 0.  1.
         23    2    1    2    0    0  0.00000000000E+00  0.00000000000E+00  0.71054273576E-14  0.91188000000E+02  0.91188000000E+02 0.  0.
    9900012    2    3    3    0    0 -0.17188038423E+02  0.64775821787E+01 -0.39322194862E+02  0.47787277143E+02  0.20000027808E+02 0.  0.
         12    1    3    3    0    0  0.17188038423E+02 -0.64775821787E+01  0.39322194862E+02  0.43400722857E+02  0.00000000000E+00 0. -1.
         11    1    4    4    0    0 -0.78767241057E+01  0.32942783922E+01 -0.59674977458E+01  0.10416625287E+02  0.51100000000E-03 0. -1.
        -11    1    4    4    0    0  0.13731829015E+01 -0.31701675826E+01 -0.30235034379E+01  0.45909875934E+01  0.51100000000E-03 0.  1.
        -12    1    4    4    0    0 -0.10684497219E+02  0.63534713691E+01 -0.30331193678E+02  0.32779664263E+02  0.00000000000E+00 0.  1.
</event>
<event>
 8    1  0.4798632E-010  0.9118800E+02  0.7816164E-02  0.1184000E+00
        -11   -1    0    0    0    0  0.00000000000E+00  0.00000000000E+00  0.45593999997E+02  0.45594000000E+02  0.51100000000E-03 0.  1.
         11   -1    0    0    0    0 -0.00000000000E+00 -0.00000000000E+00 -0.45593999997E+02  0.45594000000E+02  0.51100000000E-03 0. -1.
         23    2    1    2    0    0  0.17763568394E-14 -0.71054273576E-14 -0.17763568394E-14  0.91188000000E+02  0.91188000000E+02 0.  0.
    9900012    2    3    3    0    0 -0.94343891048E+01  0.39820856091E+02  0.14453891648E+02  0.47787271189E+02  0.20000000658E+02 0.  0.
        -12    1    3    3    0    0  0.94343891048E+01 -0.39820856091E+02 -0.14453891648E+02  0.43400728811E+02  0.00000000000E+00 0.  1.
         11    1    4    4    0    0 -0.27135748827E+00  0.14386705936E+02  0.60160540051E+01  0.15596276755E+02  0.51100000000E-03 0. -1.
        -11    1    4    4    0    0  0.30690847869E+01  0.11797324993E+02  0.63745104354E+01  0.13756109260E+02  0.51100000000E-03 0.  1.
        -12    1    4    4    0    0 -0.12232116403E+02  0.13636825162E+02  0.20633272077E+01  0.18434885174E+02  0.00000000000E+00 0.  1.
</event>
<event>
 8    1  0.4798632E-010  0.9118800E+02  0.7816164E-02  0.1184000E+00
        -11   -1    0    0    0    0  0.00000000000E+00  0.00000000000E+00  0.45593999997E+02  0.45594000000E+02  0.51100000000E-03 0. -1.
         11   -1    0    0    0    0 -0.00000000000E+00 -0.00000000000E+00 -0.45593999997E+02  0.45594000000E+02  0.51100000000E-03 0.  1.
         23    2    1    2    0    0  0.00000000000E+00  0.00000000000E+00  0.00000000000E+00  0.91188000000E+02  0.91188000000E+02 0.  0.
    9900012    2    3    3    0    0  0.23129435993E+01 -0.17347491952E+02  0.39715713518E+02  0.47787273216E+02  0.20000009901E+02 0.  0.
        -12    1    3    3    0    0 -0.23129435993E+01  0.17347491952E+02 -0.39715713518E+02  0.43400726784E+02  0.00000000000E+00 0.  1.
         11    1    4    4    0    0  0.16427400190E+01 -0.11111740798E+02  0.72157168570E+01  0.13350503674E+02  0.51100000000E-03 0. -1.
        -11    1    4    4    0    0  0.17505219784E+01  0.37422876663E+00  0.21384977193E+02  0.21459767570E+02  0.51100000000E-03 0.  1.
         12    1    4    4    0    0 -0.10803183981E+01 -0.66099799210E+01  0.11115019468E+02  0.12977001972E+02  0.00000000000E+00 0. -1.
</event>
<event>
 8    1  0.4798632E-010  0.9118800E+02  0.7816164E-02  0.1184000E+00
        -11   -1    0    0    0    0  0.00000000000E+00  0.00000000000E+00  0.45593999997E+02  0.45594000000E+02  0.51100000000E-03 0. -1.
         11   -1    0    0    0    0 -0.00000000000E+00 -0.00000000000E+00 -0.45593999997E+02  0.45594000000E+02  0.51100000000E-03 0.  1.
         23    2    1    2    0    0 -0.88817841970E-15  0.00000000000E+00  0.00000000000E+00  0.91188000000E+02  0.91188000000E+02 0.  0.
    9900012    2    3    3    0    0  0.59863933462E+01  0.18347173985E+02  0.38873739964E+02  0.47787270083E+02  0.19999995617E+02 0.  0.
        -12    1    3    3    0    0 -0.59863933462E+01 -0.18347173985E+02 -0.38873739964E+02  0.43400729917E+02  0.00000000000E+00 0.  1.
         11    1    4    4    0    0  0.71872453775E+01  0.10194943171E+02  0.28972185758E+02  0.31543317997E+02  0.51100000000E-03 0. -1.
        -11    1    4    4    0    0  0.53142035423E+00  0.54103958428E+01 -0.39299010845E+00  0.54506176031E+01  0.51100000000E-03 0.  1.
        -12    1    4    4    0    0 -0.17322723856E+01  0.27418349709E+01  0.10294544314E+02  0.10793334483E+02  0.00000000000E+00 0.  1.
</event>
<event>
 8    1  0.4798632E-010  0.9118800E+02  0.7816164E-02  0.1184000E+00
        -11   -1    0    0    0    0  0.00000000000E+00  0.00000000000E+00  0.45593999997E+02  0.45594000000E+02  0.51100000000E-03 0. -1.
         11   -1    0    0    0    0 -0.00000000000E+00 -0.00000000000E+00 -0.45593999997E+02  0.45594000000E+02  0.51100000000E-03 0.  1.
         23    2    1    2    0    0  0.00000000000E+00 -0.35527136788E-14  0.35527136788E-14  0.91188000000E+02  0.91188000000E+02 0.  0.
    9900012    2    3    3    0    0 -0.56268780606E+01  0.30811970690E+02 -0.30043035485E+02  0.47787271024E+02  0.19999999906E+02 0.  0.
         12    1    3    3    0    0  0.56268780606E+01 -0.30811970690E+02  0.30043035485E+02  0.43400728976E+02  0.00000000000E+00 0. -1.
         11    1    4    4    0    0 -0.44913283236E+01  0.86251722136E+01 -0.14103977163E+02  0.17131485572E+02  0.51100000000E-03 0. -1.
        -11    1    4    4    0    0  0.19215879816E+01  0.21875803949E+02 -0.10348198337E+02  0.24276089221E+02  0.51100000000E-03 0.  1.
         12    1    4    4    0    0 -0.30571377187E+01  0.31099452770E+00 -0.55908599847E+01  0.63796962307E+01  0.00000000000E+00 0. -1.
</event>
<event>
 8    1  0.5422364E-010  0.9118800E+02  0.7816164E-02  0.1184000E+00
        -11   -1    0    0    0    0  0.00000000000E+00  0.00000000000E+00  0.45593999997E+02  0.45594000000E+02  0.51100000000E-03 0. -1.
         11   -1    0    0    0    0 -0.00000000000E+00 -0.00000000000E+00 -0.45593999997E+02  0.45594000000E+02  0.51100000000E-03 0.  1.
         23    2    1    2    0    0  0.00000000000E+00  0.00000000000E+00  0.71054273576E-14  0.91188000000E+02  0.91188000000E+02 0.  0.
    9900012    2    3    3    0    0 -0.15859406468E+02  0.83961693364E+01 -0.39517172946E+02  0.47787269698E+02  0.19999993863E+02 0.  0.
         12    1    3    3    0    0  0.15859406468E+02 -0.83961693364E+01  0.39517172946E+02  0.43400730302E+02  0.00000000000E+00 0. -1.
         11    1    4    4    0    0 -0.19447391351E+01 -0.29610592714E+01 -0.19695525579E+02  0.20011586904E+02  0.51100000000E-03 0.  1.
        -11    1    4    4    0    0 -0.30495197098E+01  0.65827465527E+01 -0.51097761141E+01  0.88736652424E+01  0.51100000000E-03 0. -1.
        -12    1    4    4    0    0 -0.10865147623E+02  0.47744820551E+01 -0.14711871253E+02  0.18902017552E+02  0.00000000000E+00 0.  1.
</event>
<event>
 8    1  0.4798632E-010  0.9118800E+02  0.7816164E-02  0.1184000E+00
        -11   -1    0    0    0    0  0.00000000000E+00  0.00000000000E+00  0.45593999997E+02  0.45594000000E+02  0.51100000000E-03 0. -1.
         11   -1    0    0    0    0 -0.00000000000E+00 -0.00000000000E+00 -0.45593999997E+02  0.45594000000E+02  0.51100000000E-03 0.  1.
         23    2    1    2    0    0  0.00000000000E+00  0.00000000000E+00 -0.71054273576E-14  0.91188000000E+02  0.91188000000E+02 0.  0.
    9900012    2    3    3    0    0 -0.57419726837E+01 -0.45740633440E+01 -0.42775370787E+02  0.47787255171E+02  0.19999927626E+02 0.  0.
         12    1    3    3    0    0  0.57419726837E+01  0.45740633440E+01  0.42775370787E+02  0.43400744829E+02  0.00000000000E+00 0. -1.
         11    1    4    4    0    0 -0.44820603475E+01 -0.10689154616E+02 -0.19694606919E+02  0.22852230380E+02  0.51100000000E-03 0.  1.
        -11    1    4    4    0    0 -0.37007702211E+00  0.76341813765E+01 -0.19514047479E+02  0.20957474361E+02  0.51100000000E-03 0. -1.
         12    1    4    4    0    0 -0.88983531409E+00 -0.15190901043E+01 -0.35667163885E+01  0.39775504305E+01  0.00000000000E+00 0. -1.
</event>
<event>
 8    1  0.4798632E-010  0.9118800E+02  0.7816164E-02  0.1184000E+00
        -11   -1    0    0    0    0  0.00000000000E+00  0.00000000000E+00  0.45593999997E+02  0.45594000000E+02  0.51100000000E-03 0.  1.
         11   -1    0    0    0    0 -0.00000000000E+00 -0.00000000000E+00 -0.45593999997E+02  0.45594000000E+02  0.51100000000E-03 0. -1.
         23    2    1    2    0    0  0.00000000000E+00  0.00000000000E+00  0.00000000000E+00  0.91188000000E+02  0.91188000000E+02 0.  0.
    9900012    2    3    3    0    0  0.42300571656E+02  0.41375235729E+01  0.87843936046E+01  0.47787273799E+02  0.20000012560E+02 0.  0.
         12    1    3    3    0    0 -0.42300571656E+02 -0.41375235729E+01 -0.87843936046E+01  0.43400726201E+02  0.00000000000E+00 0. -1.
         11    1    4    4    0    0  0.96443132313E+00 -0.45567728598E+01  0.84550868759E+00  0.47338347959E+01  0.51100000000E-03 0. -1.
        -11    1    4    4    0    0  0.59914562405E+01  0.51990779506E+00  0.63024318109E+00  0.60469048881E+01  0.51100000000E-03 0.  1.
         12    1    4    4    0    0  0.35344684093E+02  0.81743886376E+01  0.73086417359E+01  0.37006534115E+02  0.00000000000E+00 0. -1.
</event>
<event>
 8    1  0.4798632E-010  0.9118800E+02  0.7816164E-02  0.1184000E+00
        -11   -1    0    0    0    0  0.00000000000E+00  0.00000000000E+00  0.45593999997E+02  0.45594000000E+02  0.51100000000E-03 0. -1.
         11   -1    0    0    0    0 -0.00000000000E+00 -0.00000000000E+00 -0.45593999997E+02  0.45594000000E+02  0.51100000000E-03 0.  1.
         23    2    1    2    0    0  0.00000000000E+00  0.35527136788E-14  0.00000000000E+00  0.91188000000E+02  0.91188000000E+02 0.  0.
    9900012    2    3    3    0    0  0.26015560547E+02  0.21355741664E+02 -0.27399746368E+02  0.47787271969E+02  0.20000004215E+02 0.  0.
         12    1    3    3    0    0 -0.26015560547E+02 -0.21355741664E+02  0.27399746368E+02  0.43400728031E+02  0.00000000000E+00 0. -1.
         11    1    4    4    0    0  0.13193207712E+02  0.56548121129E+01 -0.19889953539E+02  0.24528511610E+02  0.51100000000E-03 0. -1.
        -11    1    4    4    0    0  0.77984430887E+01  0.14444212645E+02 -0.36923632245E+01  0.16825116344E+02  0.51100000000E-03 0.  1.
         12    1    4    4    0    0  0.50239097468E+01  0.12567169056E+01 -0.38174296044E+01  0.64336440148E+01  0.00000000000E+00 0. -1.
</event>
<event>
 8    1  0.4798632E-010  0.9118800E+02  0.7816164E-02  0.1184000E+00
        -11   -1    0    0    0    0  0.00000000000E+00  0.00000000000E+00  0.45593999997E+02  0.45594000000E+02  0.51100000000E-03 0. -1.
         11   -1    0    0    0    0 -0.00000000000E+00 -0.00000000000E+00 -0.45593999997E+02  0.45594000000E+02  0.51100000000E-03 0.  1.
         23    2    1    2    0    0  0.00000000000E+00 -0.44408920985E-15  0.71054273576E-14  0.91188000000E+02  0.91188000000E+02 0.  0.
    9900012    2    3    3    0    0 -0.20223878830E+02 -0.29012328476E+01  0.38291000785E+02  0.47787272263E+02  0.20000005554E+02 0.  0.
        -12    1    3    3    0    0  0.20223878830E+02  0.29012328476E+01 -0.38291000785E+02  0.43400727737E+02  0.00000000000E+00 0.  1.
         11    1    4    4    0    0 -0.18717057117E+02 -0.74516963682E+01  0.30678920420E+02  0.36702209256E+02  0.51100000000E-03 0. -1.
        -11    1    4    4    0    0  0.10765669394E+01  0.47963385123E+01  0.67506566746E+01  0.83507619592E+01  0.51100000000E-03 0.  1.
         12    1    4    4    0    0 -0.25833886528E+01 -0.24587499172E+00  0.86142369104E+00  0.27343010475E+01  0.00000000000E+00 0. -1.
</event>
<event>
 8    1  0.4798632E-010  0.9118800E+02  0.7816164E-02  0.1184000E+00
        -11   -1    0    0    0    0  0.00000000000E+00  0.00000000000E+00  0.45593999997E+02  0.45594000000E+02  0.51100000000E-03 0. -1.
         11   -1    0    0    0    0 -0.00000000000E+00 -0.00000000000E+00 -0.45593999997E+02  0.45594000000E+02  0.51100000000E-03 0.  1.
         23    2    1    2    0    0 -0.52735593670E-15 -0.35527136788E-14  0.00000000000E+00  0.91188000000E+02  0.91188000000E+02 0.  0.
    9900012    2    3    3    0    0  0.11142109520E+00  0.26370145125E+02 -0.34470658272E+02  0.47787271317E+02  0.20000001241E+02 0.  0.
         12    1    3    3    0    0 -0.11142109520E+00 -0.26370145125E+02  0.34470658272E+02  0.43400728683E+02  0.00000000000E+00 0. -1.
         11    1    4    4    0    0 -0.55331195048E+01  0.12510813742E+01 -0.42419574361E+01  0.70834186104E+01  0.51100000000E-03 0. -1.
        -11    1    4    4    0    0  0.53365228587E+01  0.16545297141E+02 -0.13899504709E+02  0.22258067416E+02  0.51100000000E-03 0.  1.
         12    1    4    4    0    0  0.30801774130E+00  0.85737666103E+01 -0.16329196127E+02  0.18445785290E+02  0.00000000000E+00 0. -1.
</event>
<event>
 8    1  0.4798632E-010  0.9118800E+02  0.7816164E-02  0.1184000E+00
        -11   -1    0    0    0    0  0.00000000000E+00  0.00000000000E+00  0.45593999997E+02  0.45594000000E+02  0.51100000000E-03 0. -1.
         11   -1    0    0    0    0 -0.00000000000E+00 -0.00000000000E+00 -0.45593999997E+02  0.45594000000E+02  0.51100000000E-03 0.  1.
         23    2    1    2    0    0 -0.11102230246E-15  0.00000000000E+00  0.00000000000E+00  0.91188000000E+02  0.91188000000E+02 0.  0.
    9900012    2    3    3    0    0  0.17805891441E+00  0.52269986372E+01  0.43084453530E+02  0.47787270101E+02  0.19999995700E+02 0.  0.
        -12    1    3    3    0    0 -0.17805891441E+00 -0.52269986372E+01 -0.43084453530E+02  0.43400729899E+02  0.00000000000E+00 0.  1.
         11    1    4    4    0    0  0.75920618842E+01  0.36831979648E+01  0.13041614018E+02  0.15533481495E+02  0.51100000000E-03 0. -1.
        -11    1    4    4    0    0 -0.69545040692E+01  0.46718005651E+01  0.24218671933E+02  0.25626839794E+02  0.51100000000E-03 0.  1.
         12    1    4    4    0    0 -0.45949890060E+00 -0.31279998927E+01  0.58241675798E+01  0.66269488127E+01  0.00000000000E+00 0. -1.
</event>
<event>
 8    1  0.4798632E-010  0.9118800E+02  0.7816164E-02  0.1184000E+00
        -11   -1    0    0    0    0  0.00000000000E+00  0.00000000000E+00  0.45593999997E+02  0.45594000000E+02  0.51100000000E-03 0. -1.
         11   -1    0    0    0    0 -0.00000000000E+00 -0.00000000000E+00 -0.45593999997E+02  0.45594000000E+02  0.51100000000E-03 0.  1.
         23    2    1    2    0    0  0.00000000000E+00  0.71054273576E-14  0.00000000000E+00  0.91188000000E+02  0.91188000000E+02 0.  0.
    9900012    2    3    3    0    0 -0.19332350457E+02  0.36175582832E+02  0.14184912575E+02  0.47787259083E+02  0.19999945463E+02 0.  0.
        -12    1    3    3    0    0  0.19332350457E+02 -0.36175582832E+02 -0.14184912575E+02  0.43400740917E+02  0.00000000000E+00 0.  1.
         11    1    4    4    0    0 -0.13501044772E+02  0.21533880222E+02  0.17682504899E+02  0.30962189637E+02  0.51100000000E-03 0. -1.
        -11    1    4    4    0    0 -0.43144984344E+01  0.87057715922E+01 -0.43386960058E+01  0.10640941643E+02  0.51100000000E-03 0.  1.
        -12    1    4    4    0    0 -0.15168072499E+01  0.59359310180E+01  0.84110368194E+00  0.61841278033E+01  0.00000000000E+00 0.  1.
</event>
<event>
 8    1  0.4798632E-010  0.9118800E+02  0.7816164E-02  0.1184000E+00
        -11   -1    0    0    0    0  0.00000000000E+00  0.00000000000E+00  0.45593999997E+02  0.45594000000E+02  0.51100000000E-03 0. -1.
         11   -1    0    0    0    0 -0.00000000000E+00 -0.00000000000E+00 -0.45593999997E+02  0.45594000000E+02  0.51100000000E-03 0.  1.
         23    2    1    2    0    0  0.00000000000E+00  0.00000000000E+00  0.00000000000E+00  0.91188000000E+02  0.91188000000E+02 0.  0.
    9900012    2    3    3    0    0 -0.40449184319E+01  0.82073964426E+01 -0.42425233752E+02  0.47787272121E+02  0.20000004909E+02 0.  0.
         12    1    3    3    0    0  0.40449184319E+01 -0.82073964426E+01  0.42425233752E+02  0.43400727879E+02  0.00000000000E+00 0. -1.
         11    1    4    4    0    0 -0.22694184635E+01  0.80851277266E+00 -0.33575945595E+02  0.33662264866E+02  0.51100000000E-03 0. -1.
        -11    1    4    4    0    0 -0.36557212095E+01  0.79522820872E+01 -0.57983655259E+01  0.10498768070E+02  0.51100000000E-03 0.  1.
         12    1    4    4    0    0  0.18802212411E+01 -0.55339841724E+00 -0.30509226314E+01  0.36262391850E+01  0.00000000000E+00 0. -1.
</event>
<event>
 8    1  0.4798632E-010  0.9118800E+02  0.7816164E-02  0.1184000E+00
        -11   -1    0    0    0    0  0.00000000000E+00  0.00000000000E+00  0.45593999997E+02  0.45594000000E+02  0.51100000000E-03 0. -1.
         11   -1    0    0    0    0 -0.00000000000E+00 -0.00000000000E+00 -0.45593999997E+02  0.45594000000E+02  0.51100000000E-03 0.  1.
         23    2    1    2    0    0  0.00000000000E+00  0.00000000000E+00  0.71054273576E-14  0.91188000000E+02  0.91188000000E+02 0.  0.
    9900012    2    3    3    0    0 -0.30105214080E+02  0.11402987580E+02  0.29107934316E+02  0.47787264053E+02  0.19999968125E+02 0.  0.
        -12    1    3    3    0    0  0.30105214080E+02 -0.11402987580E+02 -0.29107934316E+02  0.43400735947E+02  0.00000000000E+00 0.  1.
         11    1    4    4    0    0 -0.10132747512E+02  0.10330478883E+02  0.53592036601E+01  0.15430892075E+02  0.51100000000E-03 0. -1.
        -11    1    4    4    0    0 -0.19704484735E+01 -0.26385568532E+01  0.57776564379E+01  0.66502604182E+01  0.51100000000E-03 0.  1.
         12    1    4    4    0    0 -0.18002018094E+02  0.37110655498E+01  0.17971074218E+02  0.25706111560E+02  0.00000000000E+00 0. -1.
</event>
<event>
 8    1  0.4798632E-010  0.9118800E+02  0.7816164E-02  0.1184000E+00
        -11   -1    0    0    0    0  0.00000000000E+00  0.00000000000E+00  0.45593999997E+02  0.45594000000E+02  0.51100000000E-03 0. -1.
         11   -1    0    0    0    0 -0.00000000000E+00 -0.00000000000E+00 -0.45593999997E+02  0.45594000000E+02  0.51100000000E-03 0.  1.
         23    2    1    2    0    0  0.00000000000E+00  0.00000000000E+00  0.00000000000E+00  0.91188000000E+02  0.91188000000E+02 0.  0.
    9900012    2    3    3    0    0  0.18766041957E+02 -0.20436711537E+02  0.33373629232E+02  0.47787278378E+02  0.20000033438E+02 0.  0.
        -12    1    3    3    0    0 -0.18766041957E+02  0.20436711537E+02 -0.33373629232E+02  0.43400721622E+02  0.00000000000E+00 0.  1.
         11    1    4    4    0    0  0.61774100297E+01 -0.16097135741E+02  0.18287857953E+02  0.25134118693E+02  0.51100000000E-03 0. -1.
        -11    1    4    4    0    0  0.35409408914E+01  0.28720000484E+01  0.76314574754E+01  0.88896451073E+01  0.51100000000E-03 0.  1.
        -12    1    4    4    0    0  0.90476910361E+01 -0.72115758450E+01  0.74543138034E+01  0.13763514578E+02  0.00000000000E+00 0.  1.
</event>
<event>
 8    1  0.4798632E-010  0.9118800E+02  0.7816164E-02  0.1184000E+00
        -11   -1    0    0    0    0  0.00000000000E+00  0.00000000000E+00  0.45593999997E+02  0.45594000000E+02  0.51100000000E-03 0.  1.
         11   -1    0    0    0    0 -0.00000000000E+00 -0.00000000000E+00 -0.45593999997E+02  0.45594000000E+02  0.51100000000E-03 0. -1.
         23    2    1    2    0    0  0.00000000000E+00 -0.35527136788E-14  0.88817841970E-15  0.91188000000E+02  0.91188000000E+02 0.  0.
    9900012    2    3    3    0    0  0.28350009102E+02  0.31878640862E+02  0.79782602925E+01  0.47787269630E+02  0.19999993553E+02 0.  0.
        -12    1    3    3    0    0 -0.28350009102E+02 -0.31878640862E+02 -0.79782602925E+01  0.43400730370E+02  0.00000000000E+00 0.  1.
         11    1    4    4    0    0  0.54671295094E+01  0.81008322304E+01 -0.32278832230E+01  0.10292337842E+02  0.51100000000E-03 0. -1.
        -11    1    4    4    0    0  0.17564527937E+02  0.13356555918E+02  0.13071747524E+02  0.25647237887E+02  0.51100000000E-03 0.  1.
        -12    1    4    4    0    0  0.53183516558E+01  0.10421252714E+02 -0.18656040086E+01  0.11847693901E+02  0.00000000000E+00 0.  1.
</event>
<event>
 8    1  0.7365578E-010  0.9118800E+02  0.7816164E-02  0.1184000E+00
        -11   -1    0    0    0    0  0.00000000000E+00  0.00000000000E+00  0.45593999997E+02  0.45594000000E+02  0.51100000000E-03 0. -1.
         11   -1    0    0    0    0 -0.00000000000E+00 -0.00000000000E+00 -0.45593999997E+02  0.45594000000E+02  0.51100000000E-03 0.  1.
         23    2    1    2    0    0  0.00000000000E+00  0.00000000000E+00  0.00000000000E+00  0.91188000000E+02  0.91188000000E+02 0.  0.
    9900012    2    3    3    0    0  0.13614651243E+02 -0.13636207484E+02 -0.38888542373E+02  0.47787267161E+02  0.19999982296E+02 0.  0.
         12    1    3    3    0    0 -0.13614651243E+02  0.13636207484E+02  0.38888542373E+02  0.43400732839E+02  0.00000000000E+00 0. -1.
         11    1    4    4    0    0  0.23225433731E+00 -0.56051014549E+01 -0.39916895266E+01  0.68851063852E+01  0.51100000000E-03 0. -1.
        -11    1    4    4    0    0  0.32614412048E+01  0.42159750432E+01 -0.70013232460E+01  0.87994301948E+01  0.51100000000E-03 0.  1.
        -12    1    4    4    0    0  0.10120955701E+02 -0.12247081072E+02 -0.27895529601E+02  0.32102730581E+02  0.00000000000E+00 0.  1.
</event>
<event>
 8    1  0.4798632E-010  0.9118800E+02  0.7816164E-02  0.1184000E+00
        -11   -1    0    0    0    0  0.00000000000E+00  0.00000000000E+00  0.45593999997E+02  0.45594000000E+02  0.51100000000E-03 0. -1.
         11   -1    0    0    0    0 -0.00000000000E+00 -0.00000000000E+00 -0.45593999997E+02  0.45594000000E+02  0.51100000000E-03 0.  1.
         23    2    1    2    0    0  0.00000000000E+00  0.35527136788E-14  0.71054273576E-14  0.91188000000E+02  0.91188000000E+02 0.  0.
    9900012    2    3    3    0    0  0.85139333077E+01  0.26183238127E+02  0.33549575669E+02  0.47787273661E+02  0.20000011931E+02 0.  0.
        -12    1    3    3    0    0 -0.85139333077E+01 -0.26183238127E+02 -0.33549575669E+02  0.43400726339E+02  0.00000000000E+00 0.  1.
         11    1    4    4    0    0 -0.40602081419E+01  0.13871325886E+01  0.11567543806E+02  0.12337645518E+02  0.51100000000E-03 0. -1.
        -11    1    4    4    0    0  0.96652544031E+01  0.19502443241E+02  0.17480322090E+02  0.27916376836E+02  0.51100000000E-03 0.  1.
         12    1    4    4    0    0  0.29088870465E+01  0.52936622976E+01  0.45017097732E+01  0.75332513069E+01  0.00000000000E+00 0. -1.
</event>
<event>
 8    1  0.4798632E-010  0.9118800E+02  0.7816164E-02  0.1184000E+00
        -11   -1    0    0    0    0  0.00000000000E+00  0.00000000000E+00  0.45593999997E+02  0.45594000000E+02  0.51100000000E-03 0. -1.
         11   -1    0    0    0    0 -0.00000000000E+00 -0.00000000000E+00 -0.45593999997E+02  0.45594000000E+02  0.51100000000E-03 0.  1.
         23    2    1    2    0    0  0.35527136788E-14  0.35527136788E-14  0.00000000000E+00  0.91188000000E+02  0.91188000000E+02 0.  0.
    9900012    2    3    3    0    0 -0.73790081342E+01 -0.22770090982E+02 -0.36203537119E+02  0.47787275302E+02  0.20000019412E+02 0.  0.
         12    1    3    3    0    0  0.73790081342E+01  0.22770090982E+02  0.36203537119E+02  0.43400724698E+02  0.00000000000E+00 0. -1.
         11    1    4    4    0    0  0.16175880668E+01 -0.69368347098E+01 -0.23674266737E+02  0.24722604489E+02  0.51100000000E-03 0. -1.
        -11    1    4    4    0    0 -0.72968154936E+01 -0.89913674483E+01 -0.46140013939E+01  0.12465039674E+02  0.51100000000E-03 0.  1.
         12    1    4    4    0    0 -0.16997807074E+01 -0.68418888236E+01 -0.79152689885E+01  0.10599631139E+02  0.00000000000E+00 0. -1.
</event>
<event>
 8    1  0.4798632E-010  0.9118800E+02  0.7816164E-02  0.1184000E+00
        -11   -1    0    0    0    0  0.00000000000E+00  0.00000000000E+00  0.45593999997E+02  0.45594000000E+02  0.51100000000E-03 0. -1.
         11   -1    0    0    0    0 -0.00000000000E+00 -0.00000000000E+00 -0.45593999997E+02  0.45594000000E+02  0.51100000000E-03 0.  1.
         23    2    1    2    0    0  0.00000000000E+00  0.35527136788E-14  0.00000000000E+00  0.91188000000E+02  0.91188000000E+02 0.  0.
    9900012    2    3    3    0    0 -0.65485313776E+01 -0.22036773435E+02  0.36811964623E+02  0.47787269752E+02  0.19999994108E+02 0.  0.
        -12    1    3    3    0    0  0.65485313776E+01  0.22036773435E+02 -0.36811964623E+02  0.43400730248E+02  0.00000000000E+00 0.  1.
         11    1    4    4    0    0 -0.32205608312E+01 -0.45594615216E+00 -0.62185574728E+00  0.33115862955E+01  0.51100000000E-03 0. -1.
        -11    1    4    4    0    0 -0.10576680229E+01 -0.21707540467E+02  0.34241732424E+02  0.40556531095E+02  0.51100000000E-03 0.  1.
         12    1    4    4    0    0 -0.22703025236E+01  0.12671318396E+00  0.31920879462E+01  0.39191523619E+01  0.00000000000E+00 0. -1.
</event>
<event>
 8    1  0.4798632E-010  0.9118800E+02  0.7816164E-02  0.1184000E+00
        -11   -1    0    0    0    0  0.00000000000E+00  0.00000000000E+00  0.45593999997E+02  0.45594000000E+02  0.51100000000E-03 0. -1.
         11   -1    0    0    0    0 -0.00000000000E+00 -0.00000000000E+00 -0.45593999997E+02  0.45594000000E+02  0.51100000000E-03 0.  1.
         23    2    1    2    0    0  0.35527136788E-14  0.00000000000E+00 -0.71054273576E-14  0.91188000000E+02  0.91188000000E+02 0.  0.
    9900012    2    3    3    0    0  0.19050322334E+02 -0.19229815052E+02 -0.33925249126E+02  0.47787273091E+02  0.20000009332E+02 0.  0.
         12    1    3    3    0    0 -0.19050322334E+02  0.19229815052E+02  0.33925249126E+02  0.43400726909E+02  0.00000000000E+00 0. -1.
         11    1    4    4    0    0  0.79460211768E+01 -0.13171304608E+02 -0.16162824558E+02  0.22312763513E+02  0.51100000000E-03 0.  1.
        -11    1    4    4    0    0  0.50989862374E+01  0.27203719766E+01 -0.12135649758E+02  0.13441505855E+02  0.51100000000E-03 0. -1.
         12    1    4    4    0    0  0.60053149194E+01 -0.87788824209E+01 -0.56267748094E+01  0.12033003723E+02  0.00000000000E+00 0. -1.
</event>
<event>
 8    1  0.4798632E-010  0.9118800E+02  0.7816164E-02  0.1184000E+00
        -11   -1    0    0    0    0  0.00000000000E+00  0.00000000000E+00  0.45593999997E+02  0.45594000000E+02  0.51100000000E-03 0.  1.
         11   -1    0    0    0    0 -0.00000000000E+00 -0.00000000000E+00 -0.45593999997E+02  0.45594000000E+02  0.51100000000E-03 0. -1.
         23    2    1    2    0    0 -0.71054273576E-14  0.00000000000E+00  0.88817841970E-15  0.91188000000E+02  0.91188000000E+02 0.  0.
    9900012    2    3    3    0    0 -0.41003729443E+02 -0.12458448987E+02 -0.68632914951E+01  0.47787267869E+02  0.19999985520E+02 0.  0.
         12    1    3    3    0    0  0.41003729443E+02  0.12458448987E+02  0.68632914951E+01  0.43400732131E+02  0.00000000000E+00 0. -1.
         11    1    4    4    0    0 -0.22975972978E+02 -0.27030824936E+01 -0.11716086519E+02  0.25932000941E+02  0.51100000000E-03 0. -1.
        -11    1    4    4    0    0 -0.58512591754E+01 -0.64125117130E+01  0.18376527191E+01  0.88732467668E+01  0.51100000000E-03 0.  1.
         12    1    4    4    0    0 -0.12176497290E+02 -0.33428547799E+01  0.30151423044E+01  0.12982020161E+02  0.00000000000E+00 0. -1.
</event>
<event>
 8    1  0.4798632E-010  0.9118800E+02  0.7816164E-02  0.1184000E+00
        -11   -1    0    0    0    0  0.00000000000E+00  0.00000000000E+00  0.45593999997E+02  0.45594000000E+02  0.51100000000E-03 0.  1.
         11   -1    0    0    0    0 -0.00000000000E+00 -0.00000000000E+00 -0.45593999997E+02  0.45594000000E+02  0.51100000000E-03 0. -1.
         23    2    1    2    0    0  0.00000000000E+00  0.00000000000E+00 -0.88817841970E-15  0.91188000000E+02  0.91188000000E+02 0.  0.
    9900012    2    3    3    0    0  0.25315431592E+02  0.34617319717E+02  0.66628174955E+01  0.47787273761E+02  0.20000012385E+02 0.  0.
        -12    1    3    3    0    0 -0.25315431592E+02 -0.34617319717E+02 -0.66628174955E+01  0.43400726239E+02  0.00000000000E+00 0.  1.
         11    1    4    4    0    0  0.12835274470E+01 -0.19693571501E+01 -0.17529492892E+01  0.29323440731E+01  0.51100000000E-03 0.  1.
        -11    1    4    4    0    0  0.12270390004E+02  0.17537989208E+02  0.65788518675E+01  0.22392517243E+02  0.51100000000E-03 0. -1.
        -12    1    4    4    0    0  0.11761514141E+02  0.19048687659E+02  0.18369149171E+01  0.22462412445E+02  0.00000000000E+00 0.  1.
</event>
<event>
 8    1  0.4798632E-010  0.9118800E+02  0.7816164E-02  0.1184000E+00
        -11   -1    0    0    0    0  0.00000000000E+00  0.00000000000E+00  0.45593999997E+02  0.45594000000E+02  0.51100000000E-03 0. -1.
         11   -1    0    0    0    0 -0.00000000000E+00 -0.00000000000E+00 -0.45593999997E+02  0.45594000000E+02  0.51100000000E-03 0.  1.
         23    2    1    2    0    0  0.00000000000E+00  0.00000000000E+00  0.00000000000E+00  0.91188000000E+02  0.91188000000E+02 0.  0.
    9900012    2    3    3    0    0 -0.41542268558E+01 -0.22406117630E+02  0.36936863757E+02  0.47787267146E+02  0.19999982227E+02 0.  0.
        -12    1    3    3    0    0  0.41542268558E+01  0.22406117630E+02 -0.36936863757E+02  0.43400732854E+02  0.00000000000E+00 0.  1.
         11    1    4    4    0    0  0.22533851611E+01 -0.19823590667E+01  0.19840249553E+02  0.20065966081E+02  0.51100000000E-03 0. -1.
        -11    1    4    4    0    0 -0.45942730968E+01 -0.18832596072E+02  0.14780333805E+02  0.24376880189E+02  0.51100000000E-03 0.  1.
         12    1    4    4    0    0 -0.18133389201E+01 -0.15911624914E+01  0.23162803992E+01  0.33444208768E+01  0.00000000000E+00 0. -1.
</event>
<event>
 8    1  0.4798632E-010  0.9118800E+02  0.7816164E-02  0.1184000E+00
        -11   -1    0    0    0    0  0.00000000000E+00  0.00000000000E+00  0.45593999997E+02  0.45594000000E+02  0.51100000000E-03 0. -1.
         11   -1    0    0    0    0 -0.00000000000E+00 -0.00000000000E+00 -0.45593999997E+02  0.45594000000E+02  0.51100000000E-03 0.  1.
         23    2    1    2    0    0  0.00000000000E+00  0.00000000000E+00 -0.35527136788E-14  0.91188000000E+02  0.91188000000E+02 0.  0.
    9900012    2    3    3    0    0  0.21573609257E+02  0.29194424532E+02  0.23788403380E+02  0.47787272178E+02  0.20000005167E+02 0.  0.
        -12    1    3    3    0    0 -0.21573609257E+02 -0.29194424532E+02 -0.23788403380E+02  0.43400727822E+02  0.00000000000E+00 0.  1.
         11    1    4    4    0    0  0.12377333639E+02  0.93707966788E+01  0.17751481047E+02  0.23582309006E+02  0.51100000000E-03 0. -1.
        -11    1    4    4    0    0  0.33419049698E+01  0.35460038107E+01  0.48357512575E+01  0.68649080356E+01  0.51100000000E-03 0.  1.
         12    1    4    4    0    0  0.58543706483E+01  0.16277624043E+02  0.12011710746E+01  0.17340055136E+02  0.00000000000E+00 0. -1.
</event>
<event>
 8    1  0.4798632E-010  0.9118800E+02  0.7816164E-02  0.1184000E+00
        -11   -1    0    0    0    0  0.00000000000E+00  0.00000000000E+00  0.45593999997E+02  0.45594000000E+02  0.51100000000E-03 0.  1.
         11   -1    0    0    0    0 -0.00000000000E+00 -0.00000000000E+00 -0.45593999997E+02  0.45594000000E+02  0.51100000000E-03 0. -1.
         23    2    1    2    0    0 -0.71054273576E-14  0.00000000000E+00  0.00000000000E+00  0.91188000000E+02  0.91188000000E+02 0.  0.
    9900012    2    3    3    0    0 -0.42115760776E+02  0.91814915037E+01  0.50583224110E+01  0.47787265933E+02  0.19999976694E+02 0.  0.
        -12    1    3    3    0    0  0.42115760776E+02 -0.91814915037E+01 -0.50583224110E+01  0.43400734067E+02  0.00000000000E+00 0.  1.
         11    1    4    4    0    0 -0.90112741280E+01  0.11085652818E+02  0.16588103711E+01  0.14382156025E+02  0.51100000000E-03 0. -1.
        -11    1    4    4    0    0 -0.15819521861E+02 -0.52733539977E+00  0.59031813410E+00  0.15839312811E+02  0.51100000000E-03 0.  1.
         12    1    4    4    0    0 -0.17284964786E+02 -0.13768259149E+01  0.28091939059E+01  0.17565797097E+02  0.00000000000E+00 0. -1.
</event>
<event>
 8    1  0.4798632E-010  0.9118800E+02  0.7816164E-02  0.1184000E+00
        -11   -1    0    0    0    0  0.00000000000E+00  0.00000000000E+00  0.45593999997E+02  0.45594000000E+02  0.51100000000E-03 0. -1.
         11   -1    0    0    0    0 -0.00000000000E+00 -0.00000000000E+00 -0.45593999997E+02  0.45594000000E+02  0.51100000000E-03 0.  1.
         23    2    1    2    0    0  0.00000000000E+00 -0.17763568394E-14 -0.17763568394E-14  0.91188000000E+02  0.91188000000E+02 0.  0.
    9900012    2    3    3    0    0 -0.37486391493E+02 -0.15284250726E+02 -0.15645611199E+02  0.47787274001E+02  0.20000013482E+02 0.  0.
         12    1    3    3    0    0  0.37486391493E+02  0.15284250726E+02  0.15645611199E+02  0.43400725999E+02  0.00000000000E+00 0. -1.
         11    1    4    4    0    0 -0.21557723135E+02 -0.12005766346E+02 -0.20138396345E+01  0.24757411065E+02  0.51100000000E-03 0. -1.
        -11    1    4    4    0    0 -0.56442409715E+01 -0.44659766070E+01 -0.94158267530E+01  0.11851590480E+02  0.51100000000E-03 0.  1.
        -12    1    4    4    0    0 -0.10284427386E+02  0.11874922268E+01 -0.42159448113E+01  0.11178272456E+02  0.00000000000E+00 0.  1.
</event>
<event>
 8    1  0.4798632E-010  0.9118800E+02  0.7816164E-02  0.1184000E+00
        -11   -1    0    0    0    0  0.00000000000E+00  0.00000000000E+00  0.45593999997E+02  0.45594000000E+02  0.51100000000E-03 0. -1.
         11   -1    0    0    0    0 -0.00000000000E+00 -0.00000000000E+00 -0.45593999997E+02  0.45594000000E+02  0.51100000000E-03 0.  1.
         23    2    1    2    0    0 -0.35527136788E-14 -0.55511151231E-16 -0.71054273576E-14  0.91188000000E+02  0.91188000000E+02 0.  0.
    9900012    2    3    3    0    0 -0.31275731123E+02  0.16619701322E+00 -0.30090271681E+02  0.47787269263E+02  0.19999991877E+02 0.  0.
         12    1    3    3    0    0  0.31275731123E+02 -0.16619701322E+00  0.30090271681E+02  0.43400730737E+02  0.00000000000E+00 0. -1.
         11    1    4    4    0    0  0.87773147663E+00 -0.72453529760E+00 -0.38277076197E+01  0.39933331724E+01  0.51100000000E-03 0. -1.
        -11    1    4    4    0    0 -0.61781509505E+01 -0.34974590550E+00 -0.13447359461E+02  0.14802815546E+02  0.51100000000E-03 0.  1.
        -12    1    4    4    0    0 -0.25975311649E+02  0.12404782163E+01 -0.12815204600E+02  0.28991120544E+02  0.00000000000E+00 0.  1.
</event>
<event>
 8    1  0.4798632E-010  0.9118800E+02  0.7816164E-02  0.1184000E+00
        -11   -1    0    0    0    0  0.00000000000E+00  0.00000000000E+00  0.45593999997E+02  0.45594000000E+02  0.51100000000E-03 0. -1.
         11   -1    0    0    0    0 -0.00000000000E+00 -0.00000000000E+00 -0.45593999997E+02  0.45594000000E+02  0.51100000000E-03 0.  1.
         23    2    1    2    0    0  0.00000000000E+00  0.00000000000E+00 -0.71054273576E-14  0.91188000000E+02  0.91188000000E+02 0.  0.
    9900012    2    3    3    0    0 -0.12856896390E+02 -0.16829177462E+02  0.37882800476E+02  0.47787221542E+02  0.19999774299E+02 0.  0.
        -12    1    3    3    0    0  0.12856896390E+02  0.16829177462E+02 -0.37882800476E+02  0.43400778458E+02  0.00000000000E+00 0.  1.
         11    1    4    4    0    0  0.10349679264E+01 -0.25880336079E+01  0.13279913498E+02  0.13569273353E+02  0.51100000000E-03 0. -1.
        -11    1    4    4    0    0 -0.76406810267E+01 -0.82514790243E+01  0.41133357890E+01  0.11974407886E+02  0.51100000000E-03 0.  1.
         12    1    4    4    0    0 -0.62511832897E+01 -0.59896648303E+01  0.20489551189E+02  0.22243540303E+02  0.00000000000E+00 0. -1.
</event>
<event>
 8    1  0.4798632E-010  0.9118800E+02  0.7816164E-02  0.1184000E+00
        -11   -1    0    0    0    0  0.00000000000E+00  0.00000000000E+00  0.45593999997E+02  0.45594000000E+02  0.51100000000E-03 0. -1.
         11   -1    0    0    0    0 -0.00000000000E+00 -0.00000000000E+00 -0.45593999997E+02  0.45594000000E+02  0.51100000000E-03 0.  1.
         23    2    1    2    0    0  0.00000000000E+00  0.00000000000E+00  0.00000000000E+00  0.91188000000E+02  0.91188000000E+02 0.  0.
    9900012    2    3    3    0    0  0.10922079570E+02 -0.47113885889E+01  0.41738889743E+02  0.47787263583E+02  0.19999965980E+02 0.  0.
        -12    1    3    3    0    0 -0.10922079570E+02  0.47113885889E+01 -0.41738889743E+02  0.43400736417E+02  0.00000000000E+00 0.  1.
         11    1    4    4    0    0  0.44261970065E+01  0.65236998063E+01  0.20918599292E+02  0.22354813256E+02  0.51100000000E-03 0. -1.
        -11    1    4    4    0    0 -0.80000359022E-01 -0.50856397396E+01  0.44890558866E+01  0.67839335664E+01  0.51100000000E-03 0.  1.
         12    1    4    4    0    0  0.65758829229E+01 -0.61494486556E+01  0.16331234564E+02  0.18648516760E+02  0.00000000000E+00 0. -1.
</event>
<event>
 8    1  0.4798632E-010  0.9118800E+02  0.7816164E-02  0.1184000E+00
        -11   -1    0    0    0    0  0.00000000000E+00  0.00000000000E+00  0.45593999997E+02  0.45594000000E+02  0.51100000000E-03 0. -1.
         11   -1    0    0    0    0 -0.00000000000E+00 -0.00000000000E+00 -0.45593999997E+02  0.45594000000E+02  0.51100000000E-03 0.  1.
         23    2    1    2    0    0  0.00000000000E+00  0.00000000000E+00  0.71054273576E-14  0.91188000000E+02  0.91188000000E+02 0.  0.
    9900012    2    3    3    0    0  0.20566140846E+02  0.12374847891E+02  0.36159658671E+02  0.47787263545E+02  0.19999965809E+02 0.  0.
        -12    1    3    3    0    0 -0.20566140846E+02 -0.12374847891E+02 -0.36159658671E+02  0.43400736455E+02  0.00000000000E+00 0.  1.
         11    1    4    4    0    0 -0.17472850784E+01 -0.18031537391E+01  0.39849790184E+00  0.25422764191E+01  0.51100000000E-03 0. -1.
        -11    1    4    4    0    0  0.41005388121E+01  0.60337807905E+01  0.61599801524E+01  0.95481037341E+01  0.51100000000E-03 0.  1.
         12    1    4    4    0    0  0.18212887112E+02  0.81442208395E+01  0.29601180617E+02  0.35696883392E+02  0.00000000000E+00 0. -1.
</event>
<event>
 8    1  0.4798632E-010  0.9118800E+02  0.7816164E-02  0.1184000E+00
        -11   -1    0    0    0    0  0.00000000000E+00  0.00000000000E+00  0.45593999997E+02  0.45594000000E+02  0.51100000000E-03 0. -1.
         11   -1    0    0    0    0 -0.00000000000E+00 -0.00000000000E+00 -0.45593999997E+02  0.45594000000E+02  0.51100000000E-03 0.  1.
         23    2    1    2    0    0  0.71054273576E-14  0.00000000000E+00  0.00000000000E+00  0.91188000000E+02  0.91188000000E+02 0.  0.
    9900012    2    3    3    0    0 -0.37985424072E+02  0.71956930752E+01 -0.19721852428E+02  0.47787286827E+02  0.20000071958E+02 0.  0.
         12    1    3    3    0    0  0.37985424072E+02 -0.71956930752E+01  0.19721852428E+02  0.43400713173E+02  0.00000000000E+00 0. -1.
         11    1    4    4    0    0 -0.21985531686E+02 -0.47347301258E+01 -0.86769635313E+01  0.24105413692E+02  0.51100000000E-03 0. -1.
        -11    1    4    4    0    0 -0.91157458824E+01  0.32795308070E+01 -0.35160997816E+01  0.10306071184E+02  0.51100000000E-03 0.  1.
         12    1    4    4    0    0 -0.68841465034E+01  0.86508923940E+01 -0.75287891148E+01  0.13375801951E+02  0.00000000000E+00 0. -1.
</event>
<event>
 8    1  0.4798632E-010  0.9118800E+02  0.7816164E-02  0.1184000E+00
        -11   -1    0    0    0    0  0.00000000000E+00  0.00000000000E+00  0.45593999997E+02  0.45594000000E+02  0.51100000000E-03 0. -1.
         11   -1    0    0    0    0 -0.00000000000E+00 -0.00000000000E+00 -0.45593999997E+02  0.45594000000E+02  0.51100000000E-03 0.  1.
         23    2    1    2    0    0  0.00000000000E+00  0.00000000000E+00  0.00000000000E+00  0.91188000000E+02  0.91188000000E+02 0.  0.
    9900012    2    3    3    0    0  0.29054116161E+02  0.16221385938E+02 -0.27863024760E+02  0.47787272167E+02  0.20000005119E+02 0.  0.
         12    1    3    3    0    0 -0.29054116161E+02 -0.16221385938E+02  0.27863024760E+02  0.43400727833E+02  0.00000000000E+00 0. -1.
         11    1    4    4    0    0  0.25473313975E+01  0.78009370763E+01 -0.14210006789E+02  0.16409381759E+02  0.51100000000E-03 0.  1.
        -11    1    4    4    0    0  0.25268962033E+02  0.72063844089E+01 -0.13720099937E+02  0.29642765745E+02  0.51100000000E-03 0. -1.
         12    1    4    4    0    0  0.12378227298E+01  0.12140644527E+01  0.67081965093E-01  0.17351246629E+01  0.00000000000E+00 0. -1.
</event>
<event>
 8    1  0.4798632E-010  0.9118800E+02  0.7816164E-02  0.1184000E+00
        -11   -1    0    0    0    0  0.00000000000E+00  0.00000000000E+00  0.45593999997E+02  0.45594000000E+02  0.51100000000E-03 0. -1.
         11   -1    0    0    0    0 -0.00000000000E+00 -0.00000000000E+00 -0.45593999997E+02  0.45594000000E+02  0.51100000000E-03 0.  1.
         23    2    1    2    0    0  0.00000000000E+00  0.00000000000E+00  0.00000000000E+00  0.91188000000E+02  0.91188000000E+02 0.  0.
    9900012    2    3    3    0    0 -0.12619386436E+02 -0.30926439250E+01  0.41410257303E+02  0.47787276846E+02  0.20000026449E+02 0.  0.
        -12    1    3    3    0    0  0.12619386436E+02  0.30926439250E+01 -0.41410257303E+02  0.43400723154E+02  0.00000000000E+00 0.  1.
         11    1    4    4    0    0 -0.11202034213E+01  0.31683743226E+01  0.25151265997E+02  0.25374783409E+02  0.51100000000E-03 0. -1.
        -11    1    4    4    0    0 -0.11417563633E+02 -0.56045277225E+01  0.17119436524E+02  0.21327132894E+02  0.51100000000E-03 0.  1.
        -12    1    4    4    0    0 -0.81619381179E-01 -0.65649052504E+00 -0.86044521850E+00  0.10853605423E+01  0.00000000000E+00 0.  1.
</event>
<event>
 8    1  0.4798632E-010  0.9118800E+02  0.7816164E-02  0.1184000E+00
        -11   -1    0    0    0    0  0.00000000000E+00  0.00000000000E+00  0.45593999997E+02  0.45594000000E+02  0.51100000000E-03 0. -1.
         11   -1    0    0    0    0 -0.00000000000E+00 -0.00000000000E+00 -0.45593999997E+02  0.45594000000E+02  0.51100000000E-03 0.  1.
         23    2    1    2    0    0  0.71054273576E-14  0.35527136788E-14  0.00000000000E+00  0.91188000000E+02  0.91188000000E+02 0.  0.
    9900012    2    3    3    0    0 -0.29734343605E+02 -0.29060224074E+02  0.12449718951E+02  0.47787270573E+02  0.19999997849E+02 0.  0.
        -12    1    3    3    0    0  0.29734343605E+02  0.29060224074E+02 -0.12449718951E+02  0.43400729427E+02  0.00000000000E+00 0.  1.
         11    1    4    4    0    0 -0.17688236531E+01  0.13287150643E+01  0.46558168745E+01  0.51546922185E+01  0.51100000000E-03 0. -1.
        -11    1    4    4    0    0 -0.20397992844E+02 -0.24139918459E+02  0.31060249053E+01  0.31756277588E+02  0.51100000000E-03 0.  1.
         12    1    4    4    0    0 -0.75675271075E+01 -0.62490206802E+01  0.46878771710E+01  0.10876300766E+02  0.00000000000E+00 0. -1.
</event>
<event>
 8    1  0.4798632E-010  0.9118800E+02  0.7816164E-02  0.1184000E+00
        -11   -1    0    0    0    0  0.00000000000E+00  0.00000000000E+00  0.45593999997E+02  0.45594000000E+02  0.51100000000E-03 0. -1.
         11   -1    0    0    0    0 -0.00000000000E+00 -0.00000000000E+00 -0.45593999997E+02  0.45594000000E+02  0.51100000000E-03 0.  1.
         23    2    1    2    0    0  0.88817841970E-15 -0.17763568394E-14  0.00000000000E+00  0.91188000000E+02  0.91188000000E+02 0.  0.
    9900012    2    3    3    0    0  0.57917044349E+01  0.15213796357E+02 -0.40232072155E+02  0.47787273397E+02  0.20000010724E+02 0.  0.
         12    1    3    3    0    0 -0.57917044349E+01 -0.15213796357E+02  0.40232072155E+02  0.43400726603E+02  0.00000000000E+00 0. -1.
         11    1    4    4    0    0  0.72943384059E+01  0.88240277141E+00 -0.18637895684E+02  0.20033900350E+02  0.51100000000E-03 0. -1.
        -11    1    4    4    0    0  0.17353427347E+01  0.12882127995E+01 -0.92711452464E+01  0.95197185391E+01  0.51100000000E-03 0.  1.
         12    1    4    4    0    0 -0.32379767058E+01  0.13043180786E+02 -0.12323031224E+02  0.18233654508E+02  0.00000000000E+00 0. -1.
</event>
<event>
 8    1  0.4798632E-010  0.9118800E+02  0.7816164E-02  0.1184000E+00
        -11   -1    0    0    0    0  0.00000000000E+00  0.00000000000E+00  0.45593999997E+02  0.45594000000E+02  0.51100000000E-03 0. -1.
         11   -1    0    0    0    0 -0.00000000000E+00 -0.00000000000E+00 -0.45593999997E+02  0.45594000000E+02  0.51100000000E-03 0.  1.
         23    2    1    2    0    0  0.00000000000E+00 -0.35527136788E-14  0.00000000000E+00  0.91188000000E+02  0.91188000000E+02 0.  0.
    9900012    2    3    3    0    0  0.35713162390E+02  0.22746817372E+02  0.95276251644E+01  0.47787270631E+02  0.19999998117E+02 0.  0.
        -12    1    3    3    0    0 -0.35713162390E+02 -0.22746817372E+02 -0.95276251644E+01  0.43400729369E+02  0.00000000000E+00 0.  1.
         11    1    4    4    0    0  0.27937354607E+02  0.11744683700E+02  0.22295241777E+01  0.30387565812E+02  0.51100000000E-03 0. -1.
        -11    1    4    4    0    0  0.67596390856E+01  0.73140602737E+01  0.87997894213E+01  0.13290014762E+02  0.51100000000E-03 0.  1.
        -12    1    4    4    0    0  0.10161686970E+01  0.36880733981E+01 -0.15016884346E+01  0.41096900571E+01  0.00000000000E+00 0.  1.
</event>
<event>
 8    1  0.4798632E-010  0.9118800E+02  0.7816164E-02  0.1184000E+00
        -11   -1    0    0    0    0  0.00000000000E+00  0.00000000000E+00  0.45593999997E+02  0.45594000000E+02  0.51100000000E-03 0. -1.
         11   -1    0    0    0    0 -0.00000000000E+00 -0.00000000000E+00 -0.45593999997E+02  0.45594000000E+02  0.51100000000E-03 0.  1.
         23    2    1    2    0    0  0.00000000000E+00  0.00000000000E+00  0.35527136788E-14  0.91188000000E+02  0.91188000000E+02 0.  0.
    9900012    2    3    3    0    0  0.16575204465E+02 -0.34308164128E+02 -0.20780703084E+02  0.47787249436E+02  0.19999901478E+02 0.  0.
         12    1    3    3    0    0 -0.16575204465E+02  0.34308164128E+02  0.20780703084E+02  0.43400750564E+02  0.00000000000E+00 0. -1.
         11    1    4    4    0    0  0.22748141521E+01 -0.19334728859E+01 -0.41850933011E+01  0.51408270762E+01  0.51100000000E-03 0. -1.
        -11    1    4    4    0    0 -0.31361680222E+01 -0.12219562522E+02 -0.47228064548E+01  0.13470640637E+02  0.51100000000E-03 0.  1.
        -12    1    4    4    0    0  0.17436558335E+02 -0.20155128720E+02 -0.11872803328E+02  0.29175781723E+02  0.00000000000E+00 0.  1.
</event>
<event>
 8    1  0.4798632E-010  0.9118800E+02  0.7816164E-02  0.1184000E+00
        -11   -1    0    0    0    0  0.00000000000E+00  0.00000000000E+00  0.45593999997E+02  0.45594000000E+02  0.51100000000E-03 0. -1.
         11   -1    0    0    0    0 -0.00000000000E+00 -0.00000000000E+00 -0.45593999997E+02  0.45594000000E+02  0.51100000000E-03 0.  1.
         23    2    1    2    0    0  0.00000000000E+00  0.00000000000E+00  0.00000000000E+00  0.91188000000E+02  0.91188000000E+02 0.  0.
    9900012    2    3    3    0    0 -0.15617595548E+02  0.21083026341E+02  0.34571948078E+02  0.47787275532E+02  0.20000020461E+02 0.  0.
        -12    1    3    3    0    0  0.15617595548E+02 -0.21083026341E+02 -0.34571948078E+02  0.43400724468E+02  0.00000000000E+00 0.  1.
         11    1    4    4    0    0 -0.96574154382E+01  0.13348258616E+02  0.11182748601E+02  0.19912195951E+02  0.51100000000E-03 0. -1.
        -11    1    4    4    0    0  0.14791590526E+01  0.74943715281E+00  0.13710400058E+02  0.13810309105E+02  0.51100000000E-03 0.  1.
         12    1    4    4    0    0 -0.74393391620E+01  0.69853305723E+01  0.96787994187E+01  0.14064770477E+02  0.00000000000E+00 0. -1.
</event>
<event>
 8    1  0.4798632E-010  0.9118800E+02  0.7816164E-02  0.1184000E+00
        -11   -1    0    0    0    0  0.00000000000E+00  0.00000000000E+00  0.45593999997E+02  0.45594000000E+02  0.51100000000E-03 0. -1.
         11   -1    0    0    0    0 -0.00000000000E+00 -0.00000000000E+00 -0.45593999997E+02  0.45594000000E+02  0.51100000000E-03 0.  1.
         23    2    1    2    0    0  0.35527136788E-14  0.00000000000E+00  0.00000000000E+00  0.91188000000E+02  0.91188000000E+02 0.  0.
    9900012    2    3    3    0    0 -0.22856081712E+02 -0.55463138479E+01  0.36475487600E+02  0.47787271156E+02  0.20000000509E+02 0.  0.
        -12    1    3    3    0    0  0.22856081712E+02  0.55463138479E+01 -0.36475487600E+02  0.43400728844E+02  0.00000000000E+00 0.  1.
         11    1    4    4    0    0 -0.10284452313E+02 -0.22507469990E+01  0.28882082708E+02  0.30741023458E+02  0.51100000000E-03 0. -1.
        -11    1    4    4    0    0 -0.40906140196E+01 -0.17391454295E+01 -0.13278216530E+01  0.46390581464E+01  0.51100000000E-03 0.  1.
        -12    1    4    4    0    0 -0.84810153799E+01 -0.15564214194E+01  0.89212265453E+01  0.12407189552E+02  0.00000000000E+00 0.  1.
</event>
<event>
 8    1  0.4798632E-010  0.9118800E+02  0.7816164E-02  0.1184000E+00
        -11   -1    0    0    0    0  0.00000000000E+00  0.00000000000E+00  0.45593999997E+02  0.45594000000E+02  0.51100000000E-03 0. -1.
         11   -1    0    0    0    0 -0.00000000000E+00 -0.00000000000E+00 -0.45593999997E+02  0.45594000000E+02  0.51100000000E-03 0.  1.
         23    2    1    2    0    0 -0.17763568394E-14  0.71054273576E-14  0.35527136788E-14  0.91188000000E+02  0.91188000000E+02 0.  0.
    9900012    2    3    3    0    0 -0.94436147141E+01 -0.41671499504E+02 -0.76110430013E+01  0.47787266073E+02  0.19999977335E+02 0.  0.
         12    1    3    3    0    0  0.94436147141E+01  0.41671499504E+02  0.76110430013E+01  0.43400733927E+02  0.00000000000E+00 0. -1.
         11    1    4    4    0    0  0.31117512314E+01 -0.19610079481E+02  0.95648357309E+00  0.19878457537E+02  0.51100000000E-03 0. -1.
        -11    1    4    4    0    0 -0.35635632092E+01 -0.11375570318E+02 -0.70787052855E+01  0.13864005611E+02  0.51100000000E-03 0.  1.
         12    1    4    4    0    0 -0.89918027363E+01 -0.10685849705E+02 -0.14888212889E+01  0.14044802925E+02  0.00000000000E+00 0. -1.
</event>
<event>
 8    1  0.4798632E-010  0.9118800E+02  0.7816164E-02  0.1184000E+00
        -11   -1    0    0    0    0  0.00000000000E+00  0.00000000000E+00  0.45593999997E+02  0.45594000000E+02  0.51100000000E-03 0. -1.
         11   -1    0    0    0    0 -0.00000000000E+00 -0.00000000000E+00 -0.45593999997E+02  0.45594000000E+02  0.51100000000E-03 0.  1.
         23    2    1    2    0    0 -0.88817841970E-15  0.00000000000E+00  0.00000000000E+00  0.91188000000E+02  0.91188000000E+02 0.  0.
    9900012    2    3    3    0    0 -0.50193491373E+01 -0.21518226381E+02  0.37355003706E+02  0.47787259980E+02  0.19999949554E+02 0.  0.
        -12    1    3    3    0    0  0.50193491373E+01  0.21518226381E+02 -0.37355003706E+02  0.43400740020E+02  0.00000000000E+00 0.  1.
         11    1    4    4    0    0  0.45759650917E+01 -0.13105033064E+02  0.25460860266E+02  0.28998909529E+02  0.51100000000E-03 0. -1.
        -11    1    4    4    0    0 -0.64629679864E+01 -0.17460389116E+01  0.32829172242E+01  0.74562827760E+01  0.51100000000E-03 0.  1.
        -12    1    4    4    0    0 -0.31323462426E+01 -0.66671544057E+01  0.86112262165E+01  0.11332067676E+02  0.00000000000E+00 0.  1.
</event>
<event>
 8    1  0.4798632E-010  0.9118800E+02  0.7816164E-02  0.1184000E+00
        -11   -1    0    0    0    0  0.00000000000E+00  0.00000000000E+00  0.45593999997E+02  0.45594000000E+02  0.51100000000E-03 0. -1.
         11   -1    0    0    0    0 -0.00000000000E+00 -0.00000000000E+00 -0.45593999997E+02  0.45594000000E+02  0.51100000000E-03 0.  1.
         23    2    1    2    0    0  0.00000000000E+00  0.00000000000E+00  0.00000000000E+00  0.91188000000E+02  0.91188000000E+02 0.  0.
    9900012    2    3    3    0    0  0.62534034580E+01 -0.21745268993E+02 -0.37035938623E+02  0.47787279637E+02  0.20000039176E+02 0.  0.
         12    1    3    3    0    0 -0.62534034580E+01  0.21745268993E+02  0.37035938623E+02  0.43400720363E+02  0.00000000000E+00 0. -1.
         11    1    4    4    0    0  0.62199420239E+00 -0.15174072972E+02 -0.10701314047E+02  0.18578414624E+02  0.51100000000E-03 0. -1.
        -11    1    4    4    0    0  0.61194128373E+00 -0.72776132732E+01 -0.12530602431E+02  0.14503590060E+02  0.51100000000E-03 0.  1.
         12    1    4    4    0    0  0.50194679719E+01  0.70641725264E+00 -0.13804022145E+02  0.14705274952E+02  0.00000000000E+00 0. -1.
</event>
<event>
 8    1  0.4798632E-010  0.9118800E+02  0.7816164E-02  0.1184000E+00
        -11   -1    0    0    0    0  0.00000000000E+00  0.00000000000E+00  0.45593999997E+02  0.45594000000E+02  0.51100000000E-03 0. -1.
         11   -1    0    0    0    0 -0.00000000000E+00 -0.00000000000E+00 -0.45593999997E+02  0.45594000000E+02  0.51100000000E-03 0.  1.
         23    2    1    2    0    0  0.00000000000E+00  0.00000000000E+00  0.00000000000E+00  0.91188000000E+02  0.91188000000E+02 0.  0.
    9900012    2    3    3    0    0  0.17374085486E+02  0.33313393263E+02 -0.21725150215E+02  0.47787272253E+02  0.20000005508E+02 0.  0.
         12    1    3    3    0    0 -0.17374085486E+02 -0.33313393263E+02  0.21725150215E+02  0.43400727747E+02  0.00000000000E+00 0. -1.
         11    1    4    4    0    0  0.75886594482E+01  0.13783378996E+02 -0.13617934182E+02  0.20809070628E+02  0.51100000000E-03 0.  1.
        -11    1    4    4    0    0  0.64969814683E+01  0.69134287189E+01  0.28941943096E+01  0.99188016319E+01  0.51100000000E-03 0. -1.
        -12    1    4    4    0    0  0.32884445692E+01  0.12616585548E+02 -0.11001410342E+02  0.17059399992E+02  0.00000000000E+00 0.  1.
</event>
<event>
 8    1  0.4798632E-010  0.9118800E+02  0.7816164E-02  0.1184000E+00
        -11   -1    0    0    0    0  0.00000000000E+00  0.00000000000E+00  0.45593999997E+02  0.45594000000E+02  0.51100000000E-03 0. -1.
         11   -1    0    0    0    0 -0.00000000000E+00 -0.00000000000E+00 -0.45593999997E+02  0.45594000000E+02  0.51100000000E-03 0.  1.
         23    2    1    2    0    0  0.88817841970E-15  0.17763568394E-14  0.00000000000E+00  0.91188000000E+02  0.91188000000E+02 0.  0.
    9900012    2    3    3    0    0  0.46642877125E+01  0.11130568777E+02 -0.41689067394E+02  0.47787268654E+02  0.19999989102E+02 0.  0.
         12    1    3    3    0    0 -0.46642877125E+01 -0.11130568777E+02  0.41689067394E+02  0.43400731346E+02  0.00000000000E+00 0. -1.
         11    1    4    4    0    0  0.18987680576E+01 -0.30587095635E+01 -0.79655747114E+01  0.87413617403E+01  0.51100000000E-03 0. -1.
        -11    1    4    4    0    0  0.43415038149E+01  0.41246421085E+01 -0.24768855266E+02  0.25482494371E+02  0.51100000000E-03 0.  1.
        -12    1    4    4    0    0 -0.15759841601E+01  0.10064636232E+02 -0.89546374163E+01  0.13563412543E+02  0.00000000000E+00 0.  1.
</event>
<event>
 8    1  0.4798632E-010  0.9118800E+02  0.7816164E-02  0.1184000E+00
        -11   -1    0    0    0    0  0.00000000000E+00  0.00000000000E+00  0.45593999997E+02  0.45594000000E+02  0.51100000000E-03 0. -1.
         11   -1    0    0    0    0 -0.00000000000E+00 -0.00000000000E+00 -0.45593999997E+02  0.45594000000E+02  0.51100000000E-03 0.  1.
         23    2    1    2    0    0  0.00000000000E+00  0.00000000000E+00  0.44408920985E-15  0.91188000000E+02  0.91188000000E+02 0.  0.
    9900012    2    3    3    0    0  0.23607515146E+02  0.36252982967E+02  0.34683673056E+01  0.47787272851E+02  0.20000008235E+02 0.  0.
        -12    1    3    3    0    0 -0.23607515146E+02 -0.36252982967E+02 -0.34683673056E+01  0.43400727149E+02  0.00000000000E+00 0.  1.
         11    1    4    4    0    0  0.24239842198E+02  0.29380369580E+02  0.22597050467E+01  0.38156026177E+02  0.51100000000E-03 0. -1.
        -11    1    4    4    0    0 -0.18477756638E+01 -0.59582939697E+00  0.63567428372E+00  0.20428826766E+01  0.51100000000E-03 0.  1.
         12    1    4    4    0    0  0.12154486120E+01  0.74684427832E+01  0.57298797522E+00  0.75883639972E+01  0.00000000000E+00 0. -1.
</event>
<event>
 8    1  0.4872084E-010  0.9118800E+02  0.7816164E-02  0.1184000E+00
        -11   -1    0    0    0    0  0.00000000000E+00  0.00000000000E+00  0.45593999997E+02  0.45594000000E+02  0.51100000000E-03 0. -1.
         11   -1    0    0    0    0 -0.00000000000E+00 -0.00000000000E+00 -0.45593999997E+02  0.45594000000E+02  0.51100000000E-03 0.  1.
         23    2    1    2    0    0 -0.17763568394E-14  0.00000000000E+00  0.00000000000E+00  0.91188000000E+02  0.91188000000E+02 0.  0.
    9900012    2    3    3    0    0 -0.63840072323E+01 -0.80926524468E+01 -0.42158899655E+02  0.47787315765E+02  0.20000203896E+02 0.  0.
         12    1    3    3    0    0  0.63840072323E+01  0.80926524468E+01  0.42158899655E+02  0.43400684235E+02  0.00000000000E+00 0. -1.
         11    1    4    4    0    0 -0.10165393561E+02 -0.32769756463E+01 -0.14688547863E+02  0.18161146280E+02  0.51100000000E-03 0. -1.
        -11    1    4    4    0    0  0.51835087393E+01 -0.11668762702E+01 -0.70115203777E+01  0.87972598773E+01  0.51100000000E-03 0.  1.
        -12    1    4    4    0    0 -0.14021224109E+01 -0.36488005302E+01 -0.20458831415E+02  0.20828909607E+02  0.00000000000E+00 0.  1.
</event>
<event>
 8    1  0.4798632E-010  0.9118800E+02  0.7816164E-02  0.1184000E+00
        -11   -1    0    0    0    0  0.00000000000E+00  0.00000000000E+00  0.45593999997E+02  0.45594000000E+02  0.51100000000E-03 0. -1.
         11   -1    0    0    0    0 -0.00000000000E+00 -0.00000000000E+00 -0.45593999997E+02  0.45594000000E+02  0.51100000000E-03 0.  1.
         23    2    1    2    0    0  0.00000000000E+00  0.00000000000E+00  0.00000000000E+00  0.91188000000E+02  0.91188000000E+02 0.  0.
    9900012    2    3    3    0    0 -0.16779659690E+02 -0.32139753492E+02  0.23855870286E+02  0.47787270963E+02  0.19999999627E+02 0.  0.
        -12    1    3    3    0    0  0.16779659690E+02  0.32139753492E+02 -0.23855870286E+02  0.43400729037E+02  0.00000000000E+00 0.  1.
         11    1    4    4    0    0 -0.12646605359E+02 -0.23582759655E+02  0.20824659581E+02  0.33907958166E+02  0.51100000000E-03 0. -1.
        -11    1    4    4    0    0  0.98404171030E+00  0.13501070022E+01 -0.10863203694E+01  0.19927918133E+01  0.51100000000E-03 0.  1.
         12    1    4    4    0    0 -0.51170960408E+01 -0.99071008401E+01  0.41175310746E+01  0.11886520984E+02  0.00000000000E+00 0. -1.
</event>
<event>
 8    1  0.4798632E-010  0.9118800E+02  0.7816164E-02  0.1184000E+00
        -11   -1    0    0    0    0  0.00000000000E+00  0.00000000000E+00  0.45593999997E+02  0.45594000000E+02  0.51100000000E-03 0. -1.
         11   -1    0    0    0    0 -0.00000000000E+00 -0.00000000000E+00 -0.45593999997E+02  0.45594000000E+02  0.51100000000E-03 0.  1.
         23    2    1    2    0    0  0.00000000000E+00  0.00000000000E+00  0.00000000000E+00  0.91188000000E+02  0.91188000000E+02 0.  0.
    9900012    2    3    3    0    0  0.10889956022E+02  0.34896427493E+02 -0.23393825164E+02  0.47787275931E+02  0.20000022280E+02 0.  0.
         12    1    3    3    0    0 -0.10889956022E+02 -0.34896427493E+02  0.23393825164E+02  0.43400724069E+02  0.00000000000E+00 0. -1.
         11    1    4    4    0    0  0.16112391714E+01  0.17161808424E+01 -0.88109589121E+01  0.91199981120E+01  0.51100000000E-03 0. -1.
        -11    1    4    4    0    0  0.87556078788E+01  0.22836824906E+02 -0.14247961786E+02  0.28305223130E+02  0.51100000000E-03 0.  1.
        -12    1    4    4    0    0  0.52310897202E+00  0.10343421744E+02 -0.33490446537E+00  0.10362054689E+02  0.00000000000E+00 0.  1.
</event>
<event>
 8    1  0.4798632E-010  0.9118800E+02  0.7816164E-02  0.1184000E+00
        -11   -1    0    0    0    0  0.00000000000E+00  0.00000000000E+00  0.45593999997E+02  0.45594000000E+02  0.51100000000E-03 0.  1.
         11   -1    0    0    0    0 -0.00000000000E+00 -0.00000000000E+00 -0.45593999997E+02  0.45594000000E+02  0.51100000000E-03 0. -1.
         23    2    1    2    0    0  0.00000000000E+00 -0.88817841970E-15 -0.71054273576E-14  0.91188000000E+02  0.91188000000E+02 0.  0.
    9900012    2    3    3    0    0 -0.34732103735E+02  0.78642158266E+01  0.24808434081E+02  0.47787270491E+02  0.19999997475E+02 0.  0.
        -12    1    3    3    0    0  0.34732103735E+02 -0.78642158266E+01 -0.24808434081E+02  0.43400729509E+02  0.00000000000E+00 0.  1.
         11    1    4    4    0    0 -0.31675971440E+02  0.60649128788E+01  0.15121597260E+02  0.35620402002E+02  0.51100000000E-03 0. -1.
        -11    1    4    4    0    0  0.16484370396E+01 -0.95554243040E+00  0.27033217298E+01  0.33073183466E+01  0.51100000000E-03 0.  1.
        -12    1    4    4    0    0 -0.47045693350E+01  0.27548453782E+01  0.69835150912E+01  0.88595501417E+01  0.00000000000E+00 0.  1.
</event>
<event>
 8    1  0.4798632E-010  0.9118800E+02  0.7816164E-02  0.1184000E+00
        -11   -1    0    0    0    0  0.00000000000E+00  0.00000000000E+00  0.45593999997E+02  0.45594000000E+02  0.51100000000E-03 0.  1.
         11   -1    0    0    0    0 -0.00000000000E+00 -0.00000000000E+00 -0.45593999997E+02  0.45594000000E+02  0.51100000000E-03 0. -1.
         23    2    1    2    0    0  0.71054273576E-14 -0.14210854715E-13 -0.17763568394E-14  0.91188000000E+02  0.91188000000E+02 0.  0.
    9900012    2    3    3    0    0  0.24656601925E+02 -0.35433672791E+02 -0.44866471463E+01  0.47787272028E+02  0.20000004483E+02 0.  0.
         12    1    3    3    0    0 -0.24656601925E+02  0.35433672791E+02  0.44866471463E+01  0.43400727972E+02  0.00000000000E+00 0. -1.
         11    1    4    4    0    0  0.24062463254E+02 -0.29338942166E+02  0.59183522993E+00  0.37948991218E+02  0.51100000000E-03 0.  1.
        -11    1    4    4    0    0 -0.20897818631E+01 -0.15825494608E+01 -0.13147840999E+00  0.26246786212E+01  0.51100000000E-03 0. -1.
        -12    1    4    4    0    0  0.26839205341E+01 -0.45121811636E+01 -0.49470039662E+01  0.72136021881E+01  0.00000000000E+00 0.  1.
</event>
<event>
 8    1  0.4798632E-010  0.9118800E+02  0.7816164E-02  0.1184000E+00
        -11   -1    0    0    0    0  0.00000000000E+00  0.00000000000E+00  0.45593999997E+02  0.45594000000E+02  0.51100000000E-03 0.  1.
         11   -1    0    0    0    0 -0.00000000000E+00 -0.00000000000E+00 -0.45593999997E+02  0.45594000000E+02  0.51100000000E-03 0. -1.
         23    2    1    2    0    0  0.00000000000E+00  0.35527136788E-14 -0.71054273576E-14  0.91188000000E+02  0.91188000000E+02 0.  0.
    9900012    2    3    3    0    0 -0.15722793702E+02 -0.26623368997E+02  0.30456742728E+02  0.47787271940E+02  0.20000004084E+02 0.  0.
        -12    1    3    3    0    0  0.15722793702E+02  0.26623368997E+02 -0.30456742728E+02  0.43400728060E+02  0.00000000000E+00 0.  1.
         11    1    4    4    0    0 -0.13698869961E+02 -0.13145724783E+02  0.85335846328E+01  0.20815647605E+02  0.51100000000E-03 0. -1.
        -11    1    4    4    0    0  0.21686083343E+01 -0.47343672356E+01  0.39010173900E+01  0.65065376482E+01  0.51100000000E-03 0.  1.
         12    1    4    4    0    0 -0.41925320755E+01 -0.87432769790E+01  0.18022140705E+02  0.20465086687E+02  0.00000000000E+00 0. -1.
</event>
<event>
 8    1  0.4798632E-010  0.9118800E+02  0.7816164E-02  0.1184000E+00
        -11   -1    0    0    0    0  0.00000000000E+00  0.00000000000E+00  0.45593999997E+02  0.45594000000E+02  0.51100000000E-03 0. -1.
         11   -1    0    0    0    0 -0.00000000000E+00 -0.00000000000E+00 -0.45593999997E+02  0.45594000000E+02  0.51100000000E-03 0.  1.
         23    2    1    2    0    0 -0.17763568394E-14  0.00000000000E+00  0.00000000000E+00  0.91188000000E+02  0.91188000000E+02 0.  0.
    9900012    2    3    3    0    0 -0.99094834652E+01  0.92291493143E+01  0.41234099316E+02  0.47787239568E+02  0.19999856488E+02 0.  0.
        -12    1    3    3    0    0  0.99094834652E+01 -0.92291493143E+01 -0.41234099316E+02  0.43400760432E+02  0.00000000000E+00 0.  1.
         11    1    4    4    0    0 -0.56600411272E+00  0.10286966873E+00  0.16178272600E+02  0.16188497380E+02  0.51100000000E-03 0. -1.
        -11    1    4    4    0    0 -0.19674329594E+01 -0.33413974497E+01  0.19827819868E+01  0.43551296232E+01  0.51100000000E-03 0.  1.
        -12    1    4    4    0    0 -0.73760463930E+01  0.12467677095E+02  0.23073044729E+02  0.27243612566E+02  0.00000000000E+00 0.  1.
</event>
<event>
 8    1  0.4798632E-010  0.9118800E+02  0.7816164E-02  0.1184000E+00
        -11   -1    0    0    0    0  0.00000000000E+00  0.00000000000E+00  0.45593999997E+02  0.45594000000E+02  0.51100000000E-03 0. -1.
         11   -1    0    0    0    0 -0.00000000000E+00 -0.00000000000E+00 -0.45593999997E+02  0.45594000000E+02  0.51100000000E-03 0.  1.
         23    2    1    2    0    0  0.00000000000E+00  0.00000000000E+00 -0.71054273576E-14  0.91188000000E+02  0.91188000000E+02 0.  0.
    9900012    2    3    3    0    0 -0.20508315302E+02 -0.19929238026E+02 -0.32647468939E+02  0.47787277046E+02  0.20000027362E+02 0.  0.
         12    1    3    3    0    0  0.20508315302E+02  0.19929238026E+02  0.32647468939E+02  0.43400722954E+02  0.00000000000E+00 0. -1.
         11    1    4    4    0    0 -0.82755344887E+01 -0.96075104086E+01 -0.51540052087E+01  0.13687676840E+02  0.51100000000E-03 0. -1.
        -11    1    4    4    0    0 -0.49008414393E+01  0.20236904234E+01 -0.11138156302E+02  0.12335805439E+02  0.51100000000E-03 0.  1.
        -12    1    4    4    0    0 -0.73319393740E+01 -0.12345418041E+02 -0.16355307428E+02  0.21763794767E+02  0.00000000000E+00 0.  1.
</event>
<event>
 8    1  0.4798632E-010  0.9118800E+02  0.7816164E-02  0.1184000E+00
        -11   -1    0    0    0    0  0.00000000000E+00  0.00000000000E+00  0.45593999997E+02  0.45594000000E+02  0.51100000000E-03 0. -1.
         11   -1    0    0    0    0 -0.00000000000E+00 -0.00000000000E+00 -0.45593999997E+02  0.45594000000E+02  0.51100000000E-03 0.  1.
         23    2    1    2    0    0  0.71054273576E-14  0.17763568394E-14  0.00000000000E+00  0.91188000000E+02  0.91188000000E+02 0.  0.
    9900012    2    3    3    0    0 -0.35184084291E+02  0.13527660544E+02 -0.21510600493E+02  0.47787270505E+02  0.19999997538E+02 0.  0.
         12    1    3    3    0    0  0.35184084291E+02 -0.13527660544E+02  0.21510600493E+02  0.43400729495E+02  0.00000000000E+00 0. -1.
         11    1    4    4    0    0 -0.14043780149E+02  0.11452443297E+02 -0.14319589898E+02  0.23096252368E+02  0.51100000000E-03 0. -1.
        -11    1    4    4    0    0 -0.17576800931E+02 -0.16674390571E+01 -0.81316621776E+01  0.19438318189E+02  0.51100000000E-03 0.  1.
        -12    1    4    4    0    0 -0.35635032114E+01  0.37426563033E+01  0.94065158256E+00  0.52526999478E+01  0.00000000000E+00 0.  1.
</event>
<event>
 8    1  0.4798632E-010  0.9118800E+02  0.7816164E-02  0.1184000E+00
        -11   -1    0    0    0    0  0.00000000000E+00  0.00000000000E+00  0.45593999997E+02  0.45594000000E+02  0.51100000000E-03 0. -1.
         11   -1    0    0    0    0 -0.00000000000E+00 -0.00000000000E+00 -0.45593999997E+02  0.45594000000E+02  0.51100000000E-03 0.  1.
         23    2    1    2    0    0 -0.71054273576E-14 -0.17763568394E-14 -0.35527136788E-14  0.91188000000E+02  0.91188000000E+02 0.  0.
    9900012    2    3    3    0    0  0.36969013202E+02  0.76186862799E+01  0.21421288101E+02  0.47787263812E+02  0.19999967023E+02 0.  0.
        -12    1    3    3    0    0 -0.36969013202E+02 -0.76186862799E+01 -0.21421288101E+02  0.43400736188E+02  0.00000000000E+00 0.  1.
         11    1    4    4    0    0  0.80033378088E+00  0.25500191917E+01 -0.19855544320E+01  0.33294982659E+01  0.51100000000E-03 0. -1.
        -11    1    4    4    0    0  0.27107240567E+02  0.34312028198E+01  0.22130455161E+02  0.35161522860E+02  0.51100000000E-03 0.  1.
         12    1    4    4    0    0  0.90614388546E+01  0.16374642684E+01  0.12763873717E+01  0.92962426855E+01  0.00000000000E+00 0. -1.
</event>
<event>
 8    1  0.4798632E-010  0.9118800E+02  0.7816164E-02  0.1184000E+00
        -11   -1    0    0    0    0  0.00000000000E+00  0.00000000000E+00  0.45593999997E+02  0.45594000000E+02  0.51100000000E-03 0. -1.
         11   -1    0    0    0    0 -0.00000000000E+00 -0.00000000000E+00 -0.45593999997E+02  0.45594000000E+02  0.51100000000E-03 0.  1.
         23    2    1    2    0    0  0.00000000000E+00  0.17763568394E-14  0.00000000000E+00  0.91188000000E+02  0.91188000000E+02 0.  0.
    9900012    2    3    3    0    0 -0.13546331645E+02 -0.15502537001E+02  0.38207222799E+02  0.47787266959E+02  0.19999981371E+02 0.  0.
        -12    1    3    3    0    0  0.13546331645E+02  0.15502537001E+02 -0.38207222799E+02  0.43400733041E+02  0.00000000000E+00 0.  1.
         11    1    4    4    0    0 -0.65945060719E+01  0.71803788391E+00  0.21112359604E+02  0.22129952938E+02  0.51100000000E-03 0. -1.
        -11    1    4    4    0    0  0.32113139643E+00 -0.81589685566E+01  0.87115675288E+01  0.11939987536E+02  0.51100000000E-03 0.  1.
         12    1    4    4    0    0 -0.72729569692E+01 -0.80616063280E+01  0.83832956668E+01  0.13717326485E+02  0.00000000000E+00 0. -1.
</event>
<event>
 8    1  0.4798632E-010  0.9118800E+02  0.7816164E-02  0.1184000E+00
        -11   -1    0    0    0    0  0.00000000000E+00  0.00000000000E+00  0.45593999997E+02  0.45594000000E+02  0.51100000000E-03 0.  1.
         11   -1    0    0    0    0 -0.00000000000E+00 -0.00000000000E+00 -0.45593999997E+02  0.45594000000E+02  0.51100000000E-03 0. -1.
         23    2    1    2    0    0 -0.35527136788E-14  0.00000000000E+00 -0.17763568394E-14  0.91188000000E+02  0.91188000000E+02 0.  0.
    9900012    2    3    3    0    0 -0.31519946497E+02 -0.25896994475E+02 -0.14814245452E+02  0.47787271684E+02  0.20000002918E+02 0.  0.
         12    1    3    3    0    0  0.31519946497E+02  0.25896994475E+02  0.14814245452E+02  0.43400728316E+02  0.00000000000E+00 0. -1.
         11    1    4    4    0    0 -0.23362821057E+02 -0.10838718571E+02 -0.13804566629E+02  0.29220973428E+02  0.51100000000E-03 0. -1.
        -11    1    4    4    0    0 -0.92176467889E+01 -0.11048640778E+02 -0.65630992638E+00  0.14403757092E+02  0.51100000000E-03 0.  1.
         12    1    4    4    0    0  0.10605213492E+01 -0.40096351254E+01 -0.35336889687E+00  0.41625411647E+01  0.00000000000E+00 0. -1.
</event>
<event>
 8    1  0.4798632E-010  0.9118800E+02  0.7816164E-02  0.1184000E+00
        -11   -1    0    0    0    0  0.00000000000E+00  0.00000000000E+00  0.45593999997E+02  0.45594000000E+02  0.51100000000E-03 0. -1.
         11   -1    0    0    0    0 -0.00000000000E+00 -0.00000000000E+00 -0.45593999997E+02  0.45594000000E+02  0.51100000000E-03 0.  1.
         23    2    1    2    0    0  0.00000000000E+00 -0.11379786002E-14  0.00000000000E+00  0.91188000000E+02  0.91188000000E+02 0.  0.
    9900012    2    3    3    0    0 -0.33439147994E+02  0.16280220476E+00  0.27666221577E+02  0.47787274897E+02  0.20000017564E+02 0.  0.
        -12    1    3    3    0    0  0.33439147994E+02 -0.16280220476E+00 -0.27666221577E+02  0.43400725103E+02  0.00000000000E+00 0.  1.
         11    1    4    4    0    0 -0.31910878696E+01 -0.22426722590E+01 -0.75067793728E-01  0.39010583292E+01  0.51100000000E-03 0. -1.
        -11    1    4    4    0    0 -0.16052356292E+01  0.46396827841E+01  0.65535202778E+01  0.81885325948E+01  0.51100000000E-03 0.  1.
        -12    1    4    4    0    0 -0.28642824495E+02 -0.22342083204E+01  0.21187769093E+02  0.35697683973E+02  0.00000000000E+00 0.  1.
</event>
<event>
 8    1  0.4798632E-010  0.9118800E+02  0.7816164E-02  0.1184000E+00
        -11   -1    0    0    0    0  0.00000000000E+00  0.00000000000E+00  0.45593999997E+02  0.45594000000E+02  0.51100000000E-03 0. -1.
         11   -1    0    0    0    0 -0.00000000000E+00 -0.00000000000E+00 -0.45593999997E+02  0.45594000000E+02  0.51100000000E-03 0.  1.
         23    2    1    2    0    0  0.17763568394E-14  0.44408920985E-15  0.00000000000E+00  0.91188000000E+02  0.91188000000E+02 0.  0.
    9900012    2    3    3    0    0  0.96979336787E+01  0.31000993398E+01  0.42189597132E+02  0.47787278350E+02  0.20000033309E+02 0.  0.
        -12    1    3    3    0    0 -0.96979336787E+01 -0.31000993398E+01 -0.42189597132E+02  0.43400721650E+02  0.00000000000E+00 0.  1.
         11    1    4    4    0    0  0.58170150923E+01  0.60970375261E+01  0.79711231253E+01  0.11599583411E+02  0.51100000000E-03 0. -1.
        -11    1    4    4    0    0 -0.14804674651E+01 -0.10708057342E+01  0.26661122260E+02  0.26723657109E+02  0.51100000000E-03 0.  1.
        -12    1    4    4    0    0  0.53613860515E+01 -0.19261324521E+01  0.75573517469E+01  0.94640378298E+01  0.00000000000E+00 0.  1.
</event>
<event>
 8    1  0.5129122E-010  0.9118800E+02  0.7816164E-02  0.1184000E+00
        -11   -1    0    0    0    0  0.00000000000E+00  0.00000000000E+00  0.45593999997E+02  0.45594000000E+02  0.51100000000E-03 0. -1.
         11   -1    0    0    0    0 -0.00000000000E+00 -0.00000000000E+00 -0.45593999997E+02  0.45594000000E+02  0.51100000000E-03 0.  1.
         23    2    1    2    0    0  0.00000000000E+00  0.00000000000E+00  0.00000000000E+00  0.91188000000E+02  0.91188000000E+02 0.  0.
    9900012    2    3    3    0    0  0.42927906816E+01  0.20799952796E+02  0.37849138518E+02  0.47787269882E+02  0.19999994701E+02 0.  0.
        -12    1    3    3    0    0 -0.42927906816E+01 -0.20799952796E+02 -0.37849138518E+02  0.43400730118E+02  0.00000000000E+00 0.  1.
         11    1    4    4    0    0 -0.12333584881E+01  0.11225565018E+02  0.25560154094E+02  0.27943800040E+02  0.51100000000E-03 0. -1.
        -11    1    4    4    0    0  0.43484866630E+01 -0.46063224858E+00  0.63392816177E+00  0.44185273001E+01  0.51100000000E-03 0.  1.
        -12    1    4    4    0    0  0.11776625067E+01  0.10035020027E+02  0.11655056263E+02  0.15424942542E+02  0.00000000000E+00 0.  1.
</event>
<event>
 8    1  0.4798632E-010  0.9118800E+02  0.7816164E-02  0.1184000E+00
        -11   -1    0    0    0    0  0.00000000000E+00  0.00000000000E+00  0.45593999997E+02  0.45594000000E+02  0.51100000000E-03 0. -1.
         11   -1    0    0    0    0 -0.00000000000E+00 -0.00000000000E+00 -0.45593999997E+02  0.45594000000E+02  0.51100000000E-03 0.  1.
         23    2    1    2    0    0  0.71054273576E-14  0.00000000000E+00  0.71054273576E-14  0.91188000000E+02  0.91188000000E+02 0.  0.
    9900012    2    3    3    0    0 -0.19596605750E+02  0.17956359147E+01  0.38682968050E+02  0.47787270946E+02  0.19999999551E+02 0.  0.
        -12    1    3    3    0    0  0.19596605750E+02 -0.17956359147E+01 -0.38682968050E+02  0.43400729054E+02  0.00000000000E+00 0.  1.
         11    1    4    4    0    0 -0.15648038808E+02  0.60258929421E+01  0.27274297010E+02  0.32016554811E+02  0.51100000000E-03 0. -1.
        -11    1    4    4    0    0  0.25165259921E+01 -0.28771566474E+01  0.21138148890E+01  0.43679683022E+01  0.51100000000E-03 0.  1.
        -12    1    4    4    0    0 -0.64650929332E+01 -0.13531003800E+01  0.92948561509E+01  0.11402747833E+02  0.00000000000E+00 0.  1.
</event>
<event>
 8    1  0.4798632E-010  0.9118800E+02  0.7816164E-02  0.1184000E+00
        -11   -1    0    0    0    0  0.00000000000E+00  0.00000000000E+00  0.45593999997E+02  0.45594000000E+02  0.51100000000E-03 0. -1.
         11   -1    0    0    0    0 -0.00000000000E+00 -0.00000000000E+00 -0.45593999997E+02  0.45594000000E+02  0.51100000000E-03 0.  1.
         23    2    1    2    0    0  0.00000000000E+00 -0.88817841970E-15  0.00000000000E+00  0.91188000000E+02  0.91188000000E+02 0.  0.
    9900012    2    3    3    0    0  0.14576104398E+02  0.63642696163E+01 -0.40381384385E+02  0.47787274752E+02  0.20000016906E+02 0.  0.
         12    1    3    3    0    0 -0.14576104398E+02 -0.63642696163E+01  0.40381384385E+02  0.43400725248E+02  0.00000000000E+00 0. -1.
         11    1    4    4    0    0  0.23162203151E+01 -0.15157907313E+01 -0.17807897822E+01  0.32914602532E+01  0.51100000000E-03 0. -1.
        -11    1    4    4    0    0  0.68017060379E+01 -0.37438881984E+01 -0.72732659036E+01  0.10638623080E+02  0.51100000000E-03 0.  1.
        -12    1    4    4    0    0  0.54581780452E+01  0.11623948546E+02 -0.31327328699E+02  0.33857191419E+02  0.00000000000E+00 0.  1.
</event>
<event>
 8    1  0.4798632E-010  0.9118800E+02  0.7816164E-02  0.1184000E+00
        -11   -1    0    0    0    0  0.00000000000E+00  0.00000000000E+00  0.45593999997E+02  0.45594000000E+02  0.51100000000E-03 0. -1.
         11   -1    0    0    0    0 -0.00000000000E+00 -0.00000000000E+00 -0.45593999997E+02  0.45594000000E+02  0.51100000000E-03 0.  1.
         23    2    1    2    0    0  0.00000000000E+00  0.55511151231E-16  0.35527136788E-14  0.91188000000E+02  0.91188000000E+02 0.  0.
    9900012    2    3    3    0    0  0.31790996387E+02  0.45913260096E+00 -0.29542257143E+02  0.47787271768E+02  0.20000003297E+02 0.  0.
         12    1    3    3    0    0 -0.31790996387E+02 -0.45913260096E+00  0.29542257143E+02  0.43400728232E+02  0.00000000000E+00 0. -1.
         11    1    4    4    0    0  0.52254824808E+01  0.19146337508E+00  0.25845650643E+01  0.58328639804E+01  0.51100000000E-03 0. -1.
        -11    1    4    4    0    0  0.22623521764E+02  0.78591838291E+00 -0.24523511250E+02  0.33374301625E+02  0.51100000000E-03 0.  1.
        -12    1    4    4    0    0  0.39419921428E+01 -0.51824915703E+00 -0.76033109567E+01  0.85801061618E+01  0.00000000000E+00 0.  1.
</event>
<event>
 8    1  0.4798632E-010  0.9118800E+02  0.7816164E-02  0.1184000E+00
        -11   -1    0    0    0    0  0.00000000000E+00  0.00000000000E+00  0.45593999997E+02  0.45594000000E+02  0.51100000000E-03 0.  1.
         11   -1    0    0    0    0 -0.00000000000E+00 -0.00000000000E+00 -0.45593999997E+02  0.45594000000E+02  0.51100000000E-03 0. -1.
         23    2    1    2    0    0  0.00000000000E+00  0.00000000000E+00  0.00000000000E+00  0.91188000000E+02  0.91188000000E+02 0.  0.
    9900012    2    3    3    0    0 -0.66768498766E+01  0.28954683761E+02  0.31633355862E+02  0.47787271445E+02  0.20000001827E+02 0.  0.
        -12    1    3    3    0    0  0.66768498766E+01 -0.28954683761E+02 -0.31633355862E+02  0.43400728555E+02  0.00000000000E+00 0.  1.
         11    1    4    4    0    0 -0.10265190290E+02  0.14518601010E+02  0.17746691247E+02  0.25121882044E+02  0.51100000000E-03 0. -1.
        -11    1    4    4    0    0  0.58981850387E+01  0.40629028460E+01  0.43046120351E+01  0.83561624758E+01  0.51100000000E-03 0.  1.
         12    1    4    4    0    0 -0.23098446251E+01  0.10373179905E+02  0.95820525804E+01  0.14309226925E+02  0.00000000000E+00 0. -1.
</event>
<event>
 8    1  0.4798632E-010  0.9118800E+02  0.7816164E-02  0.1184000E+00
        -11   -1    0    0    0    0  0.00000000000E+00  0.00000000000E+00  0.45593999997E+02  0.45594000000E+02  0.51100000000E-03 0.  1.
         11   -1    0    0    0    0 -0.00000000000E+00 -0.00000000000E+00 -0.45593999997E+02  0.45594000000E+02  0.51100000000E-03 0. -1.
         23    2    1    2    0    0  0.00000000000E+00  0.00000000000E+00  0.00000000000E+00  0.91188000000E+02  0.91188000000E+02 0.  0.
    9900012    2    3    3    0    0 -0.38405359403E+02  0.44992449198E+01 -0.19708074657E+02  0.47787273711E+02  0.20000012158E+02 0.  0.
        -12    1    3    3    0    0  0.38405359403E+02 -0.44992449198E+01  0.19708074657E+02  0.43400726289E+02  0.00000000000E+00 0.  1.
         11    1    4    4    0    0 -0.31176012642E+02 -0.26411440577E+00 -0.13687436015E+02  0.34049367477E+02  0.51100000000E-03 0. -1.
        -11    1    4    4    0    0 -0.62358675363E+01  0.62895262876E+01 -0.16583653085E+01  0.90107913420E+01  0.51100000000E-03 0.  1.
         12    1    4    4    0    0 -0.99347922516E+00 -0.15261669620E+01 -0.43622733339E+01  0.47271148924E+01  0.00000000000E+00 0. -1.
</event>
<event>
 8    1  0.4798632E-010  0.9118800E+02  0.7816164E-02  0.1184000E+00
        -11   -1    0    0    0    0  0.00000000000E+00  0.00000000000E+00  0.45593999997E+02  0.45594000000E+02  0.51100000000E-03 0. -1.
         11   -1    0    0    0    0 -0.00000000000E+00 -0.00000000000E+00 -0.45593999997E+02  0.45594000000E+02  0.51100000000E-03 0.  1.
         23    2    1    2    0    0  0.00000000000E+00  0.00000000000E+00  0.00000000000E+00  0.91188000000E+02  0.91188000000E+02 0.  0.
    9900012    2    3    3    0    0  0.32328209743E+02 -0.14996667491E+02 -0.24771129019E+02  0.47787285560E+02  0.20000066181E+02 0.  0.
         12    1    3    3    0    0 -0.32328209743E+02  0.14996667491E+02  0.24771129019E+02  0.43400714440E+02  0.00000000000E+00 0. -1.
         11    1    4    4    0    0 -0.20165689934E+01 -0.24647195461E+01 -0.39355519651E+00  0.32087815289E+01  0.51100000000E-03 0. -1.
        -11    1    4    4    0    0  0.21269900904E+02 -0.42389061288E+01 -0.12229901236E+02  0.24898744831E+02  0.51100000000E-03 0.  1.
         12    1    4    4    0    0  0.13074877833E+02 -0.82930418159E+01 -0.12147672587E+02  0.19679759200E+02  0.00000000000E+00 0. -1.
</event>
<event>
 8    1  0.4798632E-010  0.9118800E+02  0.7816164E-02  0.1184000E+00
        -11   -1    0    0    0    0  0.00000000000E+00  0.00000000000E+00  0.45593999997E+02  0.45594000000E+02  0.51100000000E-03 0. -1.
         11   -1    0    0    0    0 -0.00000000000E+00 -0.00000000000E+00 -0.45593999997E+02  0.45594000000E+02  0.51100000000E-03 0.  1.
         23    2    1    2    0    0  0.00000000000E+00  0.00000000000E+00  0.00000000000E+00  0.91188000000E+02  0.91188000000E+02 0.  0.
    9900012    2    3    3    0    0 -0.13910237264E+02  0.39419586365E+02 -0.11671537884E+02  0.47787270899E+02  0.19999999336E+02 0.  0.
         12    1    3    3    0    0  0.13910237264E+02 -0.39419586365E+02  0.11671537884E+02  0.43400729101E+02  0.00000000000E+00 0. -1.
         11    1    4    4    0    0 -0.67277310001E+01  0.29283650478E+01 -0.16707436216E+00  0.73393187945E+01  0.51100000000E-03 0. -1.
        -11    1    4    4    0    0 -0.64874162063E+01  0.32059485456E+02 -0.13689209074E+02  0.35458308224E+02  0.51100000000E-03 0.  1.
        -12    1    4    4    0    0 -0.69509005790E+00  0.44317358610E+01  0.21847455520E+01  0.49896438808E+01  0.00000000000E+00 0.  1.
</event>
<event>
 8    1  0.4798632E-010  0.9118800E+02  0.7816164E-02  0.1184000E+00
        -11   -1    0    0    0    0  0.00000000000E+00  0.00000000000E+00  0.45593999997E+02  0.45594000000E+02  0.51100000000E-03 0.  1.
         11   -1    0    0    0    0 -0.00000000000E+00 -0.00000000000E+00 -0.45593999997E+02  0.45594000000E+02  0.51100000000E-03 0. -1.
         23    2    1    2    0    0  0.00000000000E+00  0.00000000000E+00  0.00000000000E+00  0.91188000000E+02  0.91188000000E+02 0.  0.
    9900012    2    3    3    0    0 -0.20078204853E+02  0.29288052818E+02 -0.24953984831E+02  0.47787243014E+02  0.19999872197E+02 0.  0.
         12    1    3    3    0    0  0.20078204853E+02 -0.29288052818E+02  0.24953984831E+02  0.43400756986E+02  0.00000000000E+00 0. -1.
         11    1    4    4    0    0 -0.61036038084E+01  0.16228126349E+01 -0.56532963516E+01  0.84762763168E+01  0.51100000000E-03 0. -1.
        -11    1    4    4    0    0 -0.23881507622E+00  0.52411735967E+00  0.20614305457E+01  0.21403802940E+01  0.51100000000E-03 0.  1.
        -12    1    4    4    0    0 -0.13735785969E+02  0.27141122823E+02 -0.21362119025E+02  0.37170586403E+02  0.00000000000E+00 0.  1.
</event>
<event>
 8    1  0.4798632E-010  0.9118800E+02  0.7816164E-02  0.1184000E+00
        -11   -1    0    0    0    0  0.00000000000E+00  0.00000000000E+00  0.45593999997E+02  0.45594000000E+02  0.51100000000E-03 0. -1.
         11   -1    0    0    0    0 -0.00000000000E+00 -0.00000000000E+00 -0.45593999997E+02  0.45594000000E+02  0.51100000000E-03 0.  1.
         23    2    1    2    0    0  0.00000000000E+00  0.00000000000E+00 -0.14210854715E-13  0.91188000000E+02  0.91188000000E+02 0.  0.
    9900012    2    3    3    0    0  0.57451471562E+01  0.60378190225E+01 -0.42592981183E+02  0.47787262444E+02  0.19999960786E+02 0.  0.
         12    1    3    3    0    0 -0.57451471562E+01 -0.60378190225E+01  0.42592981183E+02  0.43400737556E+02  0.00000000000E+00 0. -1.
         11    1    4    4    0    0 -0.17107573330E+01  0.78269521510E+01 -0.23753760582E+02  0.25068486446E+02  0.51100000000E-03 0. -1.
        -11    1    4    4    0    0  0.64930686413E+01  0.25844136022E+01 -0.63189046553E+01  0.94216607003E+01  0.51100000000E-03 0.  1.
        -12    1    4    4    0    0  0.96283584792E+00 -0.43735467307E+01 -0.12520315945E+02  0.13297115298E+02  0.00000000000E+00 0.  1.
</event>
<event>
 8    1  0.4798632E-010  0.9118800E+02  0.7816164E-02  0.1184000E+00
        -11   -1    0    0    0    0  0.00000000000E+00  0.00000000000E+00  0.45593999997E+02  0.45594000000E+02  0.51100000000E-03 0. -1.
         11   -1    0    0    0    0 -0.00000000000E+00 -0.00000000000E+00 -0.45593999997E+02  0.45594000000E+02  0.51100000000E-03 0.  1.
         23    2    1    2    0    0  0.17763568394E-14  0.00000000000E+00  0.00000000000E+00  0.91188000000E+02  0.91188000000E+02 0.  0.
    9900012    2    3    3    0    0  0.15753783230E+02  0.38914025369E+02 -0.11006366547E+02  0.47787272344E+02  0.20000005925E+02 0.  0.
         12    1    3    3    0    0 -0.15753783230E+02 -0.38914025369E+02  0.11006366547E+02  0.43400727656E+02  0.00000000000E+00 0. -1.
         11    1    4    4    0    0  0.25073690250E+01  0.25374978050E+02 -0.59752888462E+01  0.26189320104E+02  0.51100000000E-03 0. -1.
        -11    1    4    4    0    0  0.76417406201E+01  0.13349443359E+02 -0.33365149961E+01  0.15739636917E+02  0.51100000000E-03 0.  1.
         12    1    4    4    0    0  0.56046735852E+01  0.18960396018E+00 -0.16945627050E+01  0.58583153226E+01  0.00000000000E+00 0. -1.
</event>
<event>
 8    1  0.4798632E-010  0.9118800E+02  0.7816164E-02  0.1184000E+00
        -11   -1    0    0    0    0  0.00000000000E+00  0.00000000000E+00  0.45593999997E+02  0.45594000000E+02  0.51100000000E-03 0. -1.
         11   -1    0    0    0    0 -0.00000000000E+00 -0.00000000000E+00 -0.45593999997E+02  0.45594000000E+02  0.51100000000E-03 0.  1.
         23    2    1    2    0    0  0.00000000000E+00  0.00000000000E+00  0.00000000000E+00  0.91188000000E+02  0.91188000000E+02 0.  0.
    9900012    2    3    3    0    0  0.17283101118E+02  0.32636381910E+02  0.22798776363E+02  0.47787271757E+02  0.20000003248E+02 0.  0.
        -12    1    3    3    0    0 -0.17283101118E+02 -0.32636381910E+02 -0.22798776363E+02  0.43400728243E+02  0.00000000000E+00 0.  1.
         11    1    4    4    0    0  0.82455603234E+01  0.19223678205E+02  0.43763086447E+01  0.21370333324E+02  0.51100000000E-03 0. -1.
        -11    1    4    4    0    0  0.18176703112E+01 -0.20121578501E-01  0.73490050348E+01  0.75704825144E+01  0.51100000000E-03 0.  1.
         12    1    4    4    0    0  0.72198704834E+01  0.13432825284E+02  0.11073462683E+02  0.18846455919E+02  0.00000000000E+00 0. -1.
</event>
<event>
 8    1  0.4798632E-010  0.9118800E+02  0.7816164E-02  0.1184000E+00
        -11   -1    0    0    0    0  0.00000000000E+00  0.00000000000E+00  0.45593999997E+02  0.45594000000E+02  0.51100000000E-03 0. -1.
         11   -1    0    0    0    0 -0.00000000000E+00 -0.00000000000E+00 -0.45593999997E+02  0.45594000000E+02  0.51100000000E-03 0.  1.
         23    2    1    2    0    0  0.35527136788E-14  0.00000000000E+00 -0.35527136788E-14  0.91188000000E+02  0.91188000000E+02 0.  0.
    9900012    2    3    3    0    0  0.30871409366E+02  0.47956448173E+01 -0.30126081538E+02  0.47787275187E+02  0.20000018887E+02 0.  0.
         12    1    3    3    0    0 -0.30871409366E+02 -0.47956448173E+01  0.30126081538E+02  0.43400724813E+02  0.00000000000E+00 0. -1.
         11    1    4    4    0    0  0.16107389574E+02 -0.40344723153E+00 -0.24645188644E+02  0.29444797369E+02  0.51100000000E-03 0. -1.
        -11    1    4    4    0    0  0.94072539739E+01  0.66240855965E+01 -0.56048726420E+01  0.12798028556E+02  0.51100000000E-03 0.  1.
         12    1    4    4    0    0  0.53567658188E+01 -0.14249935476E+01  0.12397974768E+00  0.55444492627E+01  0.00000000000E+00 0. -1.
</event>
<event>
 8    1  0.4798632E-010  0.9118800E+02  0.7816164E-02  0.1184000E+00
        -11   -1    0    0    0    0  0.00000000000E+00  0.00000000000E+00  0.45593999997E+02  0.45594000000E+02  0.51100000000E-03 0. -1.
         11   -1    0    0    0    0 -0.00000000000E+00 -0.00000000000E+00 -0.45593999997E+02  0.45594000000E+02  0.51100000000E-03 0.  1.
         23    2    1    2    0    0  0.11102230246E-15  0.35527136788E-14  0.35527136788E-14  0.91188000000E+02  0.91188000000E+02 0.  0.
    9900012    2    3    3    0    0 -0.74582253394E+00 -0.31037861472E+02  0.30326856056E+02  0.47787270809E+02  0.19999998929E+02 0.  0.
        -12    1    3    3    0    0  0.74582253394E+00  0.31037861472E+02 -0.30326856056E+02  0.43400729191E+02  0.00000000000E+00 0.  1.
         11    1    4    4    0    0 -0.91369501807E+00  0.37107411742E+00  0.71337850543E+01  0.72016264863E+01  0.51100000000E-03 0.  1.
        -11    1    4    4    0    0  0.65145547359E+00 -0.28141234759E+02  0.24211595869E+02  0.37128895253E+02  0.51100000000E-03 0. -1.
         12    1    4    4    0    0 -0.48358298946E+00 -0.32677008307E+01 -0.10185248665E+01  0.34567490697E+01  0.00000000000E+00 0. -1.
</event>
<event>
 8    1  0.4798632E-010  0.9118800E+02  0.7816164E-02  0.1184000E+00
        -11   -1    0    0    0    0  0.00000000000E+00  0.00000000000E+00  0.45593999997E+02  0.45594000000E+02  0.51100000000E-03 0.  1.
         11   -1    0    0    0    0 -0.00000000000E+00 -0.00000000000E+00 -0.45593999997E+02  0.45594000000E+02  0.51100000000E-03 0. -1.
         23    2    1    2    0    0  0.35527136788E-14  0.00000000000E+00  0.00000000000E+00  0.91188000000E+02  0.91188000000E+02 0.  0.
    9900012    2    3    3    0    0  0.21780860128E+02  0.33953636337E+02 -0.16011497926E+02  0.47787270118E+02  0.19999995778E+02 0.  0.
        -12    1    3    3    0    0 -0.21780860128E+02 -0.33953636337E+02  0.16011497926E+02  0.43400729882E+02  0.00000000000E+00 0.  1.
         11    1    4    4    0    0  0.87391967996E+01  0.76950119795E+01 -0.20026162978E+01  0.11815127691E+02  0.51100000000E-03 0. -1.
        -11    1    4    4    0    0  0.36516284182E+01  0.20662961566E+02 -0.13656031676E+02  0.25035566144E+02  0.51100000000E-03 0.  1.
        -12    1    4    4    0    0  0.93900349106E+01  0.55956627914E+01 -0.35284995240E+00  0.10936576283E+02  0.00000000000E+00 0.  1.
</event>
<event>
 8    1  0.4798632E-010  0.9118800E+02  0.7816164E-02  0.1184000E+00
        -11   -1    0    0    0    0  0.00000000000E+00  0.00000000000E+00  0.45593999997E+02  0.45594000000E+02  0.51100000000E-03 0. -1.
         11   -1    0    0    0    0 -0.00000000000E+00 -0.00000000000E+00 -0.45593999997E+02  0.45594000000E+02  0.51100000000E-03 0.  1.
         23    2    1    2    0    0  0.35527136788E-14  0.17763568394E-14  0.00000000000E+00  0.91188000000E+02  0.91188000000E+02 0.  0.
    9900012    2    3    3    0    0 -0.20389843904E+02 -0.13268516248E+02  0.35941945072E+02  0.47787277962E+02  0.20000031539E+02 0.  0.
        -12    1    3    3    0    0  0.20389843904E+02  0.13268516248E+02 -0.35941945072E+02  0.43400722038E+02  0.00000000000E+00 0.  1.
         11    1    4    4    0    0 -0.19754988073E+02 -0.13464731637E+02  0.27396107009E+02  0.36360764999E+02  0.51100000000E-03 0. -1.
        -11    1    4    4    0    0  0.37883903856E-01  0.34021294423E+01  0.70445293046E+01  0.78231268248E+01  0.51100000000E-03 0.  1.
        -12    1    4    4    0    0 -0.67273973576E+00 -0.32059140536E+01  0.15013087584E+01  0.36033861380E+01  0.00000000000E+00 0.  1.
</event>
<event>
 8    1  0.4798632E-010  0.9118800E+02  0.7816164E-02  0.1184000E+00
        -11   -1    0    0    0    0  0.00000000000E+00  0.00000000000E+00  0.45593999997E+02  0.45594000000E+02  0.51100000000E-03 0.  1.
         11   -1    0    0    0    0 -0.00000000000E+00 -0.00000000000E+00 -0.45593999997E+02  0.45594000000E+02  0.51100000000E-03 0. -1.
         23    2    1    2    0    0  0.00000000000E+00  0.00000000000E+00  0.00000000000E+00  0.91188000000E+02  0.91188000000E+02 0.  0.
    9900012    2    3    3    0    0 -0.11399378352E+02 -0.37796071647E+02  0.18031494541E+02  0.47787266664E+02  0.19999980027E+02 0.  0.
        -12    1    3    3    0    0  0.11399378352E+02  0.37796071647E+02 -0.18031494541E+02  0.43400733336E+02  0.00000000000E+00 0.  1.
         11    1    4    4    0    0 -0.36662319385E+01 -0.10219135025E+02  0.60824914857E+01  0.12444624551E+02  0.51100000000E-03 0. -1.
        -11    1    4    4    0    0 -0.95623470403E+01 -0.29210379329E+02  0.11660879080E+02  0.32873406313E+02  0.51100000000E-03 0.  1.
        -12    1    4    4    0    0  0.18292006270E+01  0.16334427066E+01  0.28812397564E+00  0.24692357998E+01  0.00000000000E+00 0.  1.
</event>
<event>
 8    1  0.4798632E-010  0.9118800E+02  0.7816164E-02  0.1184000E+00
        -11   -1    0    0    0    0  0.00000000000E+00  0.00000000000E+00  0.45593999997E+02  0.45594000000E+02  0.51100000000E-03 0. -1.
         11   -1    0    0    0    0 -0.00000000000E+00 -0.00000000000E+00 -0.45593999997E+02  0.45594000000E+02  0.51100000000E-03 0.  1.
         23    2    1    2    0    0  0.00000000000E+00  0.00000000000E+00  0.00000000000E+00  0.91188000000E+02  0.91188000000E+02 0.  0.
    9900012    2    3    3    0    0 -0.27764739963E+01  0.70289004421E+01  0.42737680210E+02  0.47787267760E+02  0.19999985025E+02 0.  0.
        -12    1    3    3    0    0  0.27764739963E+01 -0.70289004421E+01 -0.42737680210E+02  0.43400732240E+02  0.00000000000E+00 0.  1.
         11    1    4    4    0    0  0.32087231070E+01  0.68725475261E+00  0.38750692307E+01  0.50778326947E+01  0.51100000000E-03 0. -1.
        -11    1    4    4    0    0 -0.98789431744E+01 -0.44371605939E+00  0.21369375978E+02  0.23546563065E+02  0.51100000000E-03 0.  1.
        -12    1    4    4    0    0  0.38937460711E+01  0.67853617489E+01  0.17493235001E+02  0.19162872001E+02  0.00000000000E+00 0.  1.
</event>
<event>
 8    1  0.4798632E-010  0.9118800E+02  0.7816164E-02  0.1184000E+00
        -11   -1    0    0    0    0  0.00000000000E+00  0.00000000000E+00  0.45593999997E+02  0.45594000000E+02  0.51100000000E-03 0. -1.
         11   -1    0    0    0    0 -0.00000000000E+00 -0.00000000000E+00 -0.45593999997E+02  0.45594000000E+02  0.51100000000E-03 0.  1.
         23    2    1    2    0    0  0.00000000000E+00  0.00000000000E+00  0.00000000000E+00  0.91188000000E+02  0.91188000000E+02 0.  0.
    9900012    2    3    3    0    0 -0.25366878490E+02 -0.12254683489E+02 -0.33014652173E+02  0.47787273625E+02  0.20000011767E+02 0.  0.
         12    1    3    3    0    0  0.25366878490E+02  0.12254683489E+02  0.33014652173E+02  0.43400726375E+02  0.00000000000E+00 0. -1.
         11    1    4    4    0    0 -0.10671356104E+02 -0.31374204884E+00 -0.16051555226E+01  0.10795962194E+02  0.51100000000E-03 0. -1.
        -11    1    4    4    0    0 -0.55179126904E+01 -0.74534306638E+01 -0.13627675970E+02  0.16483766006E+02  0.51100000000E-03 0.  1.
         12    1    4    4    0    0 -0.91776096961E+01 -0.44875107764E+01 -0.17781820680E+02  0.20507545426E+02  0.00000000000E+00 0. -1.
</event>
<event>
 8    1  0.6058568E-010  0.9118800E+02  0.7816164E-02  0.1184000E+00
        -11   -1    0    0    0    0  0.00000000000E+00  0.00000000000E+00  0.45593999997E+02  0.45594000000E+02  0.51100000000E-03 0. -1.
         11   -1    0    0    0    0 -0.00000000000E+00 -0.00000000000E+00 -0.45593999997E+02  0.45594000000E+02  0.51100000000E-03 0.  1.
         23    2    1    2    0    0 -0.17763568394E-14  0.00000000000E+00 -0.71054273576E-14  0.91188000000E+02  0.91188000000E+02 0.  0.
    9900012    2    3    3    0    0  0.88809303217E+01  0.97133730271E+01 -0.41357019480E+02  0.47787267296E+02  0.19999982910E+02 0.  0.
         12    1    3    3    0    0 -0.88809303217E+01 -0.97133730271E+01  0.41357019480E+02  0.43400732704E+02  0.00000000000E+00 0. -1.
         11    1    4    4    0    0  0.55326348706E+00 -0.40172739842E+01 -0.42014003393E+01  0.58392084928E+01  0.51100000000E-03 0. -1.
        -11    1    4    4    0    0  0.91391155054E+01  0.10760140127E+02 -0.19777655219E+02  0.24299376412E+02  0.51100000000E-03 0.  1.
        -12    1    4    4    0    0 -0.81144867075E+00  0.29705068846E+01 -0.17377963922E+02  0.17648682392E+02  0.00000000000E+00 0.  1.
</event>
<event>
 8    1  0.4798632E-010  0.9118800E+02  0.7816164E-02  0.1184000E+00
        -11   -1    0    0    0    0  0.00000000000E+00  0.00000000000E+00  0.45593999997E+02  0.45594000000E+02  0.51100000000E-03 0. -1.
         11   -1    0    0    0    0 -0.00000000000E+00 -0.00000000000E+00 -0.45593999997E+02  0.45594000000E+02  0.51100000000E-03 0.  1.
         23    2    1    2    0    0 -0.66613381478E-15  0.00000000000E+00 -0.35527136788E-14  0.91188000000E+02  0.91188000000E+02 0.  0.
    9900012    2    3    3    0    0  0.15154053928E+01 -0.32937817041E+02  0.28221011190E+02  0.47787288975E+02  0.20000081750E+02 0.  0.
        -12    1    3    3    0    0 -0.15154053928E+01  0.32937817041E+02 -0.28221011190E+02  0.43400711025E+02  0.00000000000E+00 0.  1.
         11    1    4    4    0    0 -0.36973146694E+01 -0.17528682072E+02  0.14793420733E+02  0.23232953497E+02  0.51100000000E-03 0. -1.
        -11    1    4    4    0    0  0.88992669536E+01 -0.71741792038E+01  0.87224986275E+01  0.14378726721E+02  0.51100000000E-03 0.  1.
        -12    1    4    4    0    0 -0.36865468914E+01 -0.82349557652E+01  0.47050918298E+01  0.10175608757E+02  0.00000000000E+00 0.  1.
</event>
<event>
 8    1  0.4798632E-010  0.9118800E+02  0.7816164E-02  0.1184000E+00
        -11   -1    0    0    0    0  0.00000000000E+00  0.00000000000E+00  0.45593999997E+02  0.45594000000E+02  0.51100000000E-03 0. -1.
         11   -1    0    0    0    0 -0.00000000000E+00 -0.00000000000E+00 -0.45593999997E+02  0.45594000000E+02  0.51100000000E-03 0.  1.
         23    2    1    2    0    0 -0.44408920985E-15  0.35527136788E-14 -0.71054273576E-14  0.91188000000E+02  0.91188000000E+02 0.  0.
    9900012    2    3    3    0    0 -0.26672500722E+01  0.27864440360E+02 -0.33167484694E+02  0.47787270738E+02  0.19999998603E+02 0.  0.
         12    1    3    3    0    0  0.26672500722E+01 -0.27864440360E+02  0.33167484694E+02  0.43400729262E+02  0.00000000000E+00 0. -1.
         11    1    4    4    0    0  0.24330719804E+01  0.15185225108E+02 -0.70561165534E+01  0.16920392487E+02  0.51100000000E-03 0. -1.
        -11    1    4    4    0    0 -0.43913003824E+01  0.14152743778E+02 -0.23232022949E+02  0.27555590468E+02  0.51100000000E-03 0.  1.
         12    1    4    4    0    0 -0.70902167020E+00 -0.14735285260E+01 -0.28793451917E+01  0.33112877825E+01  0.00000000000E+00 0. -1.
</event>
<event>
 8    1  0.4798632E-010  0.9118800E+02  0.7816164E-02  0.1184000E+00
        -11   -1    0    0    0    0  0.00000000000E+00  0.00000000000E+00  0.45593999997E+02  0.45594000000E+02  0.51100000000E-03 0. -1.
         11   -1    0    0    0    0 -0.00000000000E+00 -0.00000000000E+00 -0.45593999997E+02  0.45594000000E+02  0.51100000000E-03 0.  1.
         23    2    1    2    0    0  0.00000000000E+00  0.00000000000E+00  0.00000000000E+00  0.91188000000E+02  0.91188000000E+02 0.  0.
    9900012    2    3    3    0    0  0.10680658642E+02  0.89481884303E+01 -0.41103251303E+02  0.47787264834E+02  0.19999971685E+02 0.  0.
         12    1    3    3    0    0 -0.10680658642E+02 -0.89481884303E+01  0.41103251303E+02  0.43400735166E+02  0.00000000000E+00 0. -1.
         11    1    4    4    0    0  0.87934032582E+01 -0.22180973923E+01 -0.29995462350E+02  0.31336427026E+02  0.51100000000E-03 0. -1.
        -11    1    4    4    0    0  0.98077871347E+00  0.78514656854E+00 -0.29841934781E+01  0.32378685882E+01  0.51100000000E-03 0.  1.
         12    1    4    4    0    0  0.90647667077E+00  0.10381139254E+02 -0.81235954757E+01  0.13212969220E+02  0.00000000000E+00 0. -1.
</event>
<event>
 8    1  0.4798632E-010  0.9118800E+02  0.7816164E-02  0.1184000E+00
        -11   -1    0    0    0    0  0.00000000000E+00  0.00000000000E+00  0.45593999997E+02  0.45594000000E+02  0.51100000000E-03 0. -1.
         11   -1    0    0    0    0 -0.00000000000E+00 -0.00000000000E+00 -0.45593999997E+02  0.45594000000E+02  0.51100000000E-03 0.  1.
         23    2    1    2    0    0  0.00000000000E+00 -0.35527136788E-14  0.35527136788E-14  0.91188000000E+02  0.91188000000E+02 0.  0.
    9900012    2    3    3    0    0 -0.25051090129E+02  0.24089715615E+02 -0.25995224876E+02  0.47787271533E+02  0.20000002229E+02 0.  0.
         12    1    3    3    0    0  0.25051090129E+02 -0.24089715615E+02  0.25995224876E+02  0.43400728467E+02  0.00000000000E+00 0. -1.
         11    1    4    4    0    0 -0.12597915624E+02  0.13105297506E+02 -0.22424593154E+01  0.18316247564E+02  0.51100000000E-03 0. -1.
        -11    1    4    4    0    0 -0.40612485110E+01  0.49693892717E+01 -0.13358700284E+02  0.14820372557E+02  0.51100000000E-03 0.  1.
         12    1    4    4    0    0 -0.83919259947E+01  0.60150288375E+01 -0.10394065276E+02  0.14650651412E+02  0.00000000000E+00 0. -1.
</event>
<event>
 8    1  0.4798632E-010  0.9118800E+02  0.7816164E-02  0.1184000E+00
        -11   -1    0    0    0    0  0.00000000000E+00  0.00000000000E+00  0.45593999997E+02  0.45594000000E+02  0.51100000000E-03 0. -1.
         11   -1    0    0    0    0 -0.00000000000E+00 -0.00000000000E+00 -0.45593999997E+02  0.45594000000E+02  0.51100000000E-03 0.  1.
         23    2    1    2    0    0  0.00000000000E+00  0.00000000000E+00  0.00000000000E+00  0.91188000000E+02  0.91188000000E+02 0.  0.
    9900012    2    3    3    0    0  0.19845231189E+02  0.24967371636E+02  0.29435017193E+02  0.47787273226E+02  0.20000009947E+02 0.  0.
        -12    1    3    3    0    0 -0.19845231189E+02 -0.24967371636E+02 -0.29435017193E+02  0.43400726774E+02  0.00000000000E+00 0.  1.
         11    1    4    4    0    0  0.12532133578E+02  0.15706509428E+01  0.70309951983E+01  0.14455317711E+02  0.51100000000E-03 0.  1.
        -11    1    4    4    0    0  0.42074594719E+01  0.16408994503E+02  0.16742693932E+02  0.23817548492E+02  0.51100000000E-03 0. -1.
        -12    1    4    4    0    0  0.31056381394E+01  0.69877261903E+01  0.56613280621E+01  0.95144070225E+01  0.00000000000E+00 0.  1.
</event>
<event>
 8    1  0.4798632E-010  0.9118800E+02  0.7816164E-02  0.1184000E+00
        -11   -1    0    0    0    0  0.00000000000E+00  0.00000000000E+00  0.45593999997E+02  0.45594000000E+02  0.51100000000E-03 0. -1.
         11   -1    0    0    0    0 -0.00000000000E+00 -0.00000000000E+00 -0.45593999997E+02  0.45594000000E+02  0.51100000000E-03 0.  1.
         23    2    1    2    0    0  0.35527136788E-14  0.17763568394E-14  0.00000000000E+00  0.91188000000E+02  0.91188000000E+02 0.  0.
    9900012    2    3    3    0    0 -0.31047013570E+02 -0.14940330753E+02  0.26391144535E+02  0.47787273687E+02  0.20000012049E+02 0.  0.
        -12    1    3    3    0    0  0.31047013570E+02  0.14940330753E+02 -0.26391144535E+02  0.43400726313E+02  0.00000000000E+00 0.  1.
         11    1    4    4    0    0 -0.22568221556E+02 -0.14479426700E+02  0.96214222693E+01  0.28487719960E+02  0.51100000000E-03 0. -1.
        -11    1    4    4    0    0 -0.28309467276E+01 -0.18768422406E+01  0.87733208602E+01  0.94078666736E+01  0.51100000000E-03 0.  1.
         12    1    4    4    0    0 -0.56478452858E+01  0.14159381880E+01  0.79964014058E+01  0.98916870537E+01  0.00000000000E+00 0. -1.
</event>
<event>
 8    1  0.4798632E-010  0.9118800E+02  0.7816164E-02  0.1184000E+00
        -11   -1    0    0    0    0  0.00000000000E+00  0.00000000000E+00  0.45593999997E+02  0.45594000000E+02  0.51100000000E-03 0. -1.
         11   -1    0    0    0    0 -0.00000000000E+00 -0.00000000000E+00 -0.45593999997E+02  0.45594000000E+02  0.51100000000E-03 0.  1.
         23    2    1    2    0    0  0.00000000000E+00  0.00000000000E+00  0.00000000000E+00  0.91188000000E+02  0.91188000000E+02 0.  0.
    9900012    2    3    3    0    0  0.39933874553E+02 -0.16882471148E+02  0.19725903025E+01  0.47787270958E+02  0.19999999605E+02 0.  0.
        -12    1    3    3    0    0 -0.39933874553E+02  0.16882471148E+02 -0.19725903025E+01  0.43400729042E+02  0.00000000000E+00 0.  1.
         11    1    4    4    0    0  0.25802709773E+02 -0.14562795934E+02 -0.38691954977E+01  0.29880186262E+02  0.51100000000E-03 0. -1.
        -11    1    4    4    0    0  0.15148017430E+02 -0.14440547725E+01  0.41980562049E+01  0.15785163997E+02  0.51100000000E-03 0.  1.
         12    1    4    4    0    0 -0.10168526494E+01 -0.87562044173E+00  0.16437295953E+01  0.21219206986E+01  0.00000000000E+00 0. -1.
</event>
<event>
 8    1  0.4798632E-010  0.9118800E+02  0.7816164E-02  0.1184000E+00
        -11   -1    0    0    0    0  0.00000000000E+00  0.00000000000E+00  0.45593999997E+02  0.45594000000E+02  0.51100000000E-03 0. -1.
         11   -1    0    0    0    0 -0.00000000000E+00 -0.00000000000E+00 -0.45593999997E+02  0.45594000000E+02  0.51100000000E-03 0.  1.
         23    2    1    2    0    0  0.88817841970E-15  0.00000000000E+00  0.17763568394E-14  0.91188000000E+02  0.91188000000E+02 0.  0.
    9900012    2    3    3    0    0  0.79598475509E+01 -0.40156772726E+02 -0.14411722729E+02  0.47787270504E+02  0.19999997536E+02 0.  0.
         12    1    3    3    0    0 -0.79598475509E+01  0.40156772726E+02  0.14411722729E+02  0.43400729496E+02  0.00000000000E+00 0. -1.
         11    1    4    4    0    0  0.10113945340E+01 -0.57995667954E+01  0.49916893636E+01  0.77184750360E+01  0.51100000000E-03 0. -1.
        -11    1    4    4    0    0  0.29957106954E+01 -0.16203163648E+02 -0.91834254436E+01  0.18864042460E+02  0.51100000000E-03 0.  1.
         12    1    4    4    0    0  0.39527423215E+01 -0.18154042282E+02 -0.10219986649E+02  0.21204753008E+02  0.00000000000E+00 0. -1.
</event>
<event>
 8    1  0.4798632E-010  0.9118800E+02  0.7816164E-02  0.1184000E+00
        -11   -1    0    0    0    0  0.00000000000E+00  0.00000000000E+00  0.45593999997E+02  0.45594000000E+02  0.51100000000E-03 0. -1.
         11   -1    0    0    0    0 -0.00000000000E+00 -0.00000000000E+00 -0.45593999997E+02  0.45594000000E+02  0.51100000000E-03 0.  1.
         23    2    1    2    0    0  0.35527136788E-14  0.00000000000E+00  0.00000000000E+00  0.91188000000E+02  0.91188000000E+02 0.  0.
    9900012    2    3    3    0    0 -0.31869494451E+02 -0.13916879745E+02 -0.25966874594E+02  0.47787276566E+02  0.20000025175E+02 0.  0.
         12    1    3    3    0    0  0.31869494451E+02  0.13916879745E+02  0.25966874594E+02  0.43400723434E+02  0.00000000000E+00 0. -1.
         11    1    4    4    0    0 -0.16299776088E+02 -0.56774101972E+01 -0.22691608537E+02  0.28510082170E+02  0.51100000000E-03 0. -1.
        -11    1    4    4    0    0 -0.15993267807E+02 -0.65977421588E+01 -0.30305786823E+01  0.17564145984E+02  0.51100000000E-03 0.  1.
        -12    1    4    4    0    0  0.42354944360E+00 -0.16417273889E+01 -0.24468737427E+00  0.17130484120E+01  0.00000000000E+00 0.  1.
</event>
<event>
 8    1  0.4798632E-010  0.9118800E+02  0.7816164E-02  0.1184000E+00
        -11   -1    0    0    0    0  0.00000000000E+00  0.00000000000E+00  0.45593999997E+02  0.45594000000E+02  0.51100000000E-03 0. -1.
         11   -1    0    0    0    0 -0.00000000000E+00 -0.00000000000E+00 -0.45593999997E+02  0.45594000000E+02  0.51100000000E-03 0.  1.
         23    2    1    2    0    0  0.00000000000E+00  0.00000000000E+00  0.71054273576E-14  0.91188000000E+02  0.91188000000E+02 0.  0.
    9900012    2    3    3    0    0  0.11425899853E+02 -0.22768080774E+02 -0.35138098281E+02  0.47787278342E+02  0.20000033274E+02 0.  0.
         12    1    3    3    0    0 -0.11425899853E+02  0.22768080774E+02  0.35138098281E+02  0.43400721658E+02  0.00000000000E+00 0. -1.
         11    1    4    4    0    0  0.14502818792E+00  0.25782937892E+01 -0.14459590095E+01  0.29596333822E+01  0.51100000000E-03 0. -1.
        -11    1    4    4    0    0  0.65021090154E+01 -0.39177390522E+01 -0.94473848059E+01  0.12119372131E+02  0.51100000000E-03 0.  1.
         12    1    4    4    0    0  0.47787626501E+01 -0.21428635511E+02 -0.24244754466E+02  0.32708272829E+02  0.00000000000E+00 0. -1.
</event>
<event>
 8    1  0.4798632E-010  0.9118800E+02  0.7816164E-02  0.1184000E+00
        -11   -1    0    0    0    0  0.00000000000E+00  0.00000000000E+00  0.45593999997E+02  0.45594000000E+02  0.51100000000E-03 0. -1.
         11   -1    0    0    0    0 -0.00000000000E+00 -0.00000000000E+00 -0.45593999997E+02  0.45594000000E+02  0.51100000000E-03 0.  1.
         23    2    1    2    0    0 -0.88817841970E-15  0.00000000000E+00  0.00000000000E+00  0.91188000000E+02  0.91188000000E+02 0.  0.
    9900012    2    3    3    0    0 -0.79989304308E+01  0.41475333252E+02  0.99720375544E+01  0.47787220175E+02  0.19999768065E+02 0.  0.
        -12    1    3    3    0    0  0.79989304308E+01 -0.41475333252E+02 -0.99720375544E+01  0.43400779825E+02  0.00000000000E+00 0.  1.
         11    1    4    4    0    0 -0.70904921718E+00  0.19984186090E+02  0.36206321144E+01  0.20321895130E+02  0.51100000000E-03 0. -1.
        -11    1    4    4    0    0 -0.84949971682E+01  0.69274477945E+01  0.67013349349E+01  0.12847661266E+02  0.51100000000E-03 0.  1.
        -12    1    4    4    0    0  0.12051159546E+01  0.14563699367E+02 -0.34992949497E+00  0.14617663780E+02  0.00000000000E+00 0.  1.
</event>
<event>
 8    1  0.4798632E-010  0.9118800E+02  0.7816164E-02  0.1184000E+00
        -11   -1    0    0    0    0  0.00000000000E+00  0.00000000000E+00  0.45593999997E+02  0.45594000000E+02  0.51100000000E-03 0. -1.
         11   -1    0    0    0    0 -0.00000000000E+00 -0.00000000000E+00 -0.45593999997E+02  0.45594000000E+02  0.51100000000E-03 0.  1.
         23    2    1    2    0    0  0.00000000000E+00  0.00000000000E+00 -0.35527136788E-14  0.91188000000E+02  0.91188000000E+02 0.  0.
    9900012    2    3    3    0    0  0.21925030906E+01 -0.32219478822E+02  0.28995191378E+02  0.47787274103E+02  0.20000013944E+02 0.  0.
        -12    1    3    3    0    0 -0.21925030906E+01  0.32219478822E+02 -0.28995191378E+02  0.43400725897E+02  0.00000000000E+00 0.  1.
         11    1    4    4    0    0  0.18976614251E+01 -0.24203782716E+02  0.17117349053E+02  0.29705687259E+02  0.51100000000E-03 0. -1.
        -11    1    4    4    0    0 -0.20132822288E+01 -0.34289200024E+00 -0.14680792209E+01  0.25151813288E+01  0.51100000000E-03 0.  1.
         12    1    4    4    0    0  0.23081238943E+01 -0.76728041054E+01  0.13345921546E+02  0.15566405515E+02  0.00000000000E+00 0. -1.
</event>
<event>
 8    1  0.4798632E-010  0.9118800E+02  0.7816164E-02  0.1184000E+00
        -11   -1    0    0    0    0  0.00000000000E+00  0.00000000000E+00  0.45593999997E+02  0.45594000000E+02  0.51100000000E-03 0. -1.
         11   -1    0    0    0    0 -0.00000000000E+00 -0.00000000000E+00 -0.45593999997E+02  0.45594000000E+02  0.51100000000E-03 0.  1.
         23    2    1    2    0    0  0.00000000000E+00  0.00000000000E+00  0.00000000000E+00  0.91188000000E+02  0.91188000000E+02 0.  0.
    9900012    2    3    3    0    0 -0.90953491002E+01  0.33207289935E+02  0.26422976366E+02  0.47787272354E+02  0.20000005973E+02 0.  0.
        -12    1    3    3    0    0  0.90953491002E+01 -0.33207289935E+02 -0.26422976366E+02  0.43400727646E+02  0.00000000000E+00 0.  1.
         11    1    4    4    0    0  0.15772785867E+01  0.19702961993E+01  0.10218841994E+00  0.25259290543E+01  0.51100000000E-03 0.  1.
        -11    1    4    4    0    0 -0.57881069377E+01  0.20536608335E+02  0.66624733114E+01  0.22352695916E+02  0.51100000000E-03 0. -1.
        -12    1    4    4    0    0 -0.48845207493E+01  0.10700385401E+02  0.19658314635E+02  0.22908647384E+02  0.00000000000E+00 0.  1.
</event>
<event>
 8    1  0.8005712E-010  0.9118800E+02  0.7816164E-02  0.1184000E+00
        -11   -1    0    0    0    0  0.00000000000E+00  0.00000000000E+00  0.45593999997E+02  0.45594000000E+02  0.51100000000E-03 0. -1.
         11   -1    0    0    0    0 -0.00000000000E+00 -0.00000000000E+00 -0.45593999997E+02  0.45594000000E+02  0.51100000000E-03 0.  1.
         23    2    1    2    0    0  0.00000000000E+00  0.44408920985E-15  0.00000000000E+00  0.91188000000E+02  0.91188000000E+02 0.  0.
    9900012    2    3    3    0    0 -0.62195798667E+01  0.31667335702E+01  0.42835873825E+02  0.47787268882E+02  0.19999990141E+02 0.  0.
        -12    1    3    3    0    0  0.62195798667E+01 -0.31667335702E+01 -0.42835873825E+02  0.43400731118E+02  0.00000000000E+00 0.  1.
         11    1    4    4    0    0 -0.53304069206E+01  0.29690711141E+01  0.36204605719E+02  0.36715148056E+02  0.51100000000E-03 0. -1.
        -11    1    4    4    0    0 -0.16074010742E+01 -0.32950546779E+01  0.14351407747E+00  0.36690216809E+01  0.51100000000E-03 0.  1.
        -12    1    4    4    0    0  0.71822812816E+00  0.34927171339E+01  0.64877540286E+01  0.74030991455E+01  0.00000000000E+00 0.  1.
</event>
<event>
 8    1  0.4798632E-010  0.9118800E+02  0.7816164E-02  0.1184000E+00
        -11   -1    0    0    0    0  0.00000000000E+00  0.00000000000E+00  0.45593999997E+02  0.45594000000E+02  0.51100000000E-03 0. -1.
         11   -1    0    0    0    0 -0.00000000000E+00 -0.00000000000E+00 -0.45593999997E+02  0.45594000000E+02  0.51100000000E-03 0.  1.
         23    2    1    2    0    0 -0.22204460493E-15  0.00000000000E+00 -0.71054273576E-14  0.91188000000E+02  0.91188000000E+02 0.  0.
    9900012    2    3    3    0    0  0.17900111117E+01 -0.12699462368E+02  0.41462546225E+02  0.47787271623E+02  0.20000002639E+02 0.  0.
        -12    1    3    3    0    0 -0.17900111117E+01  0.12699462368E+02 -0.41462546225E+02  0.43400728377E+02  0.00000000000E+00 0.  1.
         11    1    4    4    0    0 -0.99659695230E+00 -0.37501530201E+01  0.26489975571E+02  0.26772666269E+02  0.51100000000E-03 0. -1.
        -11    1    4    4    0    0  0.20357774940E+01  0.20009708444E+01  0.57744366783E+00  0.29123385407E+01  0.51100000000E-03 0.  1.
        -12    1    4    4    0    0  0.75083056998E+00 -0.10950280192E+02  0.14395126986E+02  0.18102266813E+02  0.00000000000E+00 0.  1.
</event>
<event>
 8    1  0.4798632E-010  0.9118800E+02  0.7816164E-02  0.1184000E+00
        -11   -1    0    0    0    0  0.00000000000E+00  0.00000000000E+00  0.45593999997E+02  0.45594000000E+02  0.51100000000E-03 0. -1.
         11   -1    0    0    0    0 -0.00000000000E+00 -0.00000000000E+00 -0.45593999997E+02  0.45594000000E+02  0.51100000000E-03 0.  1.
         23    2    1    2    0    0  0.00000000000E+00  0.00000000000E+00  0.35527136788E-14  0.91188000000E+02  0.91188000000E+02 0.  0.
    9900012    2    3    3    0    0 -0.17993794651E+02  0.28029937061E+02 -0.27823946991E+02  0.47787239134E+02  0.19999854508E+02 0.  0.
         12    1    3    3    0    0  0.17993794651E+02 -0.28029937061E+02  0.27823946991E+02  0.43400760866E+02  0.00000000000E+00 0. -1.
         11    1    4    4    0    0 -0.14510517103E+01  0.26699188501E+00  0.23206599204E+01  0.27499633561E+01  0.51100000000E-03 0. -1.
        -11    1    4    4    0    0 -0.90679782702E+01  0.17136766268E+02 -0.23434210609E+02  0.30414786127E+02  0.51100000000E-03 0.  1.
        -12    1    4    4    0    0 -0.74747646700E+01  0.10626178908E+02 -0.67103963020E+01  0.14622489651E+02  0.00000000000E+00 0.  1.
</event>
<event>
 8    1  0.4798632E-010  0.9118800E+02  0.7816164E-02  0.1184000E+00
        -11   -1    0    0    0    0  0.00000000000E+00  0.00000000000E+00  0.45593999997E+02  0.45594000000E+02  0.51100000000E-03 0.  1.
         11   -1    0    0    0    0 -0.00000000000E+00 -0.00000000000E+00 -0.45593999997E+02  0.45594000000E+02  0.51100000000E-03 0. -1.
         23    2    1    2    0    0  0.35527136788E-14 -0.35527136788E-14 -0.35527136788E-14  0.91188000000E+02  0.91188000000E+02 0.  0.
    9900012    2    3    3    0    0  0.30693626362E+02 -0.23822588443E+02  0.19339216398E+02  0.47787312099E+02  0.20000187184E+02 0.  0.
        -12    1    3    3    0    0 -0.30693626362E+02  0.23822588443E+02 -0.19339216398E+02  0.43400687901E+02  0.00000000000E+00 0.  1.
         11    1    4    4    0    0  0.24990241036E+00 -0.11399797260E+01 -0.20583822676E+01  0.23662085308E+01  0.51100000000E-03 0.  1.
        -11    1    4    4    0    0  0.42753108575E+00  0.14342299187E+01  0.13243490829E+01  0.19984241400E+01  0.51100000000E-03 0. -1.
         12    1    4    4    0    0  0.30016192865E+02 -0.24116838636E+02  0.20073249583E+02  0.43422679428E+02  0.00000000000E+00 0. -1.
</event>
<event>
 8    1  0.4798632E-010  0.9118800E+02  0.7816164E-02  0.1184000E+00
        -11   -1    0    0    0    0  0.00000000000E+00  0.00000000000E+00  0.45593999997E+02  0.45594000000E+02  0.51100000000E-03 0. -1.
         11   -1    0    0    0    0 -0.00000000000E+00 -0.00000000000E+00 -0.45593999997E+02  0.45594000000E+02  0.51100000000E-03 0.  1.
         23    2    1    2    0    0  0.88817841970E-15  0.00000000000E+00  0.00000000000E+00  0.91188000000E+02  0.91188000000E+02 0.  0.
    9900012    2    3    3    0    0  0.61773422875E+01  0.24383905996E+02  0.35367927085E+02  0.47787254665E+02  0.19999925317E+02 0.  0.
        -12    1    3    3    0    0 -0.61773422875E+01 -0.24383905996E+02 -0.35367927085E+02  0.43400745335E+02  0.00000000000E+00 0.  1.
         11    1    4    4    0    0  0.24211974571E+01  0.20820250703E+02  0.31394226415E+02  0.37748410416E+02  0.51100000000E-03 0. -1.
        -11    1    4    4    0    0  0.22099279221E+00 -0.22630331405E+00 -0.20603830154E+01  0.20845213924E+01  0.51100000000E-03 0.  1.
        -12    1    4    4    0    0  0.35351520382E+01  0.37899586078E+01  0.60340836849E+01  0.79543228561E+01  0.00000000000E+00 0.  1.
</event>
<event>
 8    1  0.4798632E-010  0.9118800E+02  0.7816164E-02  0.1184000E+00
        -11   -1    0    0    0    0  0.00000000000E+00  0.00000000000E+00  0.45593999997E+02  0.45594000000E+02  0.51100000000E-03 0. -1.
         11   -1    0    0    0    0 -0.00000000000E+00 -0.00000000000E+00 -0.45593999997E+02  0.45594000000E+02  0.51100000000E-03 0.  1.
         23    2    1    2    0    0  0.00000000000E+00 -0.35527136788E-14  0.71054273576E-14  0.91188000000E+02  0.91188000000E+02 0.  0.
    9900012    2    3    3    0    0 -0.15311964648E+02  0.22384566215E+02 -0.33883597541E+02  0.47787271339E+02  0.20000001342E+02 0.  0.
         12    1    3    3    0    0  0.15311964648E+02 -0.22384566215E+02  0.33883597541E+02  0.43400728661E+02  0.00000000000E+00 0. -1.
         11    1    4    4    0    0 -0.10659638053E+02  0.29239664661E+01 -0.83552985676E+01  0.13855990680E+02  0.51100000000E-03 0. -1.
        -11    1    4    4    0    0 -0.53559638597E+01  0.40590801083E+01 -0.10006283451E+02  0.12053555034E+02  0.51100000000E-03 0.  1.
         12    1    4    4    0    0  0.70363726425E+00  0.15401519641E+02 -0.15522015522E+02  0.21877725625E+02  0.00000000000E+00 0. -1.
</event>
<event>
 8    1  0.4798632E-010  0.9118800E+02  0.7816164E-02  0.1184000E+00
        -11   -1    0    0    0    0  0.00000000000E+00  0.00000000000E+00  0.45593999997E+02  0.45594000000E+02  0.51100000000E-03 0. -1.
         11   -1    0    0    0    0 -0.00000000000E+00 -0.00000000000E+00 -0.45593999997E+02  0.45594000000E+02  0.51100000000E-03 0.  1.
         23    2    1    2    0    0 -0.17763568394E-14 -0.35527136788E-14  0.71054273576E-14  0.91188000000E+02  0.91188000000E+02 0.  0.
    9900012    2    3    3    0    0 -0.15818632030E+02 -0.21775255734E+02  0.34047502901E+02  0.47787270336E+02  0.19999996771E+02 0.  0.
        -12    1    3    3    0    0  0.15818632030E+02  0.21775255734E+02 -0.34047502901E+02  0.43400729664E+02  0.00000000000E+00 0.  1.
         11    1    4    4    0    0 -0.62444828861E+01 -0.10423116376E+02  0.70718179519E+01  0.14058646126E+02  0.51100000000E-03 0. -1.
        -11    1    4    4    0    0 -0.81255188124E+01  0.65427214740E+00  0.11062539893E+02  0.13741612611E+02  0.51100000000E-03 0.  1.
        -12    1    4    4    0    0 -0.14486303314E+01 -0.12006411505E+02  0.15913145056E+02  0.19987011598E+02  0.00000000000E+00 0.  1.
</event>
<event>
 8    1  0.5748184E-010  0.9118800E+02  0.7816164E-02  0.1184000E+00
        -11   -1    0    0    0    0  0.00000000000E+00  0.00000000000E+00  0.45593999997E+02  0.45594000000E+02  0.51100000000E-03 0. -1.
         11   -1    0    0    0    0 -0.00000000000E+00 -0.00000000000E+00 -0.45593999997E+02  0.45594000000E+02  0.51100000000E-03 0.  1.
         23    2    1    2    0    0  0.00000000000E+00  0.00000000000E+00 -0.71054273576E-14  0.91188000000E+02  0.91188000000E+02 0.  0.
    9900012    2    3    3    0    0  0.16066007088E+02 -0.11523687634E+02 -0.38635621622E+02  0.47787271682E+02  0.20000002907E+02 0.  0.
         12    1    3    3    0    0 -0.16066007088E+02  0.11523687634E+02  0.38635621622E+02  0.43400728318E+02  0.00000000000E+00 0. -1.
         11    1    4    4    0    0  0.19557159685E+01 -0.32345354705E+01 -0.11258131816E+01  0.39439194008E+01  0.51100000000E-03 0. -1.
        -11    1    4    4    0    0  0.83335645789E+00 -0.92675561679E+01 -0.17279994319E+02  0.19626010400E+02  0.51100000000E-03 0.  1.
        -12    1    4    4    0    0  0.13276934661E+02  0.97840400450E+00 -0.20229814122E+02  0.24217341881E+02  0.00000000000E+00 0.  1.
</event>
<event>
 8    1  0.4798632E-010  0.9118800E+02  0.7816164E-02  0.1184000E+00
        -11   -1    0    0    0    0  0.00000000000E+00  0.00000000000E+00  0.45593999997E+02  0.45594000000E+02  0.51100000000E-03 0. -1.
         11   -1    0    0    0    0 -0.00000000000E+00 -0.00000000000E+00 -0.45593999997E+02  0.45594000000E+02  0.51100000000E-03 0.  1.
         23    2    1    2    0    0 -0.88817841970E-15  0.00000000000E+00  0.00000000000E+00  0.91188000000E+02  0.91188000000E+02 0.  0.
    9900012    2    3    3    0    0  0.13484518575E+01 -0.52007656812E+01  0.43066888063E+02  0.47787272661E+02  0.20000007372E+02 0.  0.
        -12    1    3    3    0    0 -0.13484518575E+01  0.52007656812E+01 -0.43066888063E+02  0.43400727339E+02  0.00000000000E+00 0.  1.
         11    1    4    4    0    0  0.73718446400E+01 -0.23046214466E+01  0.18273696393E+02  0.19838935293E+02  0.51100000000E-03 0. -1.
        -11    1    4    4    0    0 -0.59804969513E+01 -0.34766620658E+01  0.25840343632E+02  0.26750268825E+02  0.51100000000E-03 0.  1.
        -12    1    4    4    0    0 -0.42895831179E-01  0.58051783122E+00 -0.10471519621E+01  0.11980685441E+01  0.00000000000E+00 0.  1.
</event>
<event>
 8    1  0.4798632E-010  0.9118800E+02  0.7816164E-02  0.1184000E+00
        -11   -1    0    0    0    0  0.00000000000E+00  0.00000000000E+00  0.45593999997E+02  0.45594000000E+02  0.51100000000E-03 0. -1.
         11   -1    0    0    0    0 -0.00000000000E+00 -0.00000000000E+00 -0.45593999997E+02  0.45594000000E+02  0.51100000000E-03 0.  1.
         23    2    1    2    0    0  0.00000000000E+00  0.00000000000E+00  0.00000000000E+00  0.91188000000E+02  0.91188000000E+02 0.  0.
    9900012    2    3    3    0    0 -0.35091626845E+01  0.37802329999E+02  0.21030756269E+02  0.47787273216E+02  0.20000009902E+02 0.  0.
        -12    1    3    3    0    0  0.35091626845E+01 -0.37802329999E+02 -0.21030756269E+02  0.43400726784E+02  0.00000000000E+00 0.  1.
         11    1    4    4    0    0  0.35459950552E+01  0.78189682200E+01  0.88917192948E+01  0.12360138237E+02  0.51100000000E-03 0. -1.
        -11    1    4    4    0    0 -0.45230261216E+01  0.57458574097E+01 -0.15516832766E+01  0.74753169779E+01  0.51100000000E-03 0.  1.
        -12    1    4    4    0    0 -0.25321316181E+01  0.24237504370E+02  0.13690720251E+02  0.27951818001E+02  0.00000000000E+00 0.  1.
</event>
<event>
 8    1  0.4798632E-010  0.9118800E+02  0.7816164E-02  0.1184000E+00
        -11   -1    0    0    0    0  0.00000000000E+00  0.00000000000E+00  0.45593999997E+02  0.45594000000E+02  0.51100000000E-03 0. -1.
         11   -1    0    0    0    0 -0.00000000000E+00 -0.00000000000E+00 -0.45593999997E+02  0.45594000000E+02  0.51100000000E-03 0.  1.
         23    2    1    2    0    0  0.88817841970E-15  0.00000000000E+00  0.00000000000E+00  0.91188000000E+02  0.91188000000E+02 0.  0.
    9900012    2    3    3    0    0  0.11590209524E+01 -0.15087742633E+02 -0.40677266762E+02  0.47787270300E+02  0.19999996604E+02 0.  0.
         12    1    3    3    0    0 -0.11590209524E+01  0.15087742633E+02  0.40677266762E+02  0.43400729700E+02  0.00000000000E+00 0. -1.
         11    1    4    4    0    0  0.11593834450E+01 -0.21731791513E+01 -0.27568472352E+01  0.36969020187E+01  0.51100000000E-03 0.  1.
        -11    1    4    4    0    0  0.74485611382E+01 -0.76925661451E+01 -0.97290390164E+01  0.14467578836E+02  0.51100000000E-03 0. -1.
        -12    1    4    4    0    0 -0.74489236307E+01 -0.52219973369E+01 -0.28191380510E+02  0.29622789445E+02  0.00000000000E+00 0.  1.
</event>
<event>
 8    1  0.4798632E-010  0.9118800E+02  0.7816164E-02  0.1184000E+00
        -11   -1    0    0    0    0  0.00000000000E+00  0.00000000000E+00  0.45593999997E+02  0.45594000000E+02  0.51100000000E-03 0. -1.
         11   -1    0    0    0    0 -0.00000000000E+00 -0.00000000000E+00 -0.45593999997E+02  0.45594000000E+02  0.51100000000E-03 0.  1.
         23    2    1    2    0    0 -0.17763568394E-14 -0.35527136788E-14  0.00000000000E+00  0.91188000000E+02  0.91188000000E+02 0.  0.
    9900012    2    3    3    0    0 -0.11535247292E+02 -0.24602749432E+02 -0.33841771871E+02  0.47787277275E+02  0.20000028407E+02 0.  0.
         12    1    3    3    0    0  0.11535247292E+02  0.24602749432E+02  0.33841771871E+02  0.43400722725E+02  0.00000000000E+00 0. -1.
         11    1    4    4    0    0  0.21907276544E+00 -0.63035169511E+01 -0.15669093766E+02  0.16890909346E+02  0.51100000000E-03 0. -1.
        -11    1    4    4    0    0 -0.38446167845E+01 -0.11324570650E+02 -0.16250778753E+02  0.20177085740E+02  0.51100000000E-03 0.  1.
         12    1    4    4    0    0 -0.79097032732E+01 -0.69746618305E+01 -0.19218993519E+01  0.10719282189E+02  0.00000000000E+00 0. -1.
</event>
<event>
 8    1  0.4798632E-010  0.9118800E+02  0.7816164E-02  0.1184000E+00
        -11   -1    0    0    0    0  0.00000000000E+00  0.00000000000E+00  0.45593999997E+02  0.45594000000E+02  0.51100000000E-03 0. -1.
         11   -1    0    0    0    0 -0.00000000000E+00 -0.00000000000E+00 -0.45593999997E+02  0.45594000000E+02  0.51100000000E-03 0.  1.
         23    2    1    2    0    0  0.00000000000E+00  0.00000000000E+00  0.17763568394E-14  0.91188000000E+02  0.91188000000E+02 0.  0.
    9900012    2    3    3    0    0 -0.33301073897E+02 -0.23236917869E+02  0.15320254944E+02  0.47787238644E+02  0.19999852271E+02 0.  0.
        -12    1    3    3    0    0  0.33301073897E+02  0.23236917869E+02 -0.15320254944E+02  0.43400761356E+02  0.00000000000E+00 0.  1.
         11    1    4    4    0    0 -0.45406733758E+01  0.14310633786E+00  0.44865868742E+01  0.63849554556E+01  0.51100000000E-03 0. -1.
        -11    1    4    4    0    0 -0.19843997856E+02 -0.23368438462E+02  0.59269410787E+01  0.31224938717E+02  0.51100000000E-03 0.  1.
        -12    1    4    4    0    0 -0.89164026655E+01 -0.11585745225E-01  0.49067269907E+01  0.10177344471E+02  0.00000000000E+00 0.  1.
</event>
<event>
 8    1  0.4798632E-010  0.9118800E+02  0.7816164E-02  0.1184000E+00
        -11   -1    0    0    0    0  0.00000000000E+00  0.00000000000E+00  0.45593999997E+02  0.45594000000E+02  0.51100000000E-03 0. -1.
         11   -1    0    0    0    0 -0.00000000000E+00 -0.00000000000E+00 -0.45593999997E+02  0.45594000000E+02  0.51100000000E-03 0.  1.
         23    2    1    2    0    0  0.88817841970E-15  0.00000000000E+00  0.00000000000E+00  0.91188000000E+02  0.91188000000E+02 0.  0.
    9900012    2    3    3    0    0 -0.77227000866E+01  0.19038312695E+02 -0.38229907099E+02  0.47787271392E+02  0.20000001587E+02 0.  0.
         12    1    3    3    0    0  0.77227000866E+01 -0.19038312695E+02  0.38229907099E+02  0.43400728608E+02  0.00000000000E+00 0. -1.
         11    1    4    4    0    0 -0.12257722125E+02  0.11818190533E+02 -0.17718305546E+02  0.24573557554E+02  0.51100000000E-03 0. -1.
        -11    1    4    4    0    0  0.37498520735E+01  0.79373502877E+01 -0.20317280773E+02  0.22132664061E+02  0.51100000000E-03 0.  1.
         12    1    4    4    0    0  0.78516996448E+00 -0.71722812575E+00 -0.19432077987E+00  0.10810497782E+01  0.00000000000E+00 0. -1.
</event>
<event>
 8    1  0.4798632E-010  0.9118800E+02  0.7816164E-02  0.1184000E+00
        -11   -1    0    0    0    0  0.00000000000E+00  0.00000000000E+00  0.45593999997E+02  0.45594000000E+02  0.51100000000E-03 0. -1.
         11   -1    0    0    0    0 -0.00000000000E+00 -0.00000000000E+00 -0.45593999997E+02  0.45594000000E+02  0.51100000000E-03 0.  1.
         23    2    1    2    0    0  0.11102230246E-14  0.44408920985E-15  0.00000000000E+00  0.91188000000E+02  0.91188000000E+02 0.  0.
    9900012    2    3    3    0    0  0.93472509589E+00 -0.35585961980E+01  0.43244483278E+02  0.47787278210E+02  0.20000032670E+02 0.  0.
        -12    1    3    3    0    0 -0.93472509589E+00  0.35585961980E+01 -0.43244483278E+02  0.43400721790E+02  0.00000000000E+00 0.  1.
         11    1    4    4    0    0  0.81573635382E+01 -0.75330365061E+00  0.15756908155E+02  0.17759228619E+02  0.51100000000E-03 0.  1.
        -11    1    4    4    0    0 -0.81706338812E+01 -0.50471583395E+01  0.20763457221E+02  0.22876936450E+02  0.51100000000E-03 0. -1.
        -12    1    4    4    0    0  0.94799543886E+00  0.22418657922E+01  0.67241179027E+01  0.71511131408E+01  0.00000000000E+00 0.  1.
</event>
<event>
 8    1  0.4798632E-010  0.9118800E+02  0.7816164E-02  0.1184000E+00
        -11   -1    0    0    0    0  0.00000000000E+00  0.00000000000E+00  0.45593999997E+02  0.45594000000E+02  0.51100000000E-03 0. -1.
         11   -1    0    0    0    0 -0.00000000000E+00 -0.00000000000E+00 -0.45593999997E+02  0.45594000000E+02  0.51100000000E-03 0.  1.
         23    2    1    2    0    0  0.00000000000E+00  0.00000000000E+00  0.00000000000E+00  0.91188000000E+02  0.91188000000E+02 0.  0.
    9900012    2    3    3    0    0 -0.28060358136E+02  0.21295177473E+02  0.25352610739E+02  0.47787272429E+02  0.20000006315E+02 0.  0.
        -12    1    3    3    0    0  0.28060358136E+02 -0.21295177473E+02 -0.25352610739E+02  0.43400727571E+02  0.00000000000E+00 0.  1.
         11    1    4    4    0    0 -0.14131987000E+02  0.34976807276E+01  0.48001592664E+01  0.15329329936E+02  0.51100000000E-03 0. -1.
        -11    1    4    4    0    0 -0.51897894353E+01  0.41750698494E+01  0.48633306570E+00  0.66784461323E+01  0.51100000000E-03 0.  1.
         12    1    4    4    0    0 -0.87385817006E+01  0.13622426896E+02  0.20066118407E+02  0.25779496361E+02  0.00000000000E+00 0. -1.
</event>
<event>
 8    1  0.4798632E-010  0.9118800E+02  0.7816164E-02  0.1184000E+00
        -11   -1    0    0    0    0  0.00000000000E+00  0.00000000000E+00  0.45593999997E+02  0.45594000000E+02  0.51100000000E-03 0. -1.
         11   -1    0    0    0    0 -0.00000000000E+00 -0.00000000000E+00 -0.45593999997E+02  0.45594000000E+02  0.51100000000E-03 0.  1.
         23    2    1    2    0    0 -0.17763568394E-14  0.00000000000E+00 -0.71054273576E-14  0.91188000000E+02  0.91188000000E+02 0.  0.
    9900012    2    3    3    0    0 -0.11254624794E+02 -0.10863176089E+02 -0.40483924669E+02  0.47787270391E+02  0.19999997022E+02 0.  0.
         12    1    3    3    0    0  0.11254624794E+02  0.10863176089E+02  0.40483924669E+02  0.43400729609E+02  0.00000000000E+00 0. -1.
         11    1    4    4    0    0 -0.12094318863E+02 -0.44586002744E+01 -0.14781676128E+02  0.19612486191E+02  0.51100000000E-03 0. -1.
        -11    1    4    4    0    0 -0.30694773635E+01 -0.16261482086E+01 -0.28196546986E+01  0.44739805724E+01  0.51100000000E-03 0.  1.
         12    1    4    4    0    0  0.39091714331E+01 -0.47784276064E+01 -0.22882593842E+02  0.23700803628E+02  0.00000000000E+00 0. -1.
</event>
<event>
 8    1  0.4798632E-010  0.9118800E+02  0.7816164E-02  0.1184000E+00
        -11   -1    0    0    0    0  0.00000000000E+00  0.00000000000E+00  0.45593999997E+02  0.45594000000E+02  0.51100000000E-03 0.  1.
         11   -1    0    0    0    0 -0.00000000000E+00 -0.00000000000E+00 -0.45593999997E+02  0.45594000000E+02  0.51100000000E-03 0. -1.
         23    2    1    2    0    0  0.00000000000E+00  0.00000000000E+00  0.17763568394E-14  0.91188000000E+02  0.91188000000E+02 0.  0.
    9900012    2    3    3    0    0  0.15623681618E+02 -0.37203304128E+02 -0.15982434310E+02  0.47787268764E+02  0.19999989602E+02 0.  0.
        -12    1    3    3    0    0 -0.15623681618E+02  0.37203304128E+02  0.15982434310E+02  0.43400731236E+02  0.00000000000E+00 0.  1.
         11    1    4    4    0    0  0.37626202411E+01 -0.18546671338E+02 -0.88238084653E+01  0.20880515437E+02  0.51100000000E-03 0. -1.
        -11    1    4    4    0    0  0.75743504341E+01 -0.13486932786E+01 -0.25874715363E-02  0.76934884814E+01  0.51100000000E-03 0.  1.
        -12    1    4    4    0    0  0.42867109429E+01 -0.17307939511E+02 -0.71560383732E+01  0.19213264846E+02  0.00000000000E+00 0.  1.
</event>
<event>
 8    1  0.4798632E-010  0.9118800E+02  0.7816164E-02  0.1184000E+00
        -11   -1    0    0    0    0  0.00000000000E+00  0.00000000000E+00  0.45593999997E+02  0.45594000000E+02  0.51100000000E-03 0. -1.
         11   -1    0    0    0    0 -0.00000000000E+00 -0.00000000000E+00 -0.45593999997E+02  0.45594000000E+02  0.51100000000E-03 0.  1.
         23    2    1    2    0    0  0.00000000000E+00  0.00000000000E+00 -0.35527136788E-14  0.91188000000E+02  0.91188000000E+02 0.  0.
    9900012    2    3    3    0    0 -0.33103034198E+02 -0.17638632789E+02  0.21833257635E+02  0.47787269836E+02  0.19999994490E+02 0.  0.
        -12    1    3    3    0    0  0.33103034198E+02  0.17638632789E+02 -0.21833257635E+02  0.43400730164E+02  0.00000000000E+00 0.  1.
         11    1    4    4    0    0 -0.17299026655E+01  0.15215598209E+01  0.38601563800E+01  0.44953881990E+01  0.51100000000E-03 0. -1.
        -11    1    4    4    0    0 -0.22665533857E+02 -0.16134428976E+02  0.64939841186E+01  0.28569530157E+02  0.51100000000E-03 0.  1.
        -12    1    4    4    0    0 -0.87075976761E+01 -0.30257636339E+01  0.11479117137E+02  0.14722351480E+02  0.00000000000E+00 0.  1.
</event>
<event>
 8    1  0.4798632E-010  0.9118800E+02  0.7816164E-02  0.1184000E+00
        -11   -1    0    0    0    0  0.00000000000E+00  0.00000000000E+00  0.45593999997E+02  0.45594000000E+02  0.51100000000E-03 0. -1.
         11   -1    0    0    0    0 -0.00000000000E+00 -0.00000000000E+00 -0.45593999997E+02  0.45594000000E+02  0.51100000000E-03 0.  1.
         23    2    1    2    0    0  0.00000000000E+00  0.00000000000E+00  0.00000000000E+00  0.91188000000E+02  0.91188000000E+02 0.  0.
    9900012    2    3    3    0    0 -0.78501369938E+01  0.22602984364E+02 -0.36209165236E+02  0.47787271895E+02  0.20000003879E+02 0.  0.
         12    1    3    3    0    0  0.78501369938E+01 -0.22602984364E+02  0.36209165236E+02  0.43400728105E+02  0.00000000000E+00 0. -1.
         11    1    4    4    0    0 -0.10446493356E+01  0.12983762010E+02 -0.21761887755E+02  0.25362356497E+02  0.51100000000E-03 0. -1.
        -11    1    4    4    0    0 -0.27508354891E+01  0.81783789653E+01 -0.14701370876E+01  0.87529584545E+01  0.51100000000E-03 0.  1.
        -12    1    4    4    0    0 -0.40546521691E+01  0.14408433882E+01 -0.12977140393E+02  0.13671956943E+02  0.00000000000E+00 0.  1.
</event>
<event>
 8    1  0.4798632E-010  0.9118800E+02  0.7816164E-02  0.1184000E+00
        -11   -1    0    0    0    0  0.00000000000E+00  0.00000000000E+00  0.45593999997E+02  0.45594000000E+02  0.51100000000E-03 0. -1.
         11   -1    0    0    0    0 -0.00000000000E+00 -0.00000000000E+00 -0.45593999997E+02  0.45594000000E+02  0.51100000000E-03 0.  1.
         23    2    1    2    0    0 -0.35527136788E-14  0.00000000000E+00 -0.35527136788E-14  0.91188000000E+02  0.91188000000E+02 0.  0.
    9900012    2    3    3    0    0 -0.21014410093E+02  0.31593271759E+02 -0.21068528418E+02  0.47787272567E+02  0.20000006944E+02 0.  0.
         12    1    3    3    0    0  0.21014410093E+02 -0.31593271759E+02  0.21068528418E+02  0.43400727433E+02  0.00000000000E+00 0. -1.
         11    1    4    4    0    0 -0.92686376399E+01  0.22139643286E+02 -0.72821169549E+01  0.25081879438E+02  0.51100000000E-03 0. -1.
        -11    1    4    4    0    0 -0.46962896100E+01  0.98592498044E+01 -0.74667640154E+01  0.13229229302E+02  0.51100000000E-03 0.  1.
         12    1    4    4    0    0 -0.70494828429E+01 -0.40562133184E+00 -0.63196474478E+01  0.94761638273E+01  0.00000000000E+00 0. -1.
</event>
<event>
 8    1  0.4798632E-010  0.9118800E+02  0.7816164E-02  0.1184000E+00
        -11   -1    0    0    0    0  0.00000000000E+00  0.00000000000E+00  0.45593999997E+02  0.45594000000E+02  0.51100000000E-03 0. -1.
         11   -1    0    0    0    0 -0.00000000000E+00 -0.00000000000E+00 -0.45593999997E+02  0.45594000000E+02  0.51100000000E-03 0.  1.
         23    2    1    2    0    0  0.00000000000E+00  0.00000000000E+00  0.71054273576E-14  0.91188000000E+02  0.91188000000E+02 0.  0.
    9900012    2    3    3    0    0 -0.21586404843E+02  0.53751525019E+01 -0.37266046502E+02  0.47787270048E+02  0.19999995459E+02 0.  0.
         12    1    3    3    0    0  0.21586404843E+02 -0.53751525019E+01  0.37266046502E+02  0.43400729952E+02  0.00000000000E+00 0. -1.
         11    1    4    4    0    0 -0.12163830910E+02  0.93595991224E+01 -0.15428665451E+02  0.21762458409E+02  0.51100000000E-03 0. -1.
        -11    1    4    4    0    0 -0.71518051352E+01 -0.79646360483E+00 -0.20750273545E+02  0.21962616498E+02  0.51100000000E-03 0.  1.
         12    1    4    4    0    0 -0.22707687974E+01 -0.31879830157E+01 -0.10871075052E+01  0.40621951414E+01  0.00000000000E+00 0. -1.
</event>
<event>
 8    1  0.4798632E-010  0.9118800E+02  0.7816164E-02  0.1184000E+00
        -11   -1    0    0    0    0  0.00000000000E+00  0.00000000000E+00  0.45593999997E+02  0.45594000000E+02  0.51100000000E-03 0.  1.
         11   -1    0    0    0    0 -0.00000000000E+00 -0.00000000000E+00 -0.45593999997E+02  0.45594000000E+02  0.51100000000E-03 0. -1.
         23    2    1    2    0    0  0.00000000000E+00  0.00000000000E+00  0.88817841970E-15  0.91188000000E+02  0.91188000000E+02 0.  0.
    9900012    2    3    3    0    0  0.30546710886E+02  0.30315121545E+02 -0.56138278364E+01  0.47787271858E+02  0.20000003711E+02 0.  0.
         12    1    3    3    0    0 -0.30546710886E+02 -0.30315121545E+02  0.56138278364E+01  0.43400728142E+02  0.00000000000E+00 0. -1.
         11    1    4    4    0    0  0.73356928250E+00  0.77529693149E+01 -0.66525411223E+01  0.10242214640E+02  0.51100000000E-03 0. -1.
        -11    1    4    4    0    0  0.19977938439E+02  0.16997547941E+02  0.73382685169E+00  0.26240677628E+02  0.51100000000E-03 0.  1.
         12    1    4    4    0    0  0.98352031644E+01  0.55646042898E+01  0.30488643426E+00  0.11304379590E+02  0.00000000000E+00 0. -1.
</event>
<event>
 8    1  0.4798632E-010  0.9118800E+02  0.7816164E-02  0.1184000E+00
        -11   -1    0    0    0    0  0.00000000000E+00  0.00000000000E+00  0.45593999997E+02  0.45594000000E+02  0.51100000000E-03 0. -1.
         11   -1    0    0    0    0 -0.00000000000E+00 -0.00000000000E+00 -0.45593999997E+02  0.45594000000E+02  0.51100000000E-03 0.  1.
         23    2    1    2    0    0  0.17763568394E-14  0.17763568394E-14  0.71054273576E-14  0.91188000000E+02  0.91188000000E+02 0.  0.
    9900012    2    3    3    0    0  0.13731255787E+02  0.14009839496E+02  0.38714343079E+02  0.47787270187E+02  0.19999996093E+02 0.  0.
        -12    1    3    3    0    0 -0.13731255787E+02 -0.14009839496E+02 -0.38714343079E+02  0.43400729813E+02  0.00000000000E+00 0.  1.
         11    1    4    4    0    0  0.54179828957E+01 -0.24488390074E+01  0.48027453835E+01  0.76431482140E+01  0.51100000000E-03 0. -1.
        -11    1    4    4    0    0  0.77147883201E+01  0.16601722862E+02  0.34646481893E+02  0.39185633447E+02  0.51100000000E-03 0.  1.
        -12    1    4    4    0    0  0.59848457151E+00 -0.14304435883E+00 -0.73488419751E+00  0.95848852610E+00  0.00000000000E+00 0.  1.
</event>
<event>
 8    1  0.4798632E-010  0.9118800E+02  0.7816164E-02  0.1184000E+00
        -11   -1    0    0    0    0  0.00000000000E+00  0.00000000000E+00  0.45593999997E+02  0.45594000000E+02  0.51100000000E-03 0. -1.
         11   -1    0    0    0    0 -0.00000000000E+00 -0.00000000000E+00 -0.45593999997E+02  0.45594000000E+02  0.51100000000E-03 0.  1.
         23    2    1    2    0    0  0.00000000000E+00  0.00000000000E+00  0.00000000000E+00  0.91188000000E+02  0.91188000000E+02 0.  0.
    9900012    2    3    3    0    0  0.19353210292E+02 -0.36462492806E+02  0.13400110466E+02  0.47787273154E+02  0.20000009619E+02 0.  0.
        -12    1    3    3    0    0 -0.19353210292E+02  0.36462492806E+02 -0.13400110466E+02  0.43400726846E+02  0.00000000000E+00 0.  1.
         11    1    4    4    0    0  0.65260858754E+01 -0.21983211878E+02  0.14002771509E+02  0.26868736694E+02  0.51100000000E-03 0. -1.
        -11    1    4    4    0    0  0.68525699326E+01 -0.21312443678E+01 -0.59602596992E+00  0.72010530101E+01  0.51100000000E-03 0.  1.
         12    1    4    4    0    0  0.59745544840E+01 -0.12348036561E+02 -0.66350735505E-02  0.13717483450E+02  0.00000000000E+00 0. -1.
</event>
<event>
 8    1  0.4798632E-010  0.9118800E+02  0.7816164E-02  0.1184000E+00
        -11   -1    0    0    0    0  0.00000000000E+00  0.00000000000E+00  0.45593999997E+02  0.45594000000E+02  0.51100000000E-03 0. -1.
         11   -1    0    0    0    0 -0.00000000000E+00 -0.00000000000E+00 -0.45593999997E+02  0.45594000000E+02  0.51100000000E-03 0.  1.
         23    2    1    2    0    0  0.00000000000E+00 -0.35527136788E-14  0.00000000000E+00  0.91188000000E+02  0.91188000000E+02 0.  0.
    9900012    2    3    3    0    0 -0.14959803848E+02 -0.23817100785E+02 -0.33054096168E+02  0.47787270807E+02  0.19999998917E+02 0.  0.
         12    1    3    3    0    0  0.14959803848E+02  0.23817100785E+02  0.33054096168E+02  0.43400729193E+02  0.00000000000E+00 0. -1.
         11    1    4    4    0    0 -0.32792135205E+01 -0.19193885086E+02 -0.18163748795E+02  0.26628560542E+02  0.51100000000E-03 0. -1.
        -11    1    4    4    0    0 -0.82957256669E+01 -0.68401773763E+01 -0.12378590212E+02  0.16396236970E+02  0.51100000000E-03 0.  1.
         12    1    4    4    0    0 -0.33848646601E+01  0.22169616769E+01 -0.25117571614E+01  0.47624732947E+01  0.00000000000E+00 0. -1.
</event>
<event>
 8    1  0.4798632E-010  0.9118800E+02  0.7816164E-02  0.1184000E+00
        -11   -1    0    0    0    0  0.00000000000E+00  0.00000000000E+00  0.45593999997E+02  0.45594000000E+02  0.51100000000E-03 0. -1.
         11   -1    0    0    0    0 -0.00000000000E+00 -0.00000000000E+00 -0.45593999997E+02  0.45594000000E+02  0.51100000000E-03 0.  1.
         23    2    1    2    0    0  0.00000000000E+00  0.00000000000E+00  0.00000000000E+00  0.91188000000E+02  0.91188000000E+02 0.  0.
    9900012    2    3    3    0    0  0.16689855370E+02  0.22184732026E+02 -0.33360279732E+02  0.47787287205E+02  0.20000073680E+02 0.  0.
         12    1    3    3    0    0 -0.16689855370E+02 -0.22184732026E+02  0.33360279732E+02  0.43400712795E+02  0.00000000000E+00 0. -1.
         11    1    4    4    0    0  0.40774055006E+01  0.11447605515E+02 -0.23500482247E+02  0.26456484531E+02  0.51100000000E-03 0. -1.
        -11    1    4    4    0    0  0.11685220428E+02  0.10303568011E+02 -0.49961398666E+01  0.16360602191E+02  0.51100000000E-03 0.  1.
        -12    1    4    4    0    0  0.92722944052E+00  0.43355850094E+00 -0.48636576184E+01  0.49702004827E+01  0.00000000000E+00 0.  1.
</event>
<event>
 8    1  0.4798632E-010  0.9118800E+02  0.7816164E-02  0.1184000E+00
        -11   -1    0    0    0    0  0.00000000000E+00  0.00000000000E+00  0.45593999997E+02  0.45594000000E+02  0.51100000000E-03 0. -1.
         11   -1    0    0    0    0 -0.00000000000E+00 -0.00000000000E+00 -0.45593999997E+02  0.45594000000E+02  0.51100000000E-03 0.  1.
         23    2    1    2    0    0 -0.35527136788E-14  0.00000000000E+00 -0.35527136788E-14  0.91188000000E+02  0.91188000000E+02 0.  0.
    9900012    2    3    3    0    0  0.30849872670E+02 -0.99888321281E+01  0.28846691267E+02  0.47787274106E+02  0.20000013960E+02 0.  0.
        -12    1    3    3    0    0 -0.30849872670E+02  0.99888321281E+01 -0.28846691267E+02  0.43400725894E+02  0.00000000000E+00 0.  1.
         11    1    4    4    0    0  0.20824656849E+01  0.12045404464E+01  0.51939977878E+01  0.57240889490E+01  0.51100000000E-03 0. -1.
        -11    1    4    4    0    0  0.31407935877E+01 -0.44645742106E+01 -0.13610008644E+01  0.56257738007E+01  0.51100000000E-03 0.  1.
        -12    1    4    4    0    0  0.25626613398E+02 -0.67287983639E+01  0.25013694343E+02  0.36437411357E+02  0.00000000000E+00 0.  1.
</event>
<event>
 8    1  0.4798632E-010  0.9118800E+02  0.7816164E-02  0.1184000E+00
        -11   -1    0    0    0    0  0.00000000000E+00  0.00000000000E+00  0.45593999997E+02  0.45594000000E+02  0.51100000000E-03 0. -1.
         11   -1    0    0    0    0 -0.00000000000E+00 -0.00000000000E+00 -0.45593999997E+02  0.45594000000E+02  0.51100000000E-03 0.  1.
         23    2    1    2    0    0 -0.17763568394E-14 -0.17763568394E-14  0.71054273576E-14  0.91188000000E+02  0.91188000000E+02 0.  0.
    9900012    2    3    3    0    0  0.13457538548E+02  0.13647176891E+02 -0.38939343874E+02  0.47787270948E+02  0.19999999562E+02 0.  0.
         12    1    3    3    0    0 -0.13457538548E+02 -0.13647176891E+02  0.38939343874E+02  0.43400729052E+02  0.00000000000E+00 0. -1.
         11    1    4    4    0    0 -0.29835124448E+01  0.56240556491E+01 -0.91184635535E+01  0.11121048795E+02  0.51100000000E-03 0. -1.
        -11    1    4    4    0    0  0.16574183674E+02  0.98825291171E+01 -0.25653819072E+02  0.32101189689E+02  0.51100000000E-03 0.  1.
         12    1    4    4    0    0 -0.13313268039E+00 -0.18594078755E+01 -0.41670612484E+01  0.45650324649E+01  0.00000000000E+00 0. -1.
</event>
<event>
 8    1  0.4798632E-010  0.9118800E+02  0.7816164E-02  0.1184000E+00
        -11   -1    0    0    0    0  0.00000000000E+00  0.00000000000E+00  0.45593999997E+02  0.45594000000E+02  0.51100000000E-03 0. -1.
         11   -1    0    0    0    0 -0.00000000000E+00 -0.00000000000E+00 -0.45593999997E+02  0.45594000000E+02  0.51100000000E-03 0.  1.
         23    2    1    2    0    0  0.00000000000E+00 -0.35527136788E-14 -0.35527136788E-14  0.91188000000E+02  0.91188000000E+02 0.  0.
    9900012    2    3    3    0    0  0.25796426528E+02 -0.16334116045E+02 -0.30844198420E+02  0.47787267924E+02  0.19999985771E+02 0.  0.
         12    1    3    3    0    0 -0.25796426528E+02  0.16334116045E+02  0.30844198420E+02  0.43400732076E+02  0.00000000000E+00 0. -1.
         11    1    4    4    0    0  0.73327714192E+01 -0.24300177981E+01 -0.81699750405E+01  0.11243798985E+02  0.51100000000E-03 0.  1.
        -11    1    4    4    0    0  0.20878038486E+02 -0.10813011509E+02 -0.14899453333E+02  0.27835362739E+02  0.51100000000E-03 0. -1.
        -12    1    4    4    0    0 -0.24143833772E+01 -0.30910867381E+01 -0.77747700468E+01  0.87081062003E+01  0.00000000000E+00 0.  1.
</event>
<event>
 8    1  0.4798632E-010  0.9118800E+02  0.7816164E-02  0.1184000E+00
        -11   -1    0    0    0    0  0.00000000000E+00  0.00000000000E+00  0.45593999997E+02  0.45594000000E+02  0.51100000000E-03 0. -1.
         11   -1    0    0    0    0 -0.00000000000E+00 -0.00000000000E+00 -0.45593999997E+02  0.45594000000E+02  0.51100000000E-03 0.  1.
         23    2    1    2    0    0  0.55511151231E-16  0.35527136788E-14 -0.71054273576E-14  0.91188000000E+02  0.91188000000E+02 0.  0.
    9900012    2    3    3    0    0 -0.27924619282E+00  0.25592416605E+02 -0.35051021570E+02  0.47787264070E+02  0.19999968202E+02 0.  0.
         12    1    3    3    0    0  0.27924619282E+00 -0.25592416605E+02  0.35051021570E+02  0.43400735930E+02  0.00000000000E+00 0. -1.
         11    1    4    4    0    0  0.58295490808E+00  0.45325887553E+01  0.95381117938E+00  0.46683994341E+01  0.51100000000E-03 0. -1.
        -11    1    4    4    0    0 -0.23652647649E+00  0.96226370384E+01 -0.26633317566E+02  0.28319334264E+02  0.51100000000E-03 0.  1.
        -12    1    4    4    0    0 -0.62567462441E+00  0.11437190811E+02 -0.93715151840E+01  0.14799530372E+02  0.00000000000E+00 0.  1.
</event>
<event>
 8    1  0.4798632E-010  0.9118800E+02  0.7816164E-02  0.1184000E+00
        -11   -1    0    0    0    0  0.00000000000E+00  0.00000000000E+00  0.45593999997E+02  0.45594000000E+02  0.51100000000E-03 0. -1.
         11   -1    0    0    0    0 -0.00000000000E+00 -0.00000000000E+00 -0.45593999997E+02  0.45594000000E+02  0.51100000000E-03 0.  1.
         23    2    1    2    0    0  0.00000000000E+00  0.00000000000E+00  0.71054273576E-14  0.91188000000E+02  0.91188000000E+02 0.  0.
    9900012    2    3    3    0    0  0.12584249722E+02  0.70500960093E+01  0.40933551560E+02  0.47787276065E+02  0.20000022889E+02 0.  0.
        -12    1    3    3    0    0 -0.12584249722E+02 -0.70500960093E+01 -0.40933551560E+02  0.43400723935E+02  0.00000000000E+00 0.  1.
         11    1    4    4    0    0  0.69962897995E+01  0.11327619056E+00  0.23950477421E+01  0.73957525920E+01  0.51100000000E-03 0.  1.
        -11    1    4    4    0    0  0.74006127215E+01  0.60334549933E+01  0.35327766448E+02  0.36595392200E+02  0.51100000000E-03 0. -1.
        -12    1    4    4    0    0 -0.18126527994E+01  0.90336482537E+00  0.32107373698E+01  0.37961312723E+01  0.00000000000E+00 0.  1.
</event>
<event>
 8    1  0.6283015E-010  0.9118800E+02  0.7816164E-02  0.1184000E+00
        -11   -1    0    0    0    0  0.00000000000E+00  0.00000000000E+00  0.45593999997E+02  0.45594000000E+02  0.51100000000E-03 0. -1.
         11   -1    0    0    0    0 -0.00000000000E+00 -0.00000000000E+00 -0.45593999997E+02  0.45594000000E+02  0.51100000000E-03 0.  1.
         23    2    1    2    0    0  0.00000000000E+00  0.00000000000E+00  0.00000000000E+00  0.91188000000E+02  0.91188000000E+02 0.  0.
    9900012    2    3    3    0    0 -0.35567816445E+02  0.41903112818E+01 -0.24515192928E+02  0.47787274665E+02  0.20000016509E+02 0.  0.
         12    1    3    3    0    0  0.35567816445E+02 -0.41903112818E+01  0.24515192928E+02  0.43400725335E+02  0.00000000000E+00 0. -1.
         11    1    4    4    0    0  0.18268876109E+01  0.19294088477E-02 -0.11219423908E+01  0.21438929672E+01  0.51100000000E-03 0. -1.
        -11    1    4    4    0    0 -0.25313398785E+02  0.19119564907E+00 -0.10138728505E+02  0.27269003095E+02  0.51100000000E-03 0.  1.
        -12    1    4    4    0    0 -0.12081305271E+02  0.39971862239E+01 -0.13254522032E+02  0.18374378603E+02  0.00000000000E+00 0.  1.
</event>
<event>
 8    1  0.4798632E-010  0.9118800E+02  0.7816164E-02  0.1184000E+00
        -11   -1    0    0    0    0  0.00000000000E+00  0.00000000000E+00  0.45593999997E+02  0.45594000000E+02  0.51100000000E-03 0.  1.
         11   -1    0    0    0    0 -0.00000000000E+00 -0.00000000000E+00 -0.45593999997E+02  0.45594000000E+02  0.51100000000E-03 0. -1.
         23    2    1    2    0    0  0.00000000000E+00 -0.35527136788E-14  0.88817841970E-15  0.91188000000E+02  0.91188000000E+02 0.  0.
    9900012    2    3    3    0    0  0.38986141412E+02  0.17583662559E+02 -0.73836812866E+01  0.47787272350E+02  0.20000005952E+02 0.  0.
         12    1    3    3    0    0 -0.38986141412E+02 -0.17583662559E+02  0.73836812866E+01  0.43400727650E+02  0.00000000000E+00 0. -1.
         11    1    4    4    0    0  0.55783823206E+01  0.57242549159E+01 -0.81990922075E+01  0.11450351826E+02  0.51100000000E-03 0. -1.
        -11    1    4    4    0    0  0.29107266910E+02  0.10268004970E+02 -0.20441034321E+01  0.30932883347E+02  0.51100000000E-03 0.  1.
         12    1    4    4    0    0  0.43004921815E+01  0.15914026729E+01  0.28595143530E+01  0.54040371766E+01  0.00000000000E+00 0. -1.
</event>
<event>
 8    1  0.4798632E-010  0.9118800E+02  0.7816164E-02  0.1184000E+00
        -11   -1    0    0    0    0  0.00000000000E+00  0.00000000000E+00  0.45593999997E+02  0.45594000000E+02  0.51100000000E-03 0. -1.
         11   -1    0    0    0    0 -0.00000000000E+00 -0.00000000000E+00 -0.45593999997E+02  0.45594000000E+02  0.51100000000E-03 0.  1.
         23    2    1    2    0    0 -0.71054273576E-14 -0.88817841970E-15  0.00000000000E+00  0.91188000000E+02  0.91188000000E+02 0.  0.
    9900012    2    3    3    0    0  0.29156479002E+02  0.70925880515E+01 -0.31356307925E+02  0.47787272820E+02  0.20000008096E+02 0.  0.
         12    1    3    3    0    0 -0.29156479002E+02 -0.70925880515E+01  0.31356307925E+02  0.43400727180E+02  0.00000000000E+00 0. -1.
         11    1    4    4    0    0  0.24189378854E+01  0.53108543062E+01 -0.10151939445E+02  0.11709752718E+02  0.51100000000E-03 0. -1.
        -11    1    4    4    0    0  0.17631065505E+02 -0.44053504224E+01 -0.13553677366E+02  0.22670768703E+02  0.51100000000E-03 0.  1.
         12    1    4    4    0    0  0.91064756118E+01  0.61870841677E+01 -0.76506911133E+01  0.13406751399E+02  0.00000000000E+00 0. -1.
</event>
<event>
 8    1  0.4798632E-010  0.9118800E+02  0.7816164E-02  0.1184000E+00
        -11   -1    0    0    0    0  0.00000000000E+00  0.00000000000E+00  0.45593999997E+02  0.45594000000E+02  0.51100000000E-03 0. -1.
         11   -1    0    0    0    0 -0.00000000000E+00 -0.00000000000E+00 -0.45593999997E+02  0.45594000000E+02  0.51100000000E-03 0.  1.
         23    2    1    2    0    0  0.00000000000E+00  0.00000000000E+00 -0.71054273576E-14  0.91188000000E+02  0.91188000000E+02 0.  0.
    9900012    2    3    3    0    0 -0.92941285562E+01 -0.32414798933E+01 -0.42269798135E+02  0.47787264385E+02  0.19999969639E+02 0.  0.
         12    1    3    3    0    0  0.92941285562E+01  0.32414798933E+01  0.42269798135E+02  0.43400735615E+02  0.00000000000E+00 0. -1.
         11    1    4    4    0    0  0.30412639222E+01  0.74539513003E+00 -0.36673245415E+01  0.48222577387E+01  0.51100000000E-03 0. -1.
        -11    1    4    4    0    0 -0.88918468106E+01  0.40409928236E+01 -0.16157582504E+02  0.18880202206E+02  0.51100000000E-03 0.  1.
        -12    1    4    4    0    0 -0.34435456678E+01 -0.80278678469E+01 -0.22444891089E+02  0.24084804441E+02  0.00000000000E+00 0.  1.
</event>
<event>
 8    1  0.4798632E-010  0.9118800E+02  0.7816164E-02  0.1184000E+00
        -11   -1    0    0    0    0  0.00000000000E+00  0.00000000000E+00  0.45593999997E+02  0.45594000000E+02  0.51100000000E-03 0. -1.
         11   -1    0    0    0    0 -0.00000000000E+00 -0.00000000000E+00 -0.45593999997E+02  0.45594000000E+02  0.51100000000E-03 0.  1.
         23    2    1    2    0    0  0.00000000000E+00  0.17763568394E-14  0.71054273576E-14  0.91188000000E+02  0.91188000000E+02 0.  0.
    9900012    2    3    3    0    0  0.89778707448E+01  0.10960501600E+02  0.41023026657E+02  0.47787268733E+02  0.19999989462E+02 0.  0.
        -12    1    3    3    0    0 -0.89778707448E+01 -0.10960501600E+02 -0.41023026657E+02  0.43400731267E+02  0.00000000000E+00 0.  1.
         11    1    4    4    0    0 -0.19046859517E+01  0.72418674559E+01  0.29787514276E+02  0.30714304157E+02  0.51100000000E-03 0. -1.
        -11    1    4    4    0    0  0.76564171747E+01  0.52487515623E+01  0.79952666493E+01  0.12251302215E+02  0.51100000000E-03 0.  1.
        -12    1    4    4    0    0  0.32261395218E+01 -0.15301174180E+01  0.32402457313E+01  0.48216623612E+01  0.00000000000E+00 0.  1.
</event>
<event>
 8    1  0.4798632E-010  0.9118800E+02  0.7816164E-02  0.1184000E+00
        -11   -1    0    0    0    0  0.00000000000E+00  0.00000000000E+00  0.45593999997E+02  0.45594000000E+02  0.51100000000E-03 0. -1.
         11   -1    0    0    0    0 -0.00000000000E+00 -0.00000000000E+00 -0.45593999997E+02  0.45594000000E+02  0.51100000000E-03 0.  1.
         23    2    1    2    0    0  0.00000000000E+00  0.00000000000E+00  0.00000000000E+00  0.91188000000E+02  0.91188000000E+02 0.  0.
    9900012    2    3    3    0    0  0.21416006742E+02 -0.17488658014E+02 -0.33453324976E+02  0.47787268948E+02  0.19999990443E+02 0.  0.
         12    1    3    3    0    0 -0.21416006742E+02  0.17488658014E+02  0.33453324976E+02  0.43400731052E+02  0.00000000000E+00 0. -1.
         11    1    4    4    0    0  0.58725462529E+01 -0.49961970914E+01 -0.22723224631E+02  0.23995702172E+02  0.51100000000E-03 0. -1.
        -11    1    4    4    0    0  0.32987897881E+00 -0.31098219977E+01 -0.29445490348E+01  0.42953675369E+01  0.51100000000E-03 0.  1.
         12    1    4    4    0    0  0.15213581510E+02 -0.93826389247E+01 -0.77855513104E+01  0.19496199239E+02  0.00000000000E+00 0. -1.
</event>
<event>
 8    1  0.4798632E-010  0.9118800E+02  0.7816164E-02  0.1184000E+00
        -11   -1    0    0    0    0  0.00000000000E+00  0.00000000000E+00  0.45593999997E+02  0.45594000000E+02  0.51100000000E-03 0. -1.
         11   -1    0    0    0    0 -0.00000000000E+00 -0.00000000000E+00 -0.45593999997E+02  0.45594000000E+02  0.51100000000E-03 0.  1.
         23    2    1    2    0    0  0.17763568394E-14  0.71054273576E-14 -0.35527136788E-14  0.91188000000E+02  0.91188000000E+02 0.  0.
    9900012    2    3    3    0    0 -0.88815466565E+01 -0.38052585876E+02  0.18887615836E+02  0.47787271955E+02  0.20000004152E+02 0.  0.
        -12    1    3    3    0    0  0.88815466565E+01  0.38052585876E+02 -0.18887615836E+02  0.43400728045E+02  0.00000000000E+00 0.  1.
         11    1    4    4    0    0 -0.27301425169E+01 -0.34958846001E+02  0.18546707910E+02  0.39668059777E+02  0.51100000000E-03 0. -1.
        -11    1    4    4    0    0 -0.49644385950E+01 -0.37818334927E+01  0.13879873033E+01  0.63933108907E+01  0.51100000000E-03 0.  1.
         12    1    4    4    0    0 -0.11869655447E+01  0.68809361783E+00 -0.10470793774E+01  0.17259012874E+01  0.00000000000E+00 0. -1.
</event>
<event>
 8    1  0.4798632E-010  0.9118800E+02  0.7816164E-02  0.1184000E+00
        -11   -1    0    0    0    0  0.00000000000E+00  0.00000000000E+00  0.45593999997E+02  0.45594000000E+02  0.51100000000E-03 0. -1.
         11   -1    0    0    0    0 -0.00000000000E+00 -0.00000000000E+00 -0.45593999997E+02  0.45594000000E+02  0.51100000000E-03 0.  1.
         23    2    1    2    0    0  0.35527136788E-14 -0.71054273576E-14  0.00000000000E+00  0.91188000000E+02  0.91188000000E+02 0.  0.
    9900012    2    3    3    0    0  0.19294993864E+02 -0.36617706026E+02  0.13056422757E+02  0.47787270075E+02  0.19999995578E+02 0.  0.
        -12    1    3    3    0    0 -0.19294993864E+02  0.36617706026E+02 -0.13056422757E+02  0.43400729925E+02  0.00000000000E+00 0.  1.
         11    1    4    4    0    0 -0.68290023429E+00 -0.10420882789E+00 -0.17378610373E+01  0.18701265882E+01  0.51100000000E-03 0.  1.
        -11    1    4    4    0    0  0.14990228432E+02 -0.35070928975E+02  0.14171042221E+02  0.40687780052E+02  0.51100000000E-03 0. -1.
         12    1    4    4    0    0  0.49876656660E+01 -0.14425682230E+01  0.62324157342E+00  0.52293634348E+01  0.00000000000E+00 0. -1.
</event>
<event>
 8    1  0.4798632E-010  0.9118800E+02  0.7816164E-02  0.1184000E+00
        -11   -1    0    0    0    0  0.00000000000E+00  0.00000000000E+00  0.45593999997E+02  0.45594000000E+02  0.51100000000E-03 0. -1.
         11   -1    0    0    0    0 -0.00000000000E+00 -0.00000000000E+00 -0.45593999997E+02  0.45594000000E+02  0.51100000000E-03 0.  1.
         23    2    1    2    0    0  0.00000000000E+00  0.17763568394E-14  0.00000000000E+00  0.91188000000E+02  0.91188000000E+02 0.  0.
    9900012    2    3    3    0    0 -0.75202624061E+01 -0.13313609136E+02 -0.40617937040E+02  0.47787270234E+02  0.19999996304E+02 0.  0.
         12    1    3    3    0    0  0.75202624061E+01  0.13313609136E+02  0.40617937040E+02  0.43400729766E+02  0.00000000000E+00 0. -1.
         11    1    4    4    0    0 -0.13911259997E+01  0.18181624898E+01  0.42329773442E+00  0.23281167538E+01  0.51100000000E-03 0. -1.
        -11    1    4    4    0    0 -0.55287884591E+00 -0.13798573712E+02 -0.29493035947E+02  0.32566017275E+02  0.51100000000E-03 0.  1.
        -12    1    4    4    0    0 -0.55762575605E+01 -0.13331979136E+01 -0.11548198827E+02  0.12893136205E+02  0.00000000000E+00 0.  1.
</event>
<event>
 8    1  0.4798632E-010  0.9118800E+02  0.7816164E-02  0.1184000E+00
        -11   -1    0    0    0    0  0.00000000000E+00  0.00000000000E+00  0.45593999997E+02  0.45594000000E+02  0.51100000000E-03 0. -1.
         11   -1    0    0    0    0 -0.00000000000E+00 -0.00000000000E+00 -0.45593999997E+02  0.45594000000E+02  0.51100000000E-03 0.  1.
         23    2    1    2    0    0  0.00000000000E+00  0.00000000000E+00  0.71054273576E-14  0.91188000000E+02  0.91188000000E+02 0.  0.
    9900012    2    3    3    0    0  0.17095826971E+02  0.12934121763E+02 -0.37736780534E+02  0.47787269468E+02  0.19999992815E+02 0.  0.
         12    1    3    3    0    0 -0.17095826971E+02 -0.12934121763E+02  0.37736780534E+02  0.43400730532E+02  0.00000000000E+00 0. -1.
         11    1    4    4    0    0  0.34307451271E+01  0.16398310087E+01  0.14464551032E+01  0.40683277266E+01  0.51100000000E-03 0. -1.
        -11    1    4    4    0    0  0.89931864053E+01  0.56283946899E+01 -0.30790093124E+02  0.32566640345E+02  0.51100000000E-03 0.  1.
        -12    1    4    4    0    0  0.46718954386E+01  0.56658960645E+01 -0.83931425127E+01  0.11152301397E+02  0.00000000000E+00 0.  1.
</event>
<event>
 8    1  0.4798632E-010  0.9118800E+02  0.7816164E-02  0.1184000E+00
        -11   -1    0    0    0    0  0.00000000000E+00  0.00000000000E+00  0.45593999997E+02  0.45594000000E+02  0.51100000000E-03 0.  1.
         11   -1    0    0    0    0 -0.00000000000E+00 -0.00000000000E+00 -0.45593999997E+02  0.45594000000E+02  0.51100000000E-03 0. -1.
         23    2    1    2    0    0 -0.71054273576E-14  0.88817841970E-15 -0.88817841970E-15  0.91188000000E+02  0.91188000000E+02 0.  0.
    9900012    2    3    3    0    0 -0.42675678286E+02  0.63501684326E+01  0.46994493587E+01  0.47787274423E+02  0.20000015406E+02 0.  0.
        -12    1    3    3    0    0  0.42675678286E+02 -0.63501684326E+01 -0.46994493587E+01  0.43400725577E+02  0.00000000000E+00 0.  1.
         11    1    4    4    0    0 -0.83640095615E+01  0.67195180702E+01 -0.31884884468E+01  0.11192633197E+02  0.51100000000E-03 0. -1.
        -11    1    4    4    0    0 -0.59696403351E+01 -0.36268999253E+00 -0.23984842342E+01  0.64436695015E+01  0.51100000000E-03 0.  1.
         12    1    4    4    0    0 -0.28342028389E+02 -0.66596450964E-02  0.10286422040E+02  0.30150971725E+02  0.00000000000E+00 0. -1.
</event>
<event>
 8    1  0.4798632E-010  0.9118800E+02  0.7816164E-02  0.1184000E+00
        -11   -1    0    0    0    0  0.00000000000E+00  0.00000000000E+00  0.45593999997E+02  0.45594000000E+02  0.51100000000E-03 0. -1.
         11   -1    0    0    0    0 -0.00000000000E+00 -0.00000000000E+00 -0.45593999997E+02  0.45594000000E+02  0.51100000000E-03 0.  1.
         23    2    1    2    0    0  0.00000000000E+00  0.35527136788E-14  0.00000000000E+00  0.91188000000E+02  0.91188000000E+02 0.  0.
    9900012    2    3    3    0    0 -0.84261907077E+01 -0.31517427783E+02 -0.28622968912E+02  0.47787270821E+02  0.19999998982E+02 0.  0.
         12    1    3    3    0    0  0.84261907077E+01  0.31517427783E+02  0.28622968912E+02  0.43400729179E+02  0.00000000000E+00 0. -1.
         11    1    4    4    0    0 -0.83699206609E+01 -0.21338885168E+02 -0.15003626344E+02  0.27395481303E+02  0.51100000000E-03 0.  1.
        -11    1    4    4    0    0  0.55966948216E+01 -0.53501248234E+01 -0.69649931612E+01  0.10414315078E+02  0.51100000000E-03 0. -1.
        -12    1    4    4    0    0 -0.56529648684E+01 -0.48284177920E+01 -0.66543494071E+01  0.99774744404E+01  0.00000000000E+00 0.  1.
</event>
<event>
 8    1  0.4798632E-010  0.9118800E+02  0.7816164E-02  0.1184000E+00
        -11   -1    0    0    0    0  0.00000000000E+00  0.00000000000E+00  0.45593999997E+02  0.45594000000E+02  0.51100000000E-03 0.  1.
         11   -1    0    0    0    0 -0.00000000000E+00 -0.00000000000E+00 -0.45593999997E+02  0.45594000000E+02  0.51100000000E-03 0. -1.
         23    2    1    2    0    0  0.00000000000E+00  0.00000000000E+00 -0.71054273576E-14  0.91188000000E+02  0.91188000000E+02 0.  0.
    9900012    2    3    3    0    0 -0.15907292877E+02  0.22850271000E+02  0.33293337171E+02  0.47787272456E+02  0.20000006434E+02 0.  0.
        -12    1    3    3    0    0  0.15907292877E+02 -0.22850271000E+02 -0.33293337171E+02  0.43400727544E+02  0.00000000000E+00 0.  1.
         11    1    4    4    0    0  0.29005883864E+01  0.86378469768E+00  0.55676518819E+01  0.63370564721E+01  0.51100000000E-03 0. -1.
        -11    1    4    4    0    0  0.11338208281E+00  0.73216595453E+00  0.49406312848E+01  0.49958743214E+01  0.51100000000E-03 0.  1.
         12    1    4    4    0    0 -0.18921263346E+02  0.21254320348E+02  0.22785054004E+02  0.36454341662E+02  0.00000000000E+00 0. -1.
</event>
<event>
 8    1  0.4798632E-010  0.9118800E+02  0.7816164E-02  0.1184000E+00
        -11   -1    0    0    0    0  0.00000000000E+00  0.00000000000E+00  0.45593999997E+02  0.45594000000E+02  0.51100000000E-03 0. -1.
         11   -1    0    0    0    0 -0.00000000000E+00 -0.00000000000E+00 -0.45593999997E+02  0.45594000000E+02  0.51100000000E-03 0.  1.
         23    2    1    2    0    0  0.44408920985E-15  0.00000000000E+00  0.00000000000E+00  0.91188000000E+02  0.91188000000E+02 0.  0.
    9900012    2    3    3    0    0 -0.39652525777E+01 -0.20353356325E+02  0.38126641797E+02  0.47787272398E+02  0.20000006171E+02 0.  0.
        -12    1    3    3    0    0  0.39652525777E+01  0.20353356325E+02 -0.38126641797E+02  0.43400727602E+02  0.00000000000E+00 0.  1.
         11    1    4    4    0    0 -0.71559578568E+01 -0.11977116104E+02  0.32430020827E+02  0.35303899135E+02  0.51100000000E-03 0. -1.
        -11    1    4    4    0    0  0.47020293941E+00 -0.23202829670E+01 -0.14121206366E+01  0.27566082066E+01  0.51100000000E-03 0.  1.
         12    1    4    4    0    0  0.27205023397E+01 -0.60559572535E+01  0.71087416066E+01  0.97267650566E+01  0.00000000000E+00 0. -1.
</event>
<event>
 8    1  0.4798632E-010  0.9118800E+02  0.7816164E-02  0.1184000E+00
        -11   -1    0    0    0    0  0.00000000000E+00  0.00000000000E+00  0.45593999997E+02  0.45594000000E+02  0.51100000000E-03 0. -1.
         11   -1    0    0    0    0 -0.00000000000E+00 -0.00000000000E+00 -0.45593999997E+02  0.45594000000E+02  0.51100000000E-03 0.  1.
         23    2    1    2    0    0  0.35527136788E-14  0.00000000000E+00 -0.17763568394E-14  0.91188000000E+02  0.91188000000E+02 0.  0.
    9900012    2    3    3    0    0  0.19411759797E+02  0.36802255770E+02 -0.12345020827E+02  0.47787285865E+02  0.20000067575E+02 0.  0.
         12    1    3    3    0    0 -0.19411759797E+02 -0.36802255770E+02  0.12345020827E+02  0.43400714135E+02  0.00000000000E+00 0. -1.
         11    1    4    4    0    0 -0.13734539048E+01  0.51424088636E+01  0.38566962600E+01  0.65730396965E+01  0.51100000000E-03 0. -1.
        -11    1    4    4    0    0  0.11804228463E+02  0.18222682446E+02 -0.99826774743E+01  0.23896857847E+02  0.51100000000E-03 0.  1.
         12    1    4    4    0    0  0.89809852388E+01  0.13437164461E+02 -0.62190396127E+01  0.17317388322E+02  0.00000000000E+00 0. -1.
</event>
<event>
 8    1  0.4798632E-010  0.9118800E+02  0.7816164E-02  0.1184000E+00
        -11   -1    0    0    0    0  0.00000000000E+00  0.00000000000E+00  0.45593999997E+02  0.45594000000E+02  0.51100000000E-03 0. -1.
         11   -1    0    0    0    0 -0.00000000000E+00 -0.00000000000E+00 -0.45593999997E+02  0.45594000000E+02  0.51100000000E-03 0.  1.
         23    2    1    2    0    0  0.00000000000E+00  0.00000000000E+00  0.00000000000E+00  0.91188000000E+02  0.91188000000E+02 0.  0.
    9900012    2    3    3    0    0  0.23830987548E+02 -0.12960715958E+02 -0.33878122180E+02  0.47787270881E+02  0.19999999254E+02 0.  0.
         12    1    3    3    0    0 -0.23830987548E+02  0.12960715958E+02  0.33878122180E+02  0.43400729119E+02  0.00000000000E+00 0. -1.
         11    1    4    4    0    0  0.13105574239E+02 -0.55164726834E+01 -0.50653799877E+01  0.15094556028E+02  0.51100000000E-03 0. -1.
        -11    1    4    4    0    0  0.10700971612E+02 -0.84475555096E+01 -0.22556981479E+02  0.26356961153E+02  0.51100000000E-03 0.  1.
         12    1    4    4    0    0  0.24441696420E-01  0.10033122350E+01 -0.62557607131E+01  0.63357536992E+01  0.00000000000E+00 0. -1.
</event>
<event>
 8    1  0.4798632E-010  0.9118800E+02  0.7816164E-02  0.1184000E+00
        -11   -1    0    0    0    0  0.00000000000E+00  0.00000000000E+00  0.45593999997E+02  0.45594000000E+02  0.51100000000E-03 0. -1.
         11   -1    0    0    0    0 -0.00000000000E+00 -0.00000000000E+00 -0.45593999997E+02  0.45594000000E+02  0.51100000000E-03 0.  1.
         23    2    1    2    0    0 -0.71054273576E-14  0.00000000000E+00  0.17763568394E-14  0.91188000000E+02  0.91188000000E+02 0.  0.
    9900012    2    3    3    0    0  0.38289507507E+02  0.16341628546E+02 -0.12267358299E+02  0.47787270878E+02  0.19999999242E+02 0.  0.
         12    1    3    3    0    0 -0.38289507507E+02 -0.16341628546E+02  0.12267358299E+02  0.43400729122E+02  0.00000000000E+00 0. -1.
         11    1    4    4    0    0  0.18329880350E+02  0.63338170203E+01  0.32174982267E+01  0.19658434495E+02  0.51100000000E-03 0. -1.
        -11    1    4    4    0    0  0.11673633382E+02  0.83612022938E+01 -0.12877387889E+02  0.19287574737E+02  0.51100000000E-03 0.  1.
         12    1    4    4    0    0  0.82859937753E+01  0.16466092316E+01 -0.26074686366E+01  0.88412616462E+01  0.00000000000E+00 0. -1.
</event>
<event>
 8    1  0.4798632E-010  0.9118800E+02  0.7816164E-02  0.1184000E+00
        -11   -1    0    0    0    0  0.00000000000E+00  0.00000000000E+00  0.45593999997E+02  0.45594000000E+02  0.51100000000E-03 0.  1.
         11   -1    0    0    0    0 -0.00000000000E+00 -0.00000000000E+00 -0.45593999997E+02  0.45594000000E+02  0.51100000000E-03 0. -1.
         23    2    1    2    0    0  0.00000000000E+00  0.35527136788E-14  0.88817841970E-15  0.91188000000E+02  0.91188000000E+02 0.  0.
    9900012    2    3    3    0    0 -0.41368865425E+02 -0.11685021913E+02 -0.59749755208E+01  0.47787273092E+02  0.20000009335E+02 0.  0.
         12    1    3    3    0    0  0.41368865425E+02  0.11685021913E+02  0.59749755208E+01  0.43400726908E+02  0.00000000000E+00 0. -1.
         11    1    4    4    0    0 -0.11757438049E+02 -0.86523240252E+01 -0.54004288780E+00  0.14607933019E+02  0.51100000000E-03 0. -1.
        -11    1    4    4    0    0 -0.14623177507E+02  0.45151233739E+01 -0.58719988647E+01  0.16392194191E+02  0.51100000000E-03 0.  1.
        -12    1    4    4    0    0 -0.14988249870E+02 -0.75478212618E+01  0.43706623171E+00  0.16787145882E+02  0.00000000000E+00 0.  1.
</event>
<event>
 8    1  0.4798632E-010  0.9118800E+02  0.7816164E-02  0.1184000E+00
        -11   -1    0    0    0    0  0.00000000000E+00  0.00000000000E+00  0.45593999997E+02  0.45594000000E+02  0.51100000000E-03 0. -1.
         11   -1    0    0    0    0 -0.00000000000E+00 -0.00000000000E+00 -0.45593999997E+02  0.45594000000E+02  0.51100000000E-03 0.  1.
         23    2    1    2    0    0 -0.83266726847E-15  0.00000000000E+00  0.00000000000E+00  0.91188000000E+02  0.91188000000E+02 0.  0.
    9900012    2    3    3    0    0 -0.40478313439E+00  0.35738350731E+02 -0.24621752609E+02  0.47787259639E+02  0.19999947996E+02 0.  0.
         12    1    3    3    0    0  0.40478313439E+00 -0.35738350731E+02  0.24621752609E+02  0.43400740361E+02  0.00000000000E+00 0. -1.
         11    1    4    4    0    0 -0.61544619476E+01  0.18025920678E+02 -0.71739364884E+01  0.20353785475E+02  0.51100000000E-03 0. -1.
        -11    1    4    4    0    0  0.54185274022E+01  0.17293416157E+02 -0.18719250385E+02  0.26054424131E+02  0.51100000000E-03 0.  1.
        -12    1    4    4    0    0  0.33115141103E+00  0.41901389607E+00  0.12714342642E+01  0.13790500319E+01  0.00000000000E+00 0.  1.
</event>
<event>
 8    1  0.4798632E-010  0.9118800E+02  0.7816164E-02  0.1184000E+00
        -11   -1    0    0    0    0  0.00000000000E+00  0.00000000000E+00  0.45593999997E+02  0.45594000000E+02  0.51100000000E-03 0. -1.
         11   -1    0    0    0    0 -0.00000000000E+00 -0.00000000000E+00 -0.45593999997E+02  0.45594000000E+02  0.51100000000E-03 0.  1.
         23    2    1    2    0    0 -0.22204460493E-15  0.00000000000E+00  0.00000000000E+00  0.91188000000E+02  0.91188000000E+02 0.  0.
    9900012    2    3    3    0    0 -0.63525018053E+00 -0.16487768484E+02 -0.40141910756E+02  0.47787273606E+02  0.20000011680E+02 0.  0.
         12    1    3    3    0    0  0.63525018053E+00  0.16487768484E+02  0.40141910756E+02  0.43400726394E+02  0.00000000000E+00 0. -1.
         11    1    4    4    0    0 -0.30990507885E+00 -0.35143050144E+01 -0.26484605578E+02  0.26718546251E+02  0.51100000000E-03 0. -1.
        -11    1    4    4    0    0  0.21222628582E+01 -0.92132710817E+00 -0.63618321470E+01  0.67694720479E+01  0.51100000000E-03 0.  1.
         12    1    4    4    0    0 -0.24476079599E+01 -0.12052136361E+02 -0.72954730312E+01  0.14299255307E+02  0.00000000000E+00 0. -1.
</event>
<event>
 8    1  0.4798632E-010  0.9118800E+02  0.7816164E-02  0.1184000E+00
        -11   -1    0    0    0    0  0.00000000000E+00  0.00000000000E+00  0.45593999997E+02  0.45594000000E+02  0.51100000000E-03 0. -1.
         11   -1    0    0    0    0 -0.00000000000E+00 -0.00000000000E+00 -0.45593999997E+02  0.45594000000E+02  0.51100000000E-03 0.  1.
         23    2    1    2    0    0 -0.17763568394E-14 -0.17763568394E-14  0.00000000000E+00  0.91188000000E+02  0.91188000000E+02 0.  0.
    9900012    2    3    3    0    0  0.14522048529E+02  0.66519692826E+01 -0.40354487625E+02  0.47787271201E+02  0.20000000713E+02 0.  0.
         12    1    3    3    0    0 -0.14522048529E+02 -0.66519692826E+01  0.40354487625E+02  0.43400728799E+02  0.00000000000E+00 0. -1.
         11    1    4    4    0    0  0.46625454472E+01 -0.56719381049E+01 -0.98938992134E+01  0.12320692100E+02  0.51100000000E-03 0. -1.
        -11    1    4    4    0    0  0.74578697504E+01  0.26128612383E+01 -0.10520001804E+02  0.13157404884E+02  0.51100000000E-03 0.  1.
         12    1    4    4    0    0  0.24016333308E+01  0.97110461492E+01 -0.19940586608E+02  0.22309174217E+02  0.00000000000E+00 0. -1.
</event>
<event>
 8    1  0.4798632E-010  0.9118800E+02  0.7816164E-02  0.1184000E+00
        -11   -1    0    0    0    0  0.00000000000E+00  0.00000000000E+00  0.45593999997E+02  0.45594000000E+02  0.51100000000E-03 0. -1.
         11   -1    0    0    0    0 -0.00000000000E+00 -0.00000000000E+00 -0.45593999997E+02  0.45594000000E+02  0.51100000000E-03 0.  1.
         23    2    1    2    0    0  0.88817841970E-15  0.00000000000E+00  0.00000000000E+00  0.91188000000E+02  0.91188000000E+02 0.  0.
    9900012    2    3    3    0    0 -0.45279472331E+01  0.16087099549E+02 -0.40054042941E+02  0.47787269200E+02  0.19999991591E+02 0.  0.
         12    1    3    3    0    0  0.45279472331E+01 -0.16087099549E+02  0.40054042941E+02  0.43400730800E+02  0.00000000000E+00 0. -1.
         11    1    4    4    0    0 -0.26226691452E+01 -0.42174122324E+01 -0.84324151048E+01  0.97862446395E+01  0.51100000000E-03 0. -1.
        -11    1    4    4    0    0  0.11186659692E+01  0.91063562073E+01 -0.17195446467E+02  0.19490010682E+02  0.51100000000E-03 0.  1.
         12    1    4    4    0    0 -0.30239440572E+01  0.11198155574E+02 -0.14426181369E+02  0.18511013878E+02  0.00000000000E+00 0. -1.
</event>
<event>
 8    1  0.4798632E-010  0.9118800E+02  0.7816164E-02  0.1184000E+00
        -11   -1    0    0    0    0  0.00000000000E+00  0.00000000000E+00  0.45593999997E+02  0.45594000000E+02  0.51100000000E-03 0. -1.
         11   -1    0    0    0    0 -0.00000000000E+00 -0.00000000000E+00 -0.45593999997E+02  0.45594000000E+02  0.51100000000E-03 0.  1.
         23    2    1    2    0    0  0.00000000000E+00  0.22204460493E-15  0.00000000000E+00  0.91188000000E+02  0.91188000000E+02 0.  0.
    9900012    2    3    3    0    0 -0.20219340463E+02 -0.15517639697E+01 -0.38371761399E+02  0.47787288335E+02  0.20000078835E+02 0.  0.
         12    1    3    3    0    0  0.20219340463E+02  0.15517639697E+01  0.38371761399E+02  0.43400711665E+02  0.00000000000E+00 0. -1.
         11    1    4    4    0    0 -0.15790098118E+02 -0.55197655676E+01 -0.21391141172E+02  0.27154666844E+02  0.51100000000E-03 0. -1.
        -11    1    4    4    0    0 -0.22166613902E+01  0.25611894926E+01 -0.17612784930E+02  0.17935536585E+02  0.51100000000E-03 0.  1.
         12    1    4    4    0    0 -0.22125809545E+01  0.14068121053E+01  0.63216470317E+00  0.26970849063E+01  0.00000000000E+00 0. -1.
</event>
<event>
 8    1  0.4798632E-010  0.9118800E+02  0.7816164E-02  0.1184000E+00
        -11   -1    0    0    0    0  0.00000000000E+00  0.00000000000E+00  0.45593999997E+02  0.45594000000E+02  0.51100000000E-03 0. -1.
         11   -1    0    0    0    0 -0.00000000000E+00 -0.00000000000E+00 -0.45593999997E+02  0.45594000000E+02  0.51100000000E-03 0.  1.
         23    2    1    2    0    0  0.00000000000E+00  0.00000000000E+00  0.00000000000E+00  0.91188000000E+02  0.91188000000E+02 0.  0.
    9900012    2    3    3    0    0 -0.81227570147E+01  0.27746730774E+02  0.32369173596E+02  0.47787266717E+02  0.19999980271E+02 0.  0.
        -12    1    3    3    0    0  0.81227570147E+01 -0.27746730774E+02 -0.32369173596E+02  0.43400733283E+02  0.00000000000E+00 0.  1.
         11    1    4    4    0    0  0.50025969507E+01  0.11943970707E+02  0.10369936453E+02  0.16589755719E+02  0.51100000000E-03 0. -1.
        -11    1    4    4    0    0 -0.10233201592E+01 -0.67342338767E+00  0.84601914843E-01  0.12279417544E+01  0.51100000000E-03 0.  1.
         12    1    4    4    0    0 -0.12102033806E+02  0.16476183454E+02  0.21914635229E+02  0.29969569244E+02  0.00000000000E+00 0. -1.
</event>
<event>
 8    1  0.4798632E-010  0.9118800E+02  0.7816164E-02  0.1184000E+00
        -11   -1    0    0    0    0  0.00000000000E+00  0.00000000000E+00  0.45593999997E+02  0.45594000000E+02  0.51100000000E-03 0. -1.
         11   -1    0    0    0    0 -0.00000000000E+00 -0.00000000000E+00 -0.45593999997E+02  0.45594000000E+02  0.51100000000E-03 0.  1.
         23    2    1    2    0    0  0.00000000000E+00  0.00000000000E+00  0.00000000000E+00  0.91188000000E+02  0.91188000000E+02 0.  0.
    9900012    2    3    3    0    0  0.11868979441E+02  0.25791129650E+02 -0.32826271573E+02  0.47787318589E+02  0.20000216772E+02 0.  0.
         12    1    3    3    0    0 -0.11868979441E+02 -0.25791129650E+02  0.32826271573E+02  0.43400681411E+02  0.00000000000E+00 0. -1.
         11    1    4    4    0    0 -0.29289707883E+01 -0.48690658329E+00 -0.61294062530E+01  0.68106952050E+01  0.51100000000E-03 0. -1.
        -11    1    4    4    0    0  0.13075073316E+02  0.22629810087E+02 -0.26031152129E+02  0.36887487421E+02  0.51100000000E-03 0.  1.
         12    1    4    4    0    0  0.17228769134E+01  0.36482261462E+01 -0.66571319106E+00  0.40891359632E+01  0.00000000000E+00 0. -1.
</event>
<event>
 8    1  0.4798632E-010  0.9118800E+02  0.7816164E-02  0.1184000E+00
        -11   -1    0    0    0    0  0.00000000000E+00  0.00000000000E+00  0.45593999997E+02  0.45594000000E+02  0.51100000000E-03 0. -1.
         11   -1    0    0    0    0 -0.00000000000E+00 -0.00000000000E+00 -0.45593999997E+02  0.45594000000E+02  0.51100000000E-03 0.  1.
         23    2    1    2    0    0  0.35527136788E-14  0.00000000000E+00  0.35527136788E-14  0.91188000000E+02  0.91188000000E+02 0.  0.
    9900012    2    3    3    0    0  0.31277234523E+02  0.25293661618E+01 -0.29982663600E+02  0.47787271790E+02  0.20000003400E+02 0.  0.
         12    1    3    3    0    0 -0.31277234523E+02 -0.25293661618E+01  0.29982663600E+02  0.43400728210E+02  0.00000000000E+00 0. -1.
         11    1    4    4    0    0  0.55741940085E+01  0.70455548407E+01 -0.32321307159E+01  0.95476777849E+01  0.51100000000E-03 0.  1.
        -11    1    4    4    0    0  0.24169717905E+02 -0.25546777590E+01 -0.26105080567E+02  0.35667588561E+02  0.51100000000E-03 0. -1.
         12    1    4    4    0    0  0.15333226090E+01 -0.19615109199E+01 -0.64545231716E+00  0.25720054444E+01  0.00000000000E+00 0. -1.
</event>
<event>
 8    1  0.4798632E-010  0.9118800E+02  0.7816164E-02  0.1184000E+00
        -11   -1    0    0    0    0  0.00000000000E+00  0.00000000000E+00  0.45593999997E+02  0.45594000000E+02  0.51100000000E-03 0. -1.
         11   -1    0    0    0    0 -0.00000000000E+00 -0.00000000000E+00 -0.45593999997E+02  0.45594000000E+02  0.51100000000E-03 0.  1.
         23    2    1    2    0    0  0.13322676296E-14  0.35527136788E-14  0.00000000000E+00  0.91188000000E+02  0.91188000000E+02 0.  0.
    9900012    2    3    3    0    0 -0.30493902415E+01  0.20032777826E+02 -0.38379843196E+02  0.47787270375E+02  0.19999996946E+02 0.  0.
         12    1    3    3    0    0  0.30493902415E+01 -0.20032777826E+02  0.38379843196E+02  0.43400729625E+02  0.00000000000E+00 0. -1.
         11    1    4    4    0    0  0.56799103726E+01  0.43428148689E+01 -0.10175384938E+02  0.12436232617E+02  0.51100000000E-03 0. -1.
        -11    1    4    4    0    0 -0.11360923603E+02  0.14388637338E+02 -0.25047336154E+02  0.31039853708E+02  0.51100000000E-03 0.  1.
        -12    1    4    4    0    0  0.26316229888E+01  0.13013256196E+01 -0.31571221046E+01  0.43111840493E+01  0.00000000000E+00 0.  1.
</event>
<event>
 8    1  0.4798632E-010  0.9118800E+02  0.7816164E-02  0.1184000E+00
        -11   -1    0    0    0    0  0.00000000000E+00  0.00000000000E+00  0.45593999997E+02  0.45594000000E+02  0.51100000000E-03 0. -1.
         11   -1    0    0    0    0 -0.00000000000E+00 -0.00000000000E+00 -0.45593999997E+02  0.45594000000E+02  0.51100000000E-03 0.  1.
         23    2    1    2    0    0  0.00000000000E+00  0.00000000000E+00  0.44408920985E-15  0.91188000000E+02  0.91188000000E+02 0.  0.
    9900012    2    3    3    0    0  0.41180885893E+02  0.13236312350E+02 -0.35437495523E+01  0.47787268572E+02  0.19999988729E+02 0.  0.
        -12    1    3    3    0    0 -0.41180885893E+02 -0.13236312350E+02  0.35437495523E+01  0.43400731428E+02  0.00000000000E+00 0.  1.
         11    1    4    4    0    0  0.29041168314E+02  0.12795734206E+02 -0.82766311468E+00  0.31745949307E+02  0.51100000000E-03 0. -1.
        -11    1    4    4    0    0  0.12534820281E+02 -0.13973087031E+01 -0.45567299478E+01  0.13410368346E+02  0.51100000000E-03 0.  1.
        -12    1    4    4    0    0 -0.39510270220E+00  0.18378868474E+01  0.18406435102E+01  0.26309509195E+01  0.00000000000E+00 0.  1.
</event>
<event>
 8    1  0.4798632E-010  0.9118800E+02  0.7816164E-02  0.1184000E+00
        -11   -1    0    0    0    0  0.00000000000E+00  0.00000000000E+00  0.45593999997E+02  0.45594000000E+02  0.51100000000E-03 0. -1.
         11   -1    0    0    0    0 -0.00000000000E+00 -0.00000000000E+00 -0.45593999997E+02  0.45594000000E+02  0.51100000000E-03 0.  1.
         23    2    1    2    0    0  0.00000000000E+00  0.35527136788E-14  0.00000000000E+00  0.91188000000E+02  0.91188000000E+02 0.  0.
    9900012    2    3    3    0    0  0.20385090969E+01 -0.15912856282E+02 -0.40326778787E+02  0.47787267267E+02  0.19999982778E+02 0.  0.
         12    1    3    3    0    0 -0.20385090969E+01  0.15912856282E+02  0.40326778787E+02  0.43400732733E+02  0.00000000000E+00 0. -1.
         11    1    4    4    0    0 -0.18423033595E+01  0.24062290032E+01 -0.62595568784E-01  0.30311611885E+01  0.51100000000E-03 0. -1.
        -11    1    4    4    0    0  0.17193225054E+01 -0.15398668626E+02 -0.28447240613E+02  0.32393217871E+02  0.51100000000E-03 0.  1.
        -12    1    4    4    0    0  0.21614899509E+01 -0.29204166588E+01 -0.11816942606E+02  0.12362888207E+02  0.00000000000E+00 0.  1.
</event>
<event>
 8    1  0.4798632E-010  0.9118800E+02  0.7816164E-02  0.1184000E+00
        -11   -1    0    0    0    0  0.00000000000E+00  0.00000000000E+00  0.45593999997E+02  0.45594000000E+02  0.51100000000E-03 0.  1.
         11   -1    0    0    0    0 -0.00000000000E+00 -0.00000000000E+00 -0.45593999997E+02  0.45594000000E+02  0.51100000000E-03 0. -1.
         23    2    1    2    0    0  0.00000000000E+00  0.71054273576E-14  0.00000000000E+00  0.91188000000E+02  0.91188000000E+02 0.  0.
    9900012    2    3    3    0    0  0.31233621020E+01 -0.41985109844E+02 -0.10541270559E+02  0.47787271614E+02  0.20000002596E+02 0.  0.
         12    1    3    3    0    0 -0.31233621020E+01  0.41985109844E+02  0.10541270559E+02  0.43400728386E+02  0.00000000000E+00 0. -1.
         11    1    4    4    0    0  0.81471311470E+00 -0.19299202426E+01  0.30108261149E+01  0.36678909140E+01  0.51100000000E-03 0. -1.
        -11    1    4    4    0    0  0.14933720091E+01 -0.27519465795E+02 -0.15160541366E+02  0.31454620843E+02  0.51100000000E-03 0.  1.
        -12    1    4    4    0    0  0.81527697818E+00 -0.12535723807E+02  0.16084446921E+01  0.12664759857E+02  0.00000000000E+00 0.  1.
</event>
<event>
 8    1  0.4798632E-010  0.9118800E+02  0.7816164E-02  0.1184000E+00
        -11   -1    0    0    0    0  0.00000000000E+00  0.00000000000E+00  0.45593999997E+02  0.45594000000E+02  0.51100000000E-03 0. -1.
         11   -1    0    0    0    0 -0.00000000000E+00 -0.00000000000E+00 -0.45593999997E+02  0.45594000000E+02  0.51100000000E-03 0.  1.
         23    2    1    2    0    0 -0.17763568394E-14  0.00000000000E+00  0.00000000000E+00  0.91188000000E+02  0.91188000000E+02 0.  0.
    9900012    2    3    3    0    0  0.15199544617E+02 -0.19223642312E+02 -0.35819664073E+02  0.47787275183E+02  0.20000018869E+02 0.  0.
         12    1    3    3    0    0 -0.15199544617E+02  0.19223642312E+02  0.35819664073E+02  0.43400724817E+02  0.00000000000E+00 0. -1.
         11    1    4    4    0    0 -0.23092965979E+01  0.74436358440E+00 -0.43120319501E+01  0.49477821013E+01  0.51100000000E-03 0. -1.
        -11    1    4    4    0    0  0.11091380551E+02 -0.14375625535E+02 -0.12589856162E+02  0.22094836738E+02  0.51100000000E-03 0.  1.
        -12    1    4    4    0    0  0.64174606637E+01 -0.55923803620E+01 -0.18917775962E+02  0.20744656344E+02  0.00000000000E+00 0.  1.
</event>
<event>
 8    1  0.4798632E-010  0.9118800E+02  0.7816164E-02  0.1184000E+00
        -11   -1    0    0    0    0  0.00000000000E+00  0.00000000000E+00  0.45593999997E+02  0.45594000000E+02  0.51100000000E-03 0.  1.
         11   -1    0    0    0    0 -0.00000000000E+00 -0.00000000000E+00 -0.45593999997E+02  0.45594000000E+02  0.51100000000E-03 0. -1.
         23    2    1    2    0    0  0.00000000000E+00  0.00000000000E+00  0.00000000000E+00  0.91188000000E+02  0.91188000000E+02 0.  0.
    9900012    2    3    3    0    0  0.37814977354E+02 -0.39482941048E+01  0.20929920496E+02  0.47787272926E+02  0.20000008577E+02 0.  0.
        -12    1    3    3    0    0 -0.37814977354E+02  0.39482941048E+01 -0.20929920496E+02  0.43400727074E+02  0.00000000000E+00 0.  1.
         11    1    4    4    0    0  0.19460787996E+02  0.24980736529E+01  0.56900537051E+01  0.20428885257E+02  0.51100000000E-03 0. -1.
        -11    1    4    4    0    0  0.90709125124E+01 -0.69339517886E+00  0.13529870402E+02  0.16303976326E+02  0.51100000000E-03 0.  1.
        -12    1    4    4    0    0  0.92832768455E+01 -0.57529725789E+01  0.17099963882E+01  0.11054411343E+02  0.00000000000E+00 0.  1.
</event>
<event>
 8    1  0.4798632E-010  0.9118800E+02  0.7816164E-02  0.1184000E+00
        -11   -1    0    0    0    0  0.00000000000E+00  0.00000000000E+00  0.45593999997E+02  0.45594000000E+02  0.51100000000E-03 0. -1.
         11   -1    0    0    0    0 -0.00000000000E+00 -0.00000000000E+00 -0.45593999997E+02  0.45594000000E+02  0.51100000000E-03 0.  1.
         23    2    1    2    0    0  0.35527136788E-14  0.11102230246E-14  0.00000000000E+00  0.91188000000E+02  0.91188000000E+02 0.  0.
    9900012    2    3    3    0    0 -0.21855635482E+02 -0.82243769263E+00 -0.37487042218E+02  0.47787267974E+02  0.19999986002E+02 0.  0.
         12    1    3    3    0    0  0.21855635482E+02  0.82243769263E+00  0.37487042218E+02  0.43400732026E+02  0.00000000000E+00 0. -1.
         11    1    4    4    0    0 -0.52088466703E+01  0.57014522687E+01 -0.28463177201E+01  0.82304414481E+01  0.51100000000E-03 0. -1.
        -11    1    4    4    0    0 -0.16186872928E+02 -0.46609882458E+01 -0.28316326079E+02  0.32947746349E+02  0.51100000000E-03 0.  1.
         12    1    4    4    0    0 -0.45991588392E+00 -0.18629017154E+01 -0.63243984190E+01  0.66090801769E+01  0.00000000000E+00 0. -1.
</event>
<event>
 8    1  0.4798632E-010  0.9118800E+02  0.7816164E-02  0.1184000E+00
        -11   -1    0    0    0    0  0.00000000000E+00  0.00000000000E+00  0.45593999997E+02  0.45594000000E+02  0.51100000000E-03 0. -1.
         11   -1    0    0    0    0 -0.00000000000E+00 -0.00000000000E+00 -0.45593999997E+02  0.45594000000E+02  0.51100000000E-03 0.  1.
         23    2    1    2    0    0  0.00000000000E+00 -0.17763568394E-14  0.00000000000E+00  0.91188000000E+02  0.91188000000E+02 0.  0.
    9900012    2    3    3    0    0  0.29196335271E+02  0.12100022578E+02  0.29745364843E+02  0.47787271097E+02  0.20000000240E+02 0.  0.
        -12    1    3    3    0    0 -0.29196335271E+02 -0.12100022578E+02 -0.29745364843E+02  0.43400728903E+02  0.00000000000E+00 0.  1.
         11    1    4    4    0    0  0.91826502184E+01 -0.31757932912E+01  0.13953596620E+02  0.17003222841E+02  0.51100000000E-03 0.  1.
        -11    1    4    4    0    0  0.19815929391E+02  0.15781449894E+02  0.16230693434E+02  0.30085887523E+02  0.51100000000E-03 0. -1.
         12    1    4    4    0    0  0.19775566140E+00 -0.50563402478E+00 -0.43892521167E+00  0.69816073369E+00  0.00000000000E+00 0. -1.
</event>
<event>
 8    1  0.4798632E-010  0.9118800E+02  0.7816164E-02  0.1184000E+00
        -11   -1    0    0    0    0  0.00000000000E+00  0.00000000000E+00  0.45593999997E+02  0.45594000000E+02  0.51100000000E-03 0. -1.
         11   -1    0    0    0    0 -0.00000000000E+00 -0.00000000000E+00 -0.45593999997E+02  0.45594000000E+02  0.51100000000E-03 0.  1.
         23    2    1    2    0    0 -0.71054273576E-14 -0.35527136788E-14 -0.17763568394E-14  0.91188000000E+02  0.91188000000E+02 0.  0.
    9900012    2    3    3    0    0  0.39608765377E+02  0.17538185563E+02  0.26796591757E+01  0.47787276264E+02  0.20000023798E+02 0.  0.
        -12    1    3    3    0    0 -0.39608765377E+02 -0.17538185563E+02 -0.26796591757E+01  0.43400723736E+02  0.00000000000E+00 0.  1.
         11    1    4    4    0    0  0.18849731366E+02  0.10869661593E+02  0.84826357111E+01  0.23354165037E+02  0.51100000000E-03 0. -1.
        -11    1    4    4    0    0  0.18768521264E+02  0.26617871440E+01 -0.31058727324E+01  0.19209085010E+02  0.51100000000E-03 0.  1.
         12    1    4    4    0    0  0.19905127472E+01  0.40067368263E+01 -0.26971038029E+01  0.52240262170E+01  0.00000000000E+00 0. -1.
</event>
<event>
 8    1  0.4798632E-010  0.9118800E+02  0.7816164E-02  0.1184000E+00
        -11   -1    0    0    0    0  0.00000000000E+00  0.00000000000E+00  0.45593999997E+02  0.45594000000E+02  0.51100000000E-03 0. -1.
         11   -1    0    0    0    0 -0.00000000000E+00 -0.00000000000E+00 -0.45593999997E+02  0.45594000000E+02  0.51100000000E-03 0.  1.
         23    2    1    2    0    0  0.00000000000E+00 -0.17763568394E-14  0.00000000000E+00  0.91188000000E+02  0.91188000000E+02 0.  0.
    9900012    2    3    3    0    0  0.14578693623E+02 -0.13947493033E+02  0.38425934219E+02  0.47787270856E+02  0.19999999139E+02 0.  0.
        -12    1    3    3    0    0 -0.14578693623E+02  0.13947493033E+02 -0.38425934219E+02  0.43400729144E+02  0.00000000000E+00 0.  1.
         11    1    4    4    0    0  0.83877731838E+01 -0.65230058117E+01  0.17931735800E+02  0.20843500015E+02  0.51100000000E-03 0. -1.
        -11    1    4    4    0    0  0.30156531281E+01 -0.11663949457E+02  0.15778319879E+02  0.19851883014E+02  0.51100000000E-03 0.  1.
        -12    1    4    4    0    0  0.31752673110E+01  0.42394622359E+01  0.47158785408E+01  0.70918878275E+01  0.00000000000E+00 0.  1.
</event>
<event>
 8    1  0.4798632E-010  0.9118800E+02  0.7816164E-02  0.1184000E+00
        -11   -1    0    0    0    0  0.00000000000E+00  0.00000000000E+00  0.45593999997E+02  0.45594000000E+02  0.51100000000E-03 0. -1.
         11   -1    0    0    0    0 -0.00000000000E+00 -0.00000000000E+00 -0.45593999997E+02  0.45594000000E+02  0.51100000000E-03 0.  1.
         23    2    1    2    0    0  0.00000000000E+00  0.35527136788E-14  0.00000000000E+00  0.91188000000E+02  0.91188000000E+02 0.  0.
    9900012    2    3    3    0    0 -0.25254542553E+02  0.27643481533E+02  0.21946972976E+02  0.47787267130E+02  0.19999982153E+02 0.  0.
        -12    1    3    3    0    0  0.25254542553E+02 -0.27643481533E+02 -0.21946972976E+02  0.43400732870E+02  0.00000000000E+00 0.  1.
         11    1    4    4    0    0 -0.10383070330E+02  0.13249855839E+01  0.74130442945E+01  0.12826416579E+02  0.51100000000E-03 0.  1.
        -11    1    4    4    0    0 -0.91581635959E+01  0.23896166127E+02  0.11718633483E+02  0.28146493334E+02  0.51100000000E-03 0. -1.
         12    1    4    4    0    0 -0.57133086273E+01  0.24223298222E+01  0.28152951984E+01  0.68143572178E+01  0.00000000000E+00 0. -1.
</event>
<event>
 8    1  0.4798632E-010  0.9118800E+02  0.7816164E-02  0.1184000E+00
        -11   -1    0    0    0    0  0.00000000000E+00  0.00000000000E+00  0.45593999997E+02  0.45594000000E+02  0.51100000000E-03 0.  1.
         11   -1    0    0    0    0 -0.00000000000E+00 -0.00000000000E+00 -0.45593999997E+02  0.45594000000E+02  0.51100000000E-03 0. -1.
         23    2    1    2    0    0  0.00000000000E+00  0.35527136788E-14  0.00000000000E+00  0.91188000000E+02  0.91188000000E+02 0.  0.
    9900012    2    3    3    0    0 -0.35445498730E+02 -0.22625609899E+02  0.10738781898E+02  0.47787273737E+02  0.20000012277E+02 0.  0.
        -12    1    3    3    0    0  0.35445498730E+02  0.22625609899E+02 -0.10738781898E+02  0.43400726263E+02  0.00000000000E+00 0.  1.
         11    1    4    4    0    0 -0.26686857692E+02 -0.18597332756E+02  0.12059916747E+02  0.34691364218E+02  0.51100000000E-03 0. -1.
        -11    1    4    4    0    0 -0.72692731136E+01 -0.45747309042E+01 -0.43865590328E+01  0.96442933829E+01  0.51100000000E-03 0.  1.
         12    1    4    4    0    0 -0.14893679248E+01  0.54645376121E+00  0.30654241835E+01  0.34516161365E+01  0.00000000000E+00 0. -1.
</event>
<event>
 8    1  0.4798632E-010  0.9118800E+02  0.7816164E-02  0.1184000E+00
        -11   -1    0    0    0    0  0.00000000000E+00  0.00000000000E+00  0.45593999997E+02  0.45594000000E+02  0.51100000000E-03 0. -1.
         11   -1    0    0    0    0 -0.00000000000E+00 -0.00000000000E+00 -0.45593999997E+02  0.45594000000E+02  0.51100000000E-03 0.  1.
         23    2    1    2    0    0  0.26645352591E-14  0.00000000000E+00  0.00000000000E+00  0.91188000000E+02  0.91188000000E+02 0.  0.
    9900012    2    3    3    0    0  0.61963098826E+01  0.86110244053E+01  0.42084171425E+02  0.47787291688E+02  0.20000094122E+02 0.  0.
        -12    1    3    3    0    0 -0.61963098826E+01 -0.86110244053E+01 -0.42084171425E+02  0.43400708312E+02  0.00000000000E+00 0.  1.
         11    1    4    4    0    0  0.83200087419E+01  0.61382924391E+01  0.11433186030E+02  0.15414892883E+02  0.51100000000E-03 0. -1.
        -11    1    4    4    0    0 -0.10550994357E+01 -0.15053424449E+01  0.26361114115E+02  0.26425132513E+02  0.51100000000E-03 0.  1.
        -12    1    4    4    0    0 -0.10685994236E+01  0.39780744112E+01  0.42898712805E+01  0.59472662923E+01  0.00000000000E+00 0.  1.
</event>
<event>
 8    1  0.4798632E-010  0.9118800E+02  0.7816164E-02  0.1184000E+00
        -11   -1    0    0    0    0  0.00000000000E+00  0.00000000000E+00  0.45593999997E+02  0.45594000000E+02  0.51100000000E-03 0. -1.
         11   -1    0    0    0    0 -0.00000000000E+00 -0.00000000000E+00 -0.45593999997E+02  0.45594000000E+02  0.51100000000E-03 0.  1.
         23    2    1    2    0    0  0.35527136788E-14  0.88817841970E-15  0.00000000000E+00  0.91188000000E+02  0.91188000000E+02 0.  0.
    9900012    2    3    3    0    0  0.26446758865E+02  0.35297046958E+01 -0.34230585043E+02  0.47787276249E+02  0.20000023731E+02 0.  0.
         12    1    3    3    0    0 -0.26446758865E+02 -0.35297046958E+01  0.34230585043E+02  0.43400723751E+02  0.00000000000E+00 0. -1.
         11    1    4    4    0    0  0.17032761663E+02  0.10211646013E+02 -0.17700515825E+02  0.26602649208E+02  0.51100000000E-03 0.  1.
        -11    1    4    4    0    0  0.16020381438E+01 -0.49329804350E+01 -0.74766721434E+01  0.90995301410E+01  0.51100000000E-03 0. -1.
        -12    1    4    4    0    0  0.78119590582E+01 -0.17489608827E+01 -0.90533970745E+01  0.12085096900E+02  0.00000000000E+00 0.  1.
</event>
<event>
 8    1  0.4798632E-010  0.9118800E+02  0.7816164E-02  0.1184000E+00
        -11   -1    0    0    0    0  0.00000000000E+00  0.00000000000E+00  0.45593999997E+02  0.45594000000E+02  0.51100000000E-03 0. -1.
         11   -1    0    0    0    0 -0.00000000000E+00 -0.00000000000E+00 -0.45593999997E+02  0.45594000000E+02  0.51100000000E-03 0.  1.
         23    2    1    2    0    0 -0.88817841970E-15  0.00000000000E+00  0.00000000000E+00  0.91188000000E+02  0.91188000000E+02 0.  0.
    9900012    2    3    3    0    0 -0.56371927043E+01  0.39454025529E+02  0.17182111280E+02  0.47787273968E+02  0.20000013331E+02 0.  0.
        -12    1    3    3    0    0  0.56371927043E+01 -0.39454025529E+02 -0.17182111280E+02  0.43400726032E+02  0.00000000000E+00 0.  1.
         11    1    4    4    0    0  0.55289404297E+01  0.27863642505E+02  0.10356829090E+02  0.30235999487E+02  0.51100000000E-03 0. -1.
        -11    1    4    4    0    0 -0.86443625979E+01  0.91045535428E+01  0.60034672618E+01  0.13916160367E+02  0.51100000000E-03 0.  1.
         12    1    4    4    0    0 -0.25217705361E+01  0.24858294816E+01  0.82181492807E+00  0.36351141143E+01  0.00000000000E+00 0. -1.
</event>
<event>
 8    1  0.4798632E-010  0.9118800E+02  0.7816164E-02  0.1184000E+00
        -11   -1    0    0    0    0  0.00000000000E+00  0.00000000000E+00  0.45593999997E+02  0.45594000000E+02  0.51100000000E-03 0. -1.
         11   -1    0    0    0    0 -0.00000000000E+00 -0.00000000000E+00 -0.45593999997E+02  0.45594000000E+02  0.51100000000E-03 0.  1.
         23    2    1    2    0    0 -0.35527136788E-14  0.00000000000E+00 -0.35527136788E-14  0.91188000000E+02  0.91188000000E+02 0.  0.
    9900012    2    3    3    0    0 -0.30486735665E+02  0.80847376505E+01 -0.29813074740E+02  0.47787268902E+02  0.19999990231E+02 0.  0.
         12    1    3    3    0    0  0.30486735665E+02 -0.80847376505E+01  0.29813074740E+02  0.43400731098E+02  0.00000000000E+00 0. -1.
         11    1    4    4    0    0  0.22189375497E+01 -0.12818080650E+01 -0.31781359779E+01  0.40825561012E+01  0.51100000000E-03 0. -1.
        -11    1    4    4    0    0 -0.25907976583E+02  0.94175505272E+01 -0.18989051235E+02  0.33473834194E+02  0.51100000000E-03 0.  1.
         12    1    4    4    0    0 -0.67976966318E+01 -0.51004811738E-01 -0.76458875273E+01  0.10230878607E+02  0.00000000000E+00 0. -1.
</event>
<event>
 8    1  0.4798632E-010  0.9118800E+02  0.7816164E-02  0.1184000E+00
        -11   -1    0    0    0    0  0.00000000000E+00  0.00000000000E+00  0.45593999997E+02  0.45594000000E+02  0.51100000000E-03 0. -1.
         11   -1    0    0    0    0 -0.00000000000E+00 -0.00000000000E+00 -0.45593999997E+02  0.45594000000E+02  0.51100000000E-03 0.  1.
         23    2    1    2    0    0  0.00000000000E+00  0.35527136788E-14 -0.71054273576E-14  0.91188000000E+02  0.91188000000E+02 0.  0.
    9900012    2    3    3    0    0 -0.22721130793E+02  0.25285445443E+02 -0.26981841028E+02  0.47787270962E+02  0.19999999623E+02 0.  0.
         12    1    3    3    0    0  0.22721130793E+02 -0.25285445443E+02  0.26981841028E+02  0.43400729038E+02  0.00000000000E+00 0. -1.
         11    1    4    4    0    0 -0.22352133067E+02  0.18089338036E+02 -0.17069296370E+02  0.33439540698E+02  0.51100000000E-03 0.  1.
        -11    1    4    4    0    0  0.33616849060E+01  0.43201774210E+01 -0.39569004834E+01  0.67544000513E+01  0.51100000000E-03 0. -1.
        -12    1    4    4    0    0 -0.37306826321E+01  0.28759299854E+01 -0.59556441750E+01  0.75933302129E+01  0.00000000000E+00 0.  1.
</event>
<event>
 8    1  0.4798632E-010  0.9118800E+02  0.7816164E-02  0.1184000E+00
        -11   -1    0    0    0    0  0.00000000000E+00  0.00000000000E+00  0.45593999997E+02  0.45594000000E+02  0.51100000000E-03 0.  1.
         11   -1    0    0    0    0 -0.00000000000E+00 -0.00000000000E+00 -0.45593999997E+02  0.45594000000E+02  0.51100000000E-03 0. -1.
         23    2    1    2    0    0  0.00000000000E+00 -0.71054273576E-14 -0.17763568394E-14  0.91188000000E+02  0.91188000000E+02 0.  0.
    9900012    2    3    3    0    0  0.25306376112E+02  0.32314893995E+02  0.14105247988E+02  0.47787273432E+02  0.20000010886E+02 0.  0.
        -12    1    3    3    0    0 -0.25306376112E+02 -0.32314893995E+02 -0.14105247988E+02  0.43400726568E+02  0.00000000000E+00 0.  1.
         11    1    4    4    0    0  0.29059607086E+01  0.40233189758E+01  0.51645696469E+00  0.49898327906E+01  0.51100000000E-03 0. -1.
        -11    1    4    4    0    0  0.31220621234E+01  0.50963048311E+00  0.78959335645E+01  0.85060426902E+01  0.51100000000E-03 0.  1.
        -12    1    4    4    0    0  0.19278353280E+02  0.27781944536E+02  0.56928574589E+01  0.34291397951E+02  0.00000000000E+00 0.  1.
</event>
<event>
 8    1  0.4798632E-010  0.9118800E+02  0.7816164E-02  0.1184000E+00
        -11   -1    0    0    0    0  0.00000000000E+00  0.00000000000E+00  0.45593999997E+02  0.45594000000E+02  0.51100000000E-03 0. -1.
         11   -1    0    0    0    0 -0.00000000000E+00 -0.00000000000E+00 -0.45593999997E+02  0.45594000000E+02  0.51100000000E-03 0.  1.
         23    2    1    2    0    0  0.00000000000E+00  0.00000000000E+00  0.00000000000E+00  0.91188000000E+02  0.91188000000E+02 0.  0.
    9900012    2    3    3    0    0 -0.21610642752E+02 -0.19148336673E+02 -0.32402848735E+02  0.47787270932E+02  0.19999999487E+02 0.  0.
         12    1    3    3    0    0  0.21610642752E+02  0.19148336673E+02  0.32402848735E+02  0.43400729068E+02  0.00000000000E+00 0. -1.
         11    1    4    4    0    0 -0.69409826835E+00 -0.11082567499E+01 -0.51849501973E+01  0.53473090652E+01  0.51100000000E-03 0. -1.
        -11    1    4    4    0    0 -0.15246750246E+02 -0.19266393998E+02 -0.27180041350E+02  0.36638940744E+02  0.51100000000E-03 0.  1.
        -12    1    4    4    0    0 -0.56697942373E+01  0.12263140746E+01 -0.37857187564E-01  0.58010211230E+01  0.00000000000E+00 0.  1.
</event>
<event>
 8    1  0.4798632E-010  0.9118800E+02  0.7816164E-02  0.1184000E+00
        -11   -1    0    0    0    0  0.00000000000E+00  0.00000000000E+00  0.45593999997E+02  0.45594000000E+02  0.51100000000E-03 0. -1.
         11   -1    0    0    0    0 -0.00000000000E+00 -0.00000000000E+00 -0.45593999997E+02  0.45594000000E+02  0.51100000000E-03 0.  1.
         23    2    1    2    0    0 -0.17763568394E-14  0.71054273576E-14 -0.88817841970E-15  0.91188000000E+02  0.91188000000E+02 0.  0.
    9900012    2    3    3    0    0 -0.11681665640E+02  0.41407326039E+02 -0.57093285866E+01  0.47787258131E+02  0.19999941123E+02 0.  0.
         12    1    3    3    0    0  0.11681665640E+02 -0.41407326039E+02  0.57093285866E+01  0.43400741869E+02  0.00000000000E+00 0. -1.
         11    1    4    4    0    0 -0.89173011346E+01  0.14886386500E+02 -0.58020687423E+01  0.18297179141E+02  0.51100000000E-03 0.  1.
        -11    1    4    4    0    0  0.12430295860E+01  0.18779598712E+02  0.50175164391E+01  0.19478036908E+02  0.51100000000E-03 0. -1.
         12    1    4    4    0    0 -0.40073940918E+01  0.77413408275E+01 -0.49247762833E+01  0.10012042082E+02  0.00000000000E+00 0. -1.
</event>
<event>
 8    1  0.4798632E-010  0.9118800E+02  0.7816164E-02  0.1184000E+00
        -11   -1    0    0    0    0  0.00000000000E+00  0.00000000000E+00  0.45593999997E+02  0.45594000000E+02  0.51100000000E-03 0. -1.
         11   -1    0    0    0    0 -0.00000000000E+00 -0.00000000000E+00 -0.45593999997E+02  0.45594000000E+02  0.51100000000E-03 0.  1.
         23    2    1    2    0    0  0.17763568394E-14  0.71054273576E-14  0.00000000000E+00  0.91188000000E+02  0.91188000000E+02 0.  0.
    9900012    2    3    3    0    0  0.10744514893E+02  0.26827440844E+02  0.32380043134E+02  0.47787269869E+02  0.19999994640E+02 0.  0.
        -12    1    3    3    0    0 -0.10744514893E+02 -0.26827440844E+02 -0.32380043134E+02  0.43400730131E+02  0.00000000000E+00 0.  1.
         11    1    4    4    0    0  0.91470486475E+00  0.51167920729E+00  0.11782224061E+02  0.11828749075E+02  0.51100000000E-03 0. -1.
        -11    1    4    4    0    0  0.75975155269E+01  0.23333005506E+02  0.20883185883E+02  0.32222024161E+02  0.51100000000E-03 0.  1.
         12    1    4    4    0    0  0.22322945015E+01  0.29827561306E+01 -0.28536680867E+00  0.37364966334E+01  0.00000000000E+00 0. -1.
</event>
<event>
 8    1  0.4798632E-010  0.9118800E+02  0.7816164E-02  0.1184000E+00
        -11   -1    0    0    0    0  0.00000000000E+00  0.00000000000E+00  0.45593999997E+02  0.45594000000E+02  0.51100000000E-03 0. -1.
         11   -1    0    0    0    0 -0.00000000000E+00 -0.00000000000E+00 -0.45593999997E+02  0.45594000000E+02  0.51100000000E-03 0.  1.
         23    2    1    2    0    0  0.00000000000E+00  0.00000000000E+00  0.00000000000E+00  0.91188000000E+02  0.91188000000E+02 0.  0.
    9900012    2    3    3    0    0 -0.25327871213E+02  0.23959359208E+02 -0.25847065531E+02  0.47787277075E+02  0.20000027496E+02 0.  0.
         12    1    3    3    0    0  0.25327871213E+02 -0.23959359208E+02  0.25847065531E+02  0.43400722925E+02  0.00000000000E+00 0. -1.
         11    1    4    4    0    0 -0.18530469107E+02  0.55599207876E+01 -0.16322073547E+02  0.25312073989E+02  0.51100000000E-03 0. -1.
        -11    1    4    4    0    0 -0.48808712623E+01  0.58056431634E+01 -0.41822023955E+01  0.86613632852E+01  0.51100000000E-03 0.  1.
         12    1    4    4    0    0 -0.19165308435E+01  0.12593795257E+02 -0.53427895886E+01  0.13813839800E+02  0.00000000000E+00 0. -1.
</event>
<event>
 8    1  0.4798632E-010  0.9118800E+02  0.7816164E-02  0.1184000E+00
        -11   -1    0    0    0    0  0.00000000000E+00  0.00000000000E+00  0.45593999997E+02  0.45594000000E+02  0.51100000000E-03 0.  1.
         11   -1    0    0    0    0 -0.00000000000E+00 -0.00000000000E+00 -0.45593999997E+02  0.45594000000E+02  0.51100000000E-03 0. -1.
         23    2    1    2    0    0 -0.55511151231E-15  0.00000000000E+00 -0.71054273576E-14  0.91188000000E+02  0.91188000000E+02 0.  0.
    9900012    2    3    3    0    0 -0.35166434064E+00  0.32132565128E+02 -0.29171868225E+02  0.47787270683E+02  0.19999998351E+02 0.  0.
        -12    1    3    3    0    0  0.35166434064E+00 -0.32132565128E+02  0.29171868225E+02  0.43400729317E+02  0.00000000000E+00 0.  1.
         11    1    4    4    0    0  0.71584593873E+00  0.13788789128E+02 -0.12555829218E+02  0.18662582583E+02  0.51100000000E-03 0. -1.
        -11    1    4    4    0    0  0.70483163113E+01  0.85886878907E+01 -0.92129762724E+01  0.14433407587E+02  0.51100000000E-03 0.  1.
        -12    1    4    4    0    0 -0.81158265907E+01  0.97550881092E+01 -0.74030627341E+01  0.14691280513E+02  0.00000000000E+00 0.  1.
</event>
<event>
 8    1  0.4798632E-010  0.9118800E+02  0.7816164E-02  0.1184000E+00
        -11   -1    0    0    0    0  0.00000000000E+00  0.00000000000E+00  0.45593999997E+02  0.45594000000E+02  0.51100000000E-03 0. -1.
         11   -1    0    0    0    0 -0.00000000000E+00 -0.00000000000E+00 -0.45593999997E+02  0.45594000000E+02  0.51100000000E-03 0.  1.
         23    2    1    2    0    0  0.00000000000E+00  0.00000000000E+00 -0.35527136788E-14  0.91188000000E+02  0.91188000000E+02 0.  0.
    9900012    2    3    3    0    0 -0.18859657166E+02  0.30445112189E+02  0.24515902231E+02  0.47787297393E+02  0.20000120131E+02 0.  0.
        -12    1    3    3    0    0  0.18859657166E+02 -0.30445112189E+02 -0.24515902231E+02  0.43400702607E+02  0.00000000000E+00 0.  1.
         11    1    4    4    0    0 -0.32146658994E+01  0.98816838782E+01  0.83480070411E+01  0.13329327625E+02  0.51100000000E-03 0.  1.
        -11    1    4    4    0    0 -0.11089832180E+02  0.18101153044E+02  0.45102046115E+01  0.21702029057E+02  0.51100000000E-03 0. -1.
        -12    1    4    4    0    0 -0.45551590874E+01  0.24622752670E+01  0.11657690578E+02  0.12755940711E+02  0.00000000000E+00 0.  1.
</event>
<event>
 8    1  0.4798632E-010  0.9118800E+02  0.7816164E-02  0.1184000E+00
        -11   -1    0    0    0    0  0.00000000000E+00  0.00000000000E+00  0.45593999997E+02  0.45594000000E+02  0.51100000000E-03 0. -1.
         11   -1    0    0    0    0 -0.00000000000E+00 -0.00000000000E+00 -0.45593999997E+02  0.45594000000E+02  0.51100000000E-03 0.  1.
         23    2    1    2    0    0  0.00000000000E+00  0.35527136788E-14  0.35527136788E-14  0.91188000000E+02  0.91188000000E+02 0.  0.
    9900012    2    3    3    0    0  0.29046334622E+02  0.16120777724E+02 -0.27929450026E+02  0.47787271801E+02  0.20000003451E+02 0.  0.
         12    1    3    3    0    0 -0.29046334622E+02 -0.16120777724E+02  0.27929450026E+02  0.43400728199E+02  0.00000000000E+00 0. -1.
         11    1    4    4    0    0 -0.10370792769E+01 -0.18771044633E+01 -0.48491827696E+01  0.53022286245E+01  0.51100000000E-03 0. -1.
        -11    1    4    4    0    0  0.25366429802E+02  0.12066474101E+02 -0.18272226729E+02  0.33510145151E+02  0.51100000000E-03 0.  1.
        -12    1    4    4    0    0  0.47169840964E+01  0.59314080872E+01 -0.48080405275E+01  0.89748980260E+01  0.00000000000E+00 0.  1.
</event>
<event>
 8    1  0.4798632E-010  0.9118800E+02  0.7816164E-02  0.1184000E+00
        -11   -1    0    0    0    0  0.00000000000E+00  0.00000000000E+00  0.45593999997E+02  0.45594000000E+02  0.51100000000E-03 0. -1.
         11   -1    0    0    0    0 -0.00000000000E+00 -0.00000000000E+00 -0.45593999997E+02  0.45594000000E+02  0.51100000000E-03 0.  1.
         23    2    1    2    0    0  0.00000000000E+00  0.00000000000E+00  0.00000000000E+00  0.91188000000E+02  0.91188000000E+02 0.  0.
    9900012    2    3    3    0    0  0.20518620023E+02 -0.25065823366E+02  0.28884495129E+02  0.47787270427E+02  0.19999997184E+02 0.  0.
        -12    1    3    3    0    0 -0.20518620023E+02  0.25065823366E+02 -0.28884495129E+02  0.43400729573E+02  0.00000000000E+00 0.  1.
         11    1    4    4    0    0  0.10603069120E+02 -0.81391186485E+01  0.23203583100E+02  0.26778285906E+02  0.51100000000E-03 0. -1.
        -11    1    4    4    0    0  0.41867567263E+01 -0.10322742228E+02  0.12548513272E+01  0.11209932699E+02  0.51100000000E-03 0.  1.
         12    1    4    4    0    0  0.57287941758E+01 -0.66039624886E+01  0.44260607019E+01  0.97990518213E+01  0.00000000000E+00 0. -1.
</event>
<event>
 8    1  0.4798632E-010  0.9118800E+02  0.7816164E-02  0.1184000E+00
        -11   -1    0    0    0    0  0.00000000000E+00  0.00000000000E+00  0.45593999997E+02  0.45594000000E+02  0.51100000000E-03 0. -1.
         11   -1    0    0    0    0 -0.00000000000E+00 -0.00000000000E+00 -0.45593999997E+02  0.45594000000E+02  0.51100000000E-03 0.  1.
         23    2    1    2    0    0 -0.55511151231E-15  0.00000000000E+00  0.00000000000E+00  0.91188000000E+02  0.91188000000E+02 0.  0.
    9900012    2    3    3    0    0  0.79946247433E+00  0.93090960315E+01 -0.42383075440E+02  0.47787268520E+02  0.19999988492E+02 0.  0.
         12    1    3    3    0    0 -0.79946247433E+00 -0.93090960315E+01  0.42383075440E+02  0.43400731480E+02  0.00000000000E+00 0. -1.
         11    1    4    4    0    0  0.66459202993E+01  0.38758965873E+01 -0.25442883388E+02  0.26580653610E+02  0.51100000000E-03 0. -1.
        -11    1    4    4    0    0 -0.35813323185E+01  0.79382980908E+01 -0.87399782784E+01  0.12338141607E+02  0.51100000000E-03 0.  1.
        -12    1    4    4    0    0 -0.22651255065E+01 -0.25050986466E+01 -0.82002137743E+01  0.88684733035E+01  0.00000000000E+00 0.  1.
</event>
<event>
 8    1  0.4798632E-010  0.9118800E+02  0.7816164E-02  0.1184000E+00
        -11   -1    0    0    0    0  0.00000000000E+00  0.00000000000E+00  0.45593999997E+02  0.45594000000E+02  0.51100000000E-03 0. -1.
         11   -1    0    0    0    0 -0.00000000000E+00 -0.00000000000E+00 -0.45593999997E+02  0.45594000000E+02  0.51100000000E-03 0.  1.
         23    2    1    2    0    0  0.35527136788E-14 -0.17763568394E-14  0.00000000000E+00  0.91188000000E+02  0.91188000000E+02 0.  0.
    9900012    2    3    3    0    0 -0.25818371262E+02  0.92028448572E+01 -0.33650296188E+02  0.47787273259E+02  0.20000010099E+02 0.  0.
         12    1    3    3    0    0  0.25818371262E+02 -0.92028448572E+01  0.33650296188E+02  0.43400726741E+02  0.00000000000E+00 0. -1.
         11    1    4    4    0    0 -0.19333442945E+01  0.17024925118E+01 -0.52572974979E+00  0.26292000579E+01  0.51100000000E-03 0. -1.
        -11    1    4    4    0    0 -0.13439699112E+02  0.53182038999E+01 -0.53634047000E+01  0.15416708961E+02  0.51100000000E-03 0.  1.
        -12    1    4    4    0    0 -0.10445327855E+02  0.21821484455E+01 -0.27761161738E+02  0.29741364240E+02  0.00000000000E+00 0.  1.
</event>
<event>
 8    1  0.4798632E-010  0.9118800E+02  0.7816164E-02  0.1184000E+00
        -11   -1    0    0    0    0  0.00000000000E+00  0.00000000000E+00  0.45593999997E+02  0.45594000000E+02  0.51100000000E-03 0. -1.
         11   -1    0    0    0    0 -0.00000000000E+00 -0.00000000000E+00 -0.45593999997E+02  0.45594000000E+02  0.51100000000E-03 0.  1.
         23    2    1    2    0    0  0.00000000000E+00 -0.22204460493E-15  0.71054273576E-14  0.91188000000E+02  0.91188000000E+02 0.  0.
    9900012    2    3    3    0    0 -0.15039899053E+02  0.56310259837E+00 -0.40707580199E+02  0.47787277267E+02  0.20000028370E+02 0.  0.
         12    1    3    3    0    0  0.15039899053E+02 -0.56310259837E+00  0.40707580199E+02  0.43400722733E+02  0.00000000000E+00 0. -1.
         11    1    4    4    0    0 -0.16444507108E+01  0.32746947888E+01  0.74956877989E+00  0.37402804329E+01  0.51100000000E-03 0. -1.
        -11    1    4    4    0    0  0.17166641519E-01 -0.13041252872E+01 -0.24701625585E+01  0.27933386448E+01  0.51100000000E-03 0.  1.
         12    1    4    4    0    0 -0.13412614984E+02 -0.14074669033E+01 -0.38986986421E+02  0.41253658189E+02  0.00000000000E+00 0. -1.
</event>
<event>
 8    1  0.4798632E-010  0.9118800E+02  0.7816164E-02  0.1184000E+00
        -11   -1    0    0    0    0  0.00000000000E+00  0.00000000000E+00  0.45593999997E+02  0.45594000000E+02  0.51100000000E-03 0. -1.
         11   -1    0    0    0    0 -0.00000000000E+00 -0.00000000000E+00 -0.45593999997E+02  0.45594000000E+02  0.51100000000E-03 0.  1.
         23    2    1    2    0    0  0.00000000000E+00  0.00000000000E+00  0.35527136788E-14  0.91188000000E+02  0.91188000000E+02 0.  0.
    9900012    2    3    3    0    0 -0.40657807926E+02 -0.94132550499E+01 -0.11914550810E+02  0.47787271469E+02  0.20000001937E+02 0.  0.
         12    1    3    3    0    0  0.40657807926E+02  0.94132550499E+01  0.11914550810E+02  0.43400728531E+02  0.00000000000E+00 0. -1.
         11    1    4    4    0    0 -0.61277237054E+01 -0.16630597537E+01  0.42509628383E+01  0.76410372900E+01  0.51100000000E-03 0. -1.
        -11    1    4    4    0    0 -0.35162444958E+02 -0.73749239499E+01 -0.16198018715E+02  0.39410187126E+02  0.51100000000E-03 0.  1.
         12    1    4    4    0    0  0.63236073762E+00 -0.37527134638E+00  0.32505067157E-01  0.73604705372E+00  0.00000000000E+00 0. -1.
</event>
<event>
 8    1  0.4798632E-010  0.9118800E+02  0.7816164E-02  0.1184000E+00
        -11   -1    0    0    0    0  0.00000000000E+00  0.00000000000E+00  0.45593999997E+02  0.45594000000E+02  0.51100000000E-03 0. -1.
         11   -1    0    0    0    0 -0.00000000000E+00 -0.00000000000E+00 -0.45593999997E+02  0.45594000000E+02  0.51100000000E-03 0.  1.
         23    2    1    2    0    0  0.71054273576E-14  0.00000000000E+00  0.00000000000E+00  0.91188000000E+02  0.91188000000E+02 0.  0.
    9900012    2    3    3    0    0 -0.35638611603E+02  0.17847183806E+02  0.17175295101E+02  0.47787269954E+02  0.19999995027E+02 0.  0.
        -12    1    3    3    0    0  0.35638611603E+02 -0.17847183806E+02 -0.17175295101E+02  0.43400730046E+02  0.00000000000E+00 0.  1.
         11    1    4    4    0    0 -0.22994605306E+02  0.29071250645E+01  0.62681334522E+01  0.24010263359E+02  0.51100000000E-03 0. -1.
        -11    1    4    4    0    0 -0.96538561660E+01  0.91531039332E+01  0.11000824144E+02  0.17262513797E+02  0.51100000000E-03 0.  1.
         12    1    4    4    0    0 -0.29901501308E+01  0.57869548079E+01 -0.93662495523E-01  0.65144927981E+01  0.00000000000E+00 0. -1.
</event>
<event>
 8    1  0.4798632E-010  0.9118800E+02  0.7816164E-02  0.1184000E+00
        -11   -1    0    0    0    0  0.00000000000E+00  0.00000000000E+00  0.45593999997E+02  0.45594000000E+02  0.51100000000E-03 0. -1.
         11   -1    0    0    0    0 -0.00000000000E+00 -0.00000000000E+00 -0.45593999997E+02  0.45594000000E+02  0.51100000000E-03 0.  1.
         23    2    1    2    0    0  0.13322676296E-14  0.00000000000E+00  0.35527136788E-14  0.91188000000E+02  0.91188000000E+02 0.  0.
    9900012    2    3    3    0    0  0.39124283733E+01  0.30277093117E+02  0.30848238977E+02  0.47787270612E+02  0.19999998030E+02 0.  0.
        -12    1    3    3    0    0 -0.39124283733E+01 -0.30277093117E+02 -0.30848238977E+02  0.43400729388E+02  0.00000000000E+00 0.  1.
         11    1    4    4    0    0 -0.26490962489E+01 -0.51381317971E+00 -0.78139024419E+00  0.28093212516E+01  0.51100000000E-03 0. -1.
        -11    1    4    4    0    0  0.13553770537E+01  0.41169113019E+01  0.20047259077E+01  0.47754509579E+01  0.51100000000E-03 0.  1.
         12    1    4    4    0    0  0.52061475686E+01  0.26673994995E+02  0.29624903314E+02  0.40202498403E+02  0.00000000000E+00 0. -1.
</event>
<event>
 8    1  0.4798632E-010  0.9118800E+02  0.7816164E-02  0.1184000E+00
        -11   -1    0    0    0    0  0.00000000000E+00  0.00000000000E+00  0.45593999997E+02  0.45594000000E+02  0.51100000000E-03 0. -1.
         11   -1    0    0    0    0 -0.00000000000E+00 -0.00000000000E+00 -0.45593999997E+02  0.45594000000E+02  0.51100000000E-03 0.  1.
         23    2    1    2    0    0  0.00000000000E+00 -0.35527136788E-14  0.00000000000E+00  0.91188000000E+02  0.91188000000E+02 0.  0.
    9900012    2    3    3    0    0  0.16408252858E+02  0.25323899047E+02  0.31194444317E+02  0.47787262897E+02  0.19999962854E+02 0.  0.
        -12    1    3    3    0    0 -0.16408252858E+02 -0.25323899047E+02 -0.31194444317E+02  0.43400737103E+02  0.00000000000E+00 0.  1.
         11    1    4    4    0    0  0.15413693902E+02  0.26424120186E+02  0.29033257795E+02  0.42175184004E+02  0.51100000000E-03 0. -1.
        -11    1    4    4    0    0  0.15232539765E+01 -0.12801899037E+01  0.35752902150E+01  0.40916853800E+01  0.51100000000E-03 0.  1.
         12    1    4    4    0    0 -0.52869501980E+00  0.17996876459E+00 -0.14141036932E+01  0.15203935133E+01  0.00000000000E+00 0. -1.
</event>
<event>
 8    1  0.4798632E-010  0.9118800E+02  0.7816164E-02  0.1184000E+00
        -11   -1    0    0    0    0  0.00000000000E+00  0.00000000000E+00  0.45593999997E+02  0.45594000000E+02  0.51100000000E-03 0. -1.
         11   -1    0    0    0    0 -0.00000000000E+00 -0.00000000000E+00 -0.45593999997E+02  0.45594000000E+02  0.51100000000E-03 0.  1.
         23    2    1    2    0    0 -0.88817841970E-15  0.00000000000E+00  0.00000000000E+00  0.91188000000E+02  0.91188000000E+02 0.  0.
    9900012    2    3    3    0    0 -0.67419441420E+01  0.29764386757E+01 -0.42770437134E+02  0.47787270852E+02  0.19999999121E+02 0.  0.
         12    1    3    3    0    0  0.67419441420E+01 -0.29764386757E+01  0.42770437134E+02  0.43400729148E+02  0.00000000000E+00 0. -1.
         11    1    4    4    0    0  0.15605683972E+01  0.76471694495E+01 -0.22576915896E+02  0.23887898735E+02  0.51100000000E-03 0. -1.
        -11    1    4    4    0    0 -0.28977737593E+00  0.11410270251E+01 -0.84898597414E+01  0.85710928293E+01  0.51100000000E-03 0.  1.
         12    1    4    4    0    0 -0.80127351632E+01 -0.58117577988E+01 -0.11703661496E+02  0.15328279288E+02  0.00000000000E+00 0. -1.
</event>
<event>
 8    1  0.4798632E-010  0.9118800E+02  0.7816164E-02  0.1184000E+00
        -11   -1    0    0    0    0  0.00000000000E+00  0.00000000000E+00  0.45593999997E+02  0.45594000000E+02  0.51100000000E-03 0. -1.
         11   -1    0    0    0    0 -0.00000000000E+00 -0.00000000000E+00 -0.45593999997E+02  0.45594000000E+02  0.51100000000E-03 0.  1.
         23    2    1    2    0    0  0.00000000000E+00  0.00000000000E+00  0.00000000000E+00  0.91188000000E+02  0.91188000000E+02 0.  0.
    9900012    2    3    3    0    0 -0.31092673533E+02  0.12606002694E+02  0.27531045864E+02  0.47787261093E+02  0.19999954625E+02 0.  0.
        -12    1    3    3    0    0  0.31092673533E+02 -0.12606002694E+02 -0.27531045864E+02  0.43400738907E+02  0.00000000000E+00 0.  1.
         11    1    4    4    0    0 -0.60340359730E+01  0.18894218148E+01  0.10096385944E+02  0.11912871791E+02  0.51100000000E-03 0. -1.
        -11    1    4    4    0    0 -0.18029168425E+02  0.10525659780E+02  0.48105643830E+01  0.21423864214E+02  0.51100000000E-03 0.  1.
        -12    1    4    4    0    0 -0.70294691348E+01  0.19092109908E+00  0.12624095537E+02  0.14450525088E+02  0.00000000000E+00 0.  1.
</event>
<event>
 8    1  0.4798632E-010  0.9118800E+02  0.7816164E-02  0.1184000E+00
        -11   -1    0    0    0    0  0.00000000000E+00  0.00000000000E+00  0.45593999997E+02  0.45594000000E+02  0.51100000000E-03 0.  1.
         11   -1    0    0    0    0 -0.00000000000E+00 -0.00000000000E+00 -0.45593999997E+02  0.45594000000E+02  0.51100000000E-03 0. -1.
         23    2    1    2    0    0  0.00000000000E+00  0.17763568394E-14  0.17763568394E-14  0.91188000000E+02  0.91188000000E+02 0.  0.
    9900012    2    3    3    0    0  0.38714931800E+02  0.13463496534E+02  0.14265750474E+02  0.47787270515E+02  0.19999997588E+02 0.  0.
        -12    1    3    3    0    0 -0.38714931800E+02 -0.13463496534E+02 -0.14265750474E+02  0.43400729485E+02  0.00000000000E+00 0.  1.
         11    1    4    4    0    0  0.25511789305E+02  0.12466129260E+01  0.43094717394E+01  0.25903223434E+02  0.51100000000E-03 0. -1.
        -11    1    4    4    0    0  0.94536522185E+01  0.10102402854E+02  0.37570601899E+01  0.14336861066E+02  0.51100000000E-03 0.  1.
         12    1    4    4    0    0  0.37494902765E+01  0.21144807544E+01  0.61992185446E+01  0.75471860159E+01  0.00000000000E+00 0. -1.
</event>
<event>
 8    1  0.4798632E-010  0.9118800E+02  0.7816164E-02  0.1184000E+00
        -11   -1    0    0    0    0  0.00000000000E+00  0.00000000000E+00  0.45593999997E+02  0.45594000000E+02  0.51100000000E-03 0. -1.
         11   -1    0    0    0    0 -0.00000000000E+00 -0.00000000000E+00 -0.45593999997E+02  0.45594000000E+02  0.51100000000E-03 0.  1.
         23    2    1    2    0    0 -0.17763568394E-14  0.71054273576E-14 -0.17763568394E-14  0.91188000000E+02  0.91188000000E+02 0.  0.
    9900012    2    3    3    0    0 -0.12223494872E+02  0.39749544262E+02  0.12417025365E+02  0.47787278637E+02  0.20000034618E+02 0.  0.
        -12    1    3    3    0    0  0.12223494872E+02 -0.39749544262E+02 -0.12417025365E+02  0.43400721363E+02  0.00000000000E+00 0.  1.
         11    1    4    4    0    0  0.14180565672E+01  0.71897043510E+01  0.90633715240E+01  0.11655360858E+02  0.51100000000E-03 0. -1.
        -11    1    4    4    0    0 -0.10222945522E+01  0.82017162046E-01 -0.36987437566E+00  0.10902386350E+01  0.51100000000E-03 0.  1.
         12    1    4    4    0    0 -0.12619256887E+02  0.32477822749E+02  0.37235282166E+01  0.35041679144E+02  0.00000000000E+00 0. -1.
</event>
<event>
 8    1  0.4798632E-010  0.9118800E+02  0.7816164E-02  0.1184000E+00
        -11   -1    0    0    0    0  0.00000000000E+00  0.00000000000E+00  0.45593999997E+02  0.45594000000E+02  0.51100000000E-03 0. -1.
         11   -1    0    0    0    0 -0.00000000000E+00 -0.00000000000E+00 -0.45593999997E+02  0.45594000000E+02  0.51100000000E-03 0.  1.
         23    2    1    2    0    0 -0.88817841970E-15  0.00000000000E+00  0.00000000000E+00  0.91188000000E+02  0.91188000000E+02 0.  0.
    9900012    2    3    3    0    0 -0.73544209168E+01  0.24326765426E+02 -0.35181590205E+02  0.47787270600E+02  0.19999997973E+02 0.  0.
         12    1    3    3    0    0  0.73544209168E+01 -0.24326765426E+02  0.35181590205E+02  0.43400729400E+02  0.00000000000E+00 0. -1.
         11    1    4    4    0    0 -0.11091147785E+02  0.16539615092E+02 -0.17582913382E+02  0.26565603134E+02  0.51100000000E-03 0.  1.
        -11    1    4    4    0    0  0.49096861214E+01  0.87626464910E+01 -0.13344641160E+02  0.16702348317E+02  0.51100000000E-03 0. -1.
        -12    1    4    4    0    0 -0.11729592531E+01 -0.97549615645E+00 -0.42540356621E+01  0.45193191495E+01  0.00000000000E+00 0.  1.
</event>
<event>
 8    1  0.4798632E-010  0.9118800E+02  0.7816164E-02  0.1184000E+00
        -11   -1    0    0    0    0  0.00000000000E+00  0.00000000000E+00  0.45593999997E+02  0.45594000000E+02  0.51100000000E-03 0.  1.
         11   -1    0    0    0    0 -0.00000000000E+00 -0.00000000000E+00 -0.45593999997E+02  0.45594000000E+02  0.51100000000E-03 0. -1.
         23    2    1    2    0    0  0.44408920985E-15  0.00000000000E+00  0.35527136788E-14  0.91188000000E+02  0.91188000000E+02 0.  0.
    9900012    2    3    3    0    0  0.78041255203E+00  0.37469107494E+02  0.21887920318E+02  0.47787261343E+02  0.19999955767E+02 0.  0.
        -12    1    3    3    0    0 -0.78041255203E+00 -0.37469107494E+02 -0.21887920318E+02  0.43400738657E+02  0.00000000000E+00 0.  1.
         11    1    4    4    0    0  0.21936199175E+01  0.20617900159E+02  0.12946238407E+01  0.20774643835E+02  0.51100000000E-03 0. -1.
        -11    1    4    4    0    0 -0.14438632506E+01  0.72886546627E+01  0.12222584359E+02  0.14303873481E+02  0.51100000000E-03 0.  1.
        -12    1    4    4    0    0  0.30655885153E-01  0.95625526718E+01  0.83707121180E+01  0.12708744027E+02  0.00000000000E+00 0.  1.
</event>
<event>
 8    1  0.4798632E-010  0.9118800E+02  0.7816164E-02  0.1184000E+00
        -11   -1    0    0    0    0  0.00000000000E+00  0.00000000000E+00  0.45593999997E+02  0.45594000000E+02  0.51100000000E-03 0. -1.
         11   -1    0    0    0    0 -0.00000000000E+00 -0.00000000000E+00 -0.45593999997E+02  0.45594000000E+02  0.51100000000E-03 0.  1.
         23    2    1    2    0    0  0.00000000000E+00  0.22204460493E-15 -0.71054273576E-14  0.91188000000E+02  0.91188000000E+02 0.  0.
    9900012    2    3    3    0    0 -0.18013449555E+02 -0.11935790182E+01 -0.39467871056E+02  0.47787287548E+02  0.20000075244E+02 0.  0.
         12    1    3    3    0    0  0.18013449555E+02  0.11935790182E+01  0.39467871056E+02  0.43400712452E+02  0.00000000000E+00 0. -1.
         11    1    4    4    0    0  0.29832050183E+01 -0.43249248570E+01 -0.51690134598E+01  0.73704265554E+01  0.51100000000E-03 0. -1.
        -11    1    4    4    0    0 -0.18202898803E+02  0.29908971600E+01 -0.28072638048E+02  0.33591129750E+02  0.51100000000E-03 0.  1.
         12    1    4    4    0    0 -0.27937557703E+01  0.14044867873E+00 -0.62262195474E+01  0.68257312420E+01  0.00000000000E+00 0. -1.
</event>
<event>
 8    1  0.4798632E-010  0.9118800E+02  0.7816164E-02  0.1184000E+00
        -11   -1    0    0    0    0  0.00000000000E+00  0.00000000000E+00  0.45593999997E+02  0.45594000000E+02  0.51100000000E-03 0. -1.
         11   -1    0    0    0    0 -0.00000000000E+00 -0.00000000000E+00 -0.45593999997E+02  0.45594000000E+02  0.51100000000E-03 0.  1.
         23    2    1    2    0    0 -0.88817841970E-15  0.00000000000E+00 -0.71054273576E-14  0.91188000000E+02  0.91188000000E+02 0.  0.
    9900012    2    3    3    0    0  0.75154212237E+01  0.18559994287E+02  0.38505430968E+02  0.47787272378E+02  0.20000006079E+02 0.  0.
        -12    1    3    3    0    0 -0.75154212237E+01 -0.18559994287E+02 -0.38505430968E+02  0.43400727622E+02  0.00000000000E+00 0.  1.
         11    1    4    4    0    0  0.92898913958E+01  0.85056025520E+01  0.10223919273E+02  0.16222696523E+02  0.51100000000E-03 0. -1.
        -11    1    4    4    0    0 -0.90649377694E+00 -0.12100707794E+00  0.13877665724E+02  0.13907766890E+02  0.51100000000E-03 0.  1.
         12    1    4    4    0    0 -0.86797639518E+00  0.10175398813E+02  0.14403845971E+02  0.17656808964E+02  0.00000000000E+00 0. -1.
</event>
<event>
 8    1  0.4798632E-010  0.9118800E+02  0.7816164E-02  0.1184000E+00
        -11   -1    0    0    0    0  0.00000000000E+00  0.00000000000E+00  0.45593999997E+02  0.45594000000E+02  0.51100000000E-03 0.  1.
         11   -1    0    0    0    0 -0.00000000000E+00 -0.00000000000E+00 -0.45593999997E+02  0.45594000000E+02  0.51100000000E-03 0. -1.
         23    2    1    2    0    0  0.00000000000E+00 -0.35527136788E-14  0.35527136788E-14  0.91188000000E+02  0.91188000000E+02 0.  0.
    9900012    2    3    3    0    0  0.46365695370E+01 -0.30886799765E+02  0.30135218913E+02  0.47787267337E+02  0.19999983095E+02 0.  0.
        -12    1    3    3    0    0 -0.46365695370E+01  0.30886799765E+02 -0.30135218913E+02  0.43400732663E+02  0.00000000000E+00 0.  1.
         11    1    4    4    0    0  0.29491313775E+01 -0.16918895399E+02  0.47351752410E+01  0.17814833208E+02  0.51100000000E-03 0. -1.
        -11    1    4    4    0    0 -0.28084472901E+01 -0.67113564784E+01  0.10026907242E+02  0.12388242452E+02  0.51100000000E-03 0.  1.
         12    1    4    4    0    0  0.44958854496E+01 -0.72565478874E+01  0.15373136430E+02  0.17584191677E+02  0.00000000000E+00 0. -1.
</event>
<event>
 8    1  0.4798632E-010  0.9118800E+02  0.7816164E-02  0.1184000E+00
        -11   -1    0    0    0    0  0.00000000000E+00  0.00000000000E+00  0.45593999997E+02  0.45594000000E+02  0.51100000000E-03 0. -1.
         11   -1    0    0    0    0 -0.00000000000E+00 -0.00000000000E+00 -0.45593999997E+02  0.45594000000E+02  0.51100000000E-03 0.  1.
         23    2    1    2    0    0  0.00000000000E+00  0.00000000000E+00  0.00000000000E+00  0.91188000000E+02  0.91188000000E+02 0.  0.
    9900012    2    3    3    0    0  0.65533860922E+01 -0.12358159326E+02  0.41084698295E+02  0.47787269532E+02  0.19999993103E+02 0.  0.
        -12    1    3    3    0    0 -0.65533860922E+01  0.12358159326E+02 -0.41084698295E+02  0.43400730468E+02  0.00000000000E+00 0.  1.
         11    1    4    4    0    0 -0.54129082524E+01 -0.61124947268E+00  0.71841418142E+01  0.90158247285E+01  0.51100000000E-03 0.  1.
        -11    1    4    4    0    0  0.10915208070E+02 -0.60652076181E+01  0.18474811636E+02  0.22299039798E+02  0.51100000000E-03 0. -1.
         12    1    4    4    0    0  0.10510862746E+01 -0.56817022349E+01  0.15425744845E+02  0.16472405005E+02  0.00000000000E+00 0. -1.
</event>
<event>
 8    1  0.4798632E-010  0.9118800E+02  0.7816164E-02  0.1184000E+00
        -11   -1    0    0    0    0  0.00000000000E+00  0.00000000000E+00  0.45593999997E+02  0.45594000000E+02  0.51100000000E-03 0. -1.
         11   -1    0    0    0    0 -0.00000000000E+00 -0.00000000000E+00 -0.45593999997E+02  0.45594000000E+02  0.51100000000E-03 0.  1.
         23    2    1    2    0    0  0.66613381478E-15 -0.35527136788E-14  0.71054273576E-14  0.91188000000E+02  0.91188000000E+02 0.  0.
    9900012    2    3    3    0    0 -0.13826280445E+01 -0.28282969943E+02  0.32890511156E+02  0.47787265292E+02  0.19999973773E+02 0.  0.
        -12    1    3    3    0    0  0.13826280445E+01  0.28282969943E+02 -0.32890511156E+02  0.43400734708E+02  0.00000000000E+00 0.  1.
         11    1    4    4    0    0  0.46352076662E+01 -0.93153291843E+01  0.93031437080E+01  0.13957399150E+02  0.51100000000E-03 0. -1.
        -11    1    4    4    0    0 -0.48984602113E+01 -0.53175944900E+01  0.17319349519E+02  0.18767833962E+02  0.51100000000E-03 0.  1.
        -12    1    4    4    0    0 -0.11193754994E+01 -0.13650046268E+02  0.62680179289E+01  0.15062032180E+02  0.00000000000E+00 0.  1.
</event>
<event>
 8    1  0.4798632E-010  0.9118800E+02  0.7816164E-02  0.1184000E+00
        -11   -1    0    0    0    0  0.00000000000E+00  0.00000000000E+00  0.45593999997E+02  0.45594000000E+02  0.51100000000E-03 0. -1.
         11   -1    0    0    0    0 -0.00000000000E+00 -0.00000000000E+00 -0.45593999997E+02  0.45594000000E+02  0.51100000000E-03 0.  1.
         23    2    1    2    0    0  0.17763568394E-14  0.00000000000E+00  0.00000000000E+00  0.91188000000E+02  0.91188000000E+02 0.  0.
    9900012    2    3    3    0    0  0.15732752000E+02 -0.35627913066E+02  0.19150860826E+02  0.47787272526E+02  0.20000006754E+02 0.  0.
        -12    1    3    3    0    0 -0.15732752000E+02  0.35627913066E+02 -0.19150860826E+02  0.43400727474E+02  0.00000000000E+00 0.  1.
         11    1    4    4    0    0  0.49809205172E+01  0.32935368229E+00  0.49105452510E+01  0.70022494935E+01  0.51100000000E-03 0.  1.
        -11    1    4    4    0    0  0.42568369309E+01 -0.22731069034E+02  0.11382141489E+02  0.25775478758E+02  0.51100000000E-03 0. -1.
         12    1    4    4    0    0  0.64949945515E+01 -0.13226197714E+02  0.28581740863E+01  0.15009544274E+02  0.00000000000E+00 0. -1.
</event>
<event>
 8    1  0.4798632E-010  0.9118800E+02  0.7816164E-02  0.1184000E+00
        -11   -1    0    0    0    0  0.00000000000E+00  0.00000000000E+00  0.45593999997E+02  0.45594000000E+02  0.51100000000E-03 0. -1.
         11   -1    0    0    0    0 -0.00000000000E+00 -0.00000000000E+00 -0.45593999997E+02  0.45594000000E+02  0.51100000000E-03 0.  1.
         23    2    1    2    0    0  0.00000000000E+00  0.00000000000E+00  0.00000000000E+00  0.91188000000E+02  0.91188000000E+02 0.  0.
    9900012    2    3    3    0    0  0.17758227275E+02 -0.75632130853E+01 -0.38872438581E+02  0.47787270636E+02  0.19999998137E+02 0.  0.
         12    1    3    3    0    0 -0.17758227275E+02  0.75632130853E+01  0.38872438581E+02  0.43400729364E+02  0.00000000000E+00 0. -1.
         11    1    4    4    0    0 -0.24359602801E+01  0.13912840527E+01 -0.20492204296E+01  0.34740291352E+01  0.51100000000E-03 0. -1.
        -11    1    4    4    0    0  0.19986408978E+02 -0.10018938456E+02 -0.36984517369E+02  0.43216781427E+02  0.51100000000E-03 0.  1.
        -12    1    4    4    0    0  0.20777857664E+00  0.10644413180E+01  0.16129921722E+00  0.10964600740E+01  0.00000000000E+00 0.  1.
</event>
<event>
 8    1  0.4798632E-010  0.9118800E+02  0.7816164E-02  0.1184000E+00
        -11   -1    0    0    0    0  0.00000000000E+00  0.00000000000E+00  0.45593999997E+02  0.45594000000E+02  0.51100000000E-03 0. -1.
         11   -1    0    0    0    0 -0.00000000000E+00 -0.00000000000E+00 -0.45593999997E+02  0.45594000000E+02  0.51100000000E-03 0.  1.
         23    2    1    2    0    0 -0.88817841970E-15  0.00000000000E+00  0.44408920985E-15  0.91188000000E+02  0.91188000000E+02 0.  0.
    9900012    2    3    3    0    0 -0.53619094223E+01 -0.42965132339E+02  0.29785454578E+01  0.47787258041E+02  0.19999940712E+02 0.  0.
        -12    1    3    3    0    0  0.53619094223E+01  0.42965132339E+02 -0.29785454578E+01  0.43400741959E+02  0.00000000000E+00 0.  1.
         11    1    4    4    0    0  0.19416081702E+01 -0.15338009731E+02  0.59623912828E+01  0.16570289522E+02  0.51100000000E-03 0. -1.
        -11    1    4    4    0    0 -0.86363311457E+01 -0.11030193047E+02 -0.38991084812E+01  0.14541472467E+02  0.51100000000E-03 0.  1.
        -12    1    4    4    0    0  0.13328135533E+01 -0.16596929561E+02  0.91526265615E+00  0.16675496051E+02  0.00000000000E+00 0.  1.
</event>
<event>
 8    1  0.4798632E-010  0.9118800E+02  0.7816164E-02  0.1184000E+00
        -11   -1    0    0    0    0  0.00000000000E+00  0.00000000000E+00  0.45593999997E+02  0.45594000000E+02  0.51100000000E-03 0. -1.
         11   -1    0    0    0    0 -0.00000000000E+00 -0.00000000000E+00 -0.45593999997E+02  0.45594000000E+02  0.51100000000E-03 0.  1.
         23    2    1    2    0    0  0.00000000000E+00 -0.35527136788E-14  0.00000000000E+00  0.91188000000E+02  0.91188000000E+02 0.  0.
    9900012    2    3    3    0    0  0.16520366848E+02  0.25961912453E+02  0.30605227135E+02  0.47787270202E+02  0.19999996158E+02 0.  0.
        -12    1    3    3    0    0 -0.16520366848E+02 -0.25961912453E+02 -0.30605227135E+02  0.43400729798E+02  0.00000000000E+00 0.  1.
         11    1    4    4    0    0  0.26119860407E+01  0.31628788004E+01  0.16906197438E+02  0.17396717664E+02  0.51100000000E-03 0. -1.
        -11    1    4    4    0    0  0.63469549490E+01  0.97828260523E+01  0.33843100752E+01  0.12142531764E+02  0.51100000000E-03 0.  1.
         12    1    4    4    0    0  0.75614258584E+01  0.13016207600E+02  0.10314719622E+02  0.18248020774E+02  0.00000000000E+00 0. -1.
</event>
<event>
 8    1  0.4798632E-010  0.9118800E+02  0.7816164E-02  0.1184000E+00
        -11   -1    0    0    0    0  0.00000000000E+00  0.00000000000E+00  0.45593999997E+02  0.45594000000E+02  0.51100000000E-03 0. -1.
         11   -1    0    0    0    0 -0.00000000000E+00 -0.00000000000E+00 -0.45593999997E+02  0.45594000000E+02  0.51100000000E-03 0.  1.
         23    2    1    2    0    0  0.22204460493E-15  0.00000000000E+00  0.71054273576E-14  0.91188000000E+02  0.91188000000E+02 0.  0.
    9900012    2    3    3    0    0 -0.17623044581E+01  0.25787005313E+02 -0.34864714863E+02  0.47787266107E+02  0.19999977487E+02 0.  0.
         12    1    3    3    0    0  0.17623044581E+01 -0.25787005313E+02  0.34864714863E+02  0.43400733893E+02  0.00000000000E+00 0. -1.
         11    1    4    4    0    0 -0.15154752706E+01 -0.22633682430E+01 -0.47906974517E+00  0.27656842157E+01  0.51100000000E-03 0. -1.
        -11    1    4    4    0    0 -0.79795789455E+00  0.62056429776E+01 -0.13094114165E+02  0.14512152411E+02  0.51100000000E-03 0.  1.
         12    1    4    4    0    0  0.55112870706E+00  0.21844730579E+02 -0.21291530952E+02  0.30509429480E+02  0.00000000000E+00 0. -1.
</event>
<event>
 8    1  0.5076570E-010  0.9118800E+02  0.7816164E-02  0.1184000E+00
        -11   -1    0    0    0    0  0.00000000000E+00  0.00000000000E+00  0.45593999997E+02  0.45594000000E+02  0.51100000000E-03 0. -1.
         11   -1    0    0    0    0 -0.00000000000E+00 -0.00000000000E+00 -0.45593999997E+02  0.45594000000E+02  0.51100000000E-03 0.  1.
         23    2    1    2    0    0  0.00000000000E+00  0.00000000000E+00  0.00000000000E+00  0.91188000000E+02  0.91188000000E+02 0.  0.
    9900012    2    3    3    0    0 -0.21984647721E+02  0.18698270308E+02 -0.32414093504E+02  0.47787268375E+02  0.19999987828E+02 0.  0.
         12    1    3    3    0    0  0.21984647721E+02 -0.18698270308E+02  0.32414093504E+02  0.43400731625E+02  0.00000000000E+00 0. -1.
         11    1    4    4    0    0 -0.87152470845E+00 -0.15669228509E+01 -0.17135526398E+01  0.24801341594E+01  0.51100000000E-03 0. -1.
        -11    1    4    4    0    0 -0.15866970600E+01  0.26833044573E+01 -0.13609960017E+02  0.13962404602E+02  0.51100000000E-03 0.  1.
        -12    1    4    4    0    0 -0.19526425952E+02  0.17581888702E+02 -0.17090580848E+02  0.31344729613E+02  0.00000000000E+00 0.  1.
</event>
<event>
 8    1  0.4798632E-010  0.9118800E+02  0.7816164E-02  0.1184000E+00
        -11   -1    0    0    0    0  0.00000000000E+00  0.00000000000E+00  0.45593999997E+02  0.45594000000E+02  0.51100000000E-03 0. -1.
         11   -1    0    0    0    0 -0.00000000000E+00 -0.00000000000E+00 -0.45593999997E+02  0.45594000000E+02  0.51100000000E-03 0.  1.
         23    2    1    2    0    0  0.00000000000E+00 -0.35527136788E-14  0.00000000000E+00  0.91188000000E+02  0.91188000000E+02 0.  0.
    9900012    2    3    3    0    0  0.18495403041E+02 -0.17039136966E+02 -0.35372462956E+02  0.47787271230E+02  0.20000000845E+02 0.  0.
         12    1    3    3    0    0 -0.18495403041E+02  0.17039136966E+02  0.35372462956E+02  0.43400728770E+02  0.00000000000E+00 0. -1.
         11    1    4    4    0    0  0.49427073066E+01  0.44005097365E+01 -0.87163018962E+01  0.10943891468E+02  0.51100000000E-03 0. -1.
        -11    1    4    4    0    0  0.61556643997E+01 -0.10886066311E+02 -0.14163702113E+02  0.18894684483E+02  0.51100000000E-03 0.  1.
         12    1    4    4    0    0  0.73970313346E+01 -0.10553580392E+02 -0.12492458948E+02  0.17948695279E+02  0.00000000000E+00 0. -1.
</event>
<event>
 8    1  0.4798632E-010  0.9118800E+02  0.7816164E-02  0.1184000E+00
        -11   -1    0    0    0    0  0.00000000000E+00  0.00000000000E+00  0.45593999997E+02  0.45594000000E+02  0.51100000000E-03 0. -1.
         11   -1    0    0    0    0 -0.00000000000E+00 -0.00000000000E+00 -0.45593999997E+02  0.45594000000E+02  0.51100000000E-03 0.  1.
         23    2    1    2    0    0  0.00000000000E+00  0.00000000000E+00  0.00000000000E+00  0.91188000000E+02  0.91188000000E+02 0.  0.
    9900012    2    3    3    0    0 -0.16345080015E+02 -0.25384676044E+02 -0.31178223507E+02  0.47787250702E+02  0.19999907252E+02 0.  0.
         12    1    3    3    0    0  0.16345080015E+02  0.25384676044E+02  0.31178223507E+02  0.43400749298E+02  0.00000000000E+00 0. -1.
         11    1    4    4    0    0  0.24295024823E+01 -0.80663567831E+01 -0.35694594416E+01  0.91492969691E+01  0.51100000000E-03 0. -1.
        -11    1    4    4    0    0 -0.19444243898E+02 -0.17613248271E+02 -0.26361242484E+02  0.37191668973E+02  0.51100000000E-03 0.  1.
        -12    1    4    4    0    0  0.66966140067E+00  0.29492901014E+00 -0.12475215813E+01  0.14462847604E+01  0.00000000000E+00 0.  1.
</event>
<event>
 8    1  0.4798632E-010  0.9118800E+02  0.7816164E-02  0.1184000E+00
        -11   -1    0    0    0    0  0.00000000000E+00  0.00000000000E+00  0.45593999997E+02  0.45594000000E+02  0.51100000000E-03 0.  1.
         11   -1    0    0    0    0 -0.00000000000E+00 -0.00000000000E+00 -0.45593999997E+02  0.45594000000E+02  0.51100000000E-03 0. -1.
         23    2    1    2    0    0  0.00000000000E+00  0.00000000000E+00  0.17763568394E-14  0.91188000000E+02  0.91188000000E+02 0.  0.
    9900012    2    3    3    0    0  0.38633799190E+02  0.18840470662E+02  0.60074476909E+01  0.47787271868E+02  0.20000003755E+02 0.  0.
         12    1    3    3    0    0 -0.38633799190E+02 -0.18840470662E+02 -0.60074476909E+01  0.43400728132E+02  0.00000000000E+00 0. -1.
         11    1    4    4    0    0  0.37721678731E+01  0.20445038861E+01 -0.50650623183E+01  0.66380797790E+01  0.51100000000E-03 0. -1.
        -11    1    4    4    0    0  0.18966966069E+02  0.90610581679E+01  0.10418077498E+02  0.23460283801E+02  0.51100000000E-03 0.  1.
         12    1    4    4    0    0  0.15894665248E+02  0.77349086078E+01  0.65443251086E+00  0.17688908288E+02  0.00000000000E+00 0. -1.
</event>
<event>
 8    1  0.4798632E-010  0.9118800E+02  0.7816164E-02  0.1184000E+00
        -11   -1    0    0    0    0  0.00000000000E+00  0.00000000000E+00  0.45593999997E+02  0.45594000000E+02  0.51100000000E-03 0. -1.
         11   -1    0    0    0    0 -0.00000000000E+00 -0.00000000000E+00 -0.45593999997E+02  0.45594000000E+02  0.51100000000E-03 0.  1.
         23    2    1    2    0    0 -0.17763568394E-14  0.35527136788E-14  0.35527136788E-14  0.91188000000E+02  0.91188000000E+02 0.  0.
    9900012    2    3    3    0    0 -0.13052659911E+02 -0.30003112791E+02 -0.28514269667E+02  0.47787282465E+02  0.20000052072E+02 0.  0.
         12    1    3    3    0    0  0.13052659911E+02  0.30003112791E+02  0.28514269667E+02  0.43400717535E+02  0.00000000000E+00 0. -1.
         11    1    4    4    0    0  0.25409981375E+01 -0.19311185681E+01  0.62405726463E+00  0.32519745063E+01  0.51100000000E-03 0.  1.
        -11    1    4    4    0    0 -0.59655734191E+01 -0.20726641972E+02 -0.18428695608E+02  0.28368972060E+02  0.51100000000E-03 0. -1.
         12    1    4    4    0    0 -0.96280846293E+01 -0.73453522505E+01 -0.10709631323E+02  0.16166335899E+02  0.00000000000E+00 0. -1.
</event>
<event>
 8    1  0.4798632E-010  0.9118800E+02  0.7816164E-02  0.1184000E+00
        -11   -1    0    0    0    0  0.00000000000E+00  0.00000000000E+00  0.45593999997E+02  0.45594000000E+02  0.51100000000E-03 0. -1.
         11   -1    0    0    0    0 -0.00000000000E+00 -0.00000000000E+00 -0.45593999997E+02  0.45594000000E+02  0.51100000000E-03 0.  1.
         23    2    1    2    0    0  0.00000000000E+00 -0.44408920985E-15  0.00000000000E+00  0.91188000000E+02  0.91188000000E+02 0.  0.
    9900012    2    3    3    0    0  0.22408222400E+02  0.24109598539E+01  0.37090180498E+02  0.47787278256E+02  0.20000032881E+02 0.  0.
        -12    1    3    3    0    0 -0.22408222400E+02 -0.24109598539E+01 -0.37090180498E+02  0.43400721744E+02  0.00000000000E+00 0.  1.
         11    1    4    4    0    0  0.15837230347E+02 -0.43438901374E+01  0.29804277509E+02  0.34029137584E+02  0.51100000000E-03 0. -1.
        -11    1    4    4    0    0  0.80286113553E+01  0.57824554266E+01  0.58622964936E+01  0.11500517879E+02  0.51100000000E-03 0.  1.
         12    1    4    4    0    0 -0.14576193028E+01  0.97239456469E+00  0.14236064947E+01  0.22576227925E+01  0.00000000000E+00 0. -1.
</event>
<event>
 8    1  0.5317751E-010  0.9118800E+02  0.7816164E-02  0.1184000E+00
        -11   -1    0    0    0    0  0.00000000000E+00  0.00000000000E+00  0.45593999997E+02  0.45594000000E+02  0.51100000000E-03 0. -1.
         11   -1    0    0    0    0 -0.00000000000E+00 -0.00000000000E+00 -0.45593999997E+02  0.45594000000E+02  0.51100000000E-03 0.  1.
         23    2    1    2    0    0 -0.88817841970E-15 -0.35527136788E-14  0.00000000000E+00  0.91188000000E+02  0.91188000000E+02 0.  0.
    9900012    2    3    3    0    0  0.64778717656E+01  0.26912882213E+02  0.33426887064E+02  0.47787276153E+02  0.20000023293E+02 0.  0.
        -12    1    3    3    0    0 -0.64778717656E+01 -0.26912882213E+02 -0.33426887064E+02  0.43400723847E+02  0.00000000000E+00 0.  1.
         11    1    4    4    0    0  0.11763117832E+01  0.75807001664E+01  0.17539410451E+02  0.19143710290E+02  0.51100000000E-03 0. -1.
        -11    1    4    4    0    0 -0.11691412255E+01  0.12733645281E+02  0.36299979686E+01  0.13292460226E+02  0.51100000000E-03 0.  1.
        -12    1    4    4    0    0  0.64707012079E+01  0.65985367652E+01  0.12257478644E+02  0.15351105637E+02  0.00000000000E+00 0.  1.
</event>
<event>
 8    1  0.4798632E-010  0.9118800E+02  0.7816164E-02  0.1184000E+00
        -11   -1    0    0    0    0  0.00000000000E+00  0.00000000000E+00  0.45593999997E+02  0.45594000000E+02  0.51100000000E-03 0. -1.
         11   -1    0    0    0    0 -0.00000000000E+00 -0.00000000000E+00 -0.45593999997E+02  0.45594000000E+02  0.51100000000E-03 0.  1.
         23    2    1    2    0    0  0.00000000000E+00  0.00000000000E+00  0.00000000000E+00  0.91188000000E+02  0.91188000000E+02 0.  0.
    9900012    2    3    3    0    0  0.28807023861E+02  0.14532634991E+01 -0.32429411711E+02  0.47787270254E+02  0.19999996396E+02 0.  0.
         12    1    3    3    0    0 -0.28807023861E+02 -0.14532634991E+01  0.32429411711E+02  0.43400729746E+02  0.00000000000E+00 0. -1.
         11    1    4    4    0    0  0.19953116012E+02 -0.73841784370E+00 -0.26676132475E+02  0.33320986534E+02  0.51100000000E-03 0. -1.
        -11    1    4    4    0    0  0.49710415581E+01  0.58398217518E+01 -0.19287900693E+01  0.79079076662E+01  0.51100000000E-03 0.  1.
         12    1    4    4    0    0  0.38828662907E+01 -0.36481404090E+01 -0.38244891676E+01  0.65583760542E+01  0.00000000000E+00 0. -1.
</event>
<event>
 8    1  0.4798632E-010  0.9118800E+02  0.7816164E-02  0.1184000E+00
        -11   -1    0    0    0    0  0.00000000000E+00  0.00000000000E+00  0.45593999997E+02  0.45594000000E+02  0.51100000000E-03 0. -1.
         11   -1    0    0    0    0 -0.00000000000E+00 -0.00000000000E+00 -0.45593999997E+02  0.45594000000E+02  0.51100000000E-03 0.  1.
         23    2    1    2    0    0  0.00000000000E+00  0.35527136788E-14 -0.71054273576E-14  0.91188000000E+02  0.91188000000E+02 0.  0.
    9900012    2    3    3    0    0  0.24363714215E+02  0.22309575521E+02  0.28148098341E+02  0.47787272236E+02  0.20000005431E+02 0.  0.
        -12    1    3    3    0    0 -0.24363714215E+02 -0.22309575521E+02 -0.28148098341E+02  0.43400727764E+02  0.00000000000E+00 0.  1.
         11    1    4    4    0    0  0.15839515806E+02  0.78860857101E+01  0.17846503428E+02  0.25131221492E+02  0.51100000000E-03 0. -1.
        -11    1    4    4    0    0  0.88811544885E+01  0.13743058640E+02  0.47316435811E+01  0.17033350142E+02  0.51100000000E-03 0.  1.
        -12    1    4    4    0    0 -0.35695607930E+00  0.68043117052E+00  0.55699513316E+01  0.56227006017E+01  0.00000000000E+00 0.  1.
</event>
<event>
 8    1  0.4798632E-010  0.9118800E+02  0.7816164E-02  0.1184000E+00
        -11   -1    0    0    0    0  0.00000000000E+00  0.00000000000E+00  0.45593999997E+02  0.45594000000E+02  0.51100000000E-03 0. -1.
         11   -1    0    0    0    0 -0.00000000000E+00 -0.00000000000E+00 -0.45593999997E+02  0.45594000000E+02  0.51100000000E-03 0.  1.
         23    2    1    2    0    0  0.00000000000E+00  0.00000000000E+00  0.00000000000E+00  0.91188000000E+02  0.91188000000E+02 0.  0.
    9900012    2    3    3    0    0  0.16800459479E+02  0.57943527769E+01 -0.39595369761E+02  0.47787271097E+02  0.20000000241E+02 0.  0.
         12    1    3    3    0    0 -0.16800459479E+02 -0.57943527769E+01  0.39595369761E+02  0.43400728903E+02  0.00000000000E+00 0. -1.
         11    1    4    4    0    0  0.11404889940E+02 -0.33884848410E+01 -0.12189129526E+02  0.17033150704E+02  0.51100000000E-03 0. -1.
        -11    1    4    4    0    0  0.61092140117E+01  0.92830347473E+01 -0.27795750925E+02  0.29934946128E+02  0.51100000000E-03 0.  1.
        -12    1    4    4    0    0 -0.71364447272E+00 -0.10019712943E+00  0.38951069013E+00  0.81917426468E+00  0.00000000000E+00 0.  1.
</event>
<event>
 8    1  0.4798632E-010  0.9118800E+02  0.7816164E-02  0.1184000E+00
        -11   -1    0    0    0    0  0.00000000000E+00  0.00000000000E+00  0.45593999997E+02  0.45594000000E+02  0.51100000000E-03 0. -1.
         11   -1    0    0    0    0 -0.00000000000E+00 -0.00000000000E+00 -0.45593999997E+02  0.45594000000E+02  0.51100000000E-03 0.  1.
         23    2    1    2    0    0 -0.35527136788E-14 -0.35527136788E-14  0.35527136788E-14  0.91188000000E+02  0.91188000000E+02 0.  0.
    9900012    2    3    3    0    0  0.18380022177E+02 -0.24973593796E+02  0.30366397657E+02  0.47787266032E+02  0.19999977146E+02 0.  0.
        -12    1    3    3    0    0 -0.18380022177E+02  0.24973593796E+02 -0.30366397657E+02  0.43400733968E+02  0.00000000000E+00 0.  1.
         11    1    4    4    0    0  0.14849758286E+02 -0.11867398550E+02  0.15290504239E+02  0.24395696129E+02  0.51100000000E-03 0. -1.
        -11    1    4    4    0    0 -0.33375567997E+01 -0.94059226899E+01  0.72038012657E+01  0.12308753795E+02  0.51100000000E-03 0.  1.
        -12    1    4    4    0    0  0.68678206910E+01 -0.37002725563E+01  0.78720921527E+01  0.11082816109E+02  0.00000000000E+00 0.  1.
</event>
<event>
 8    1  0.4798632E-010  0.9118800E+02  0.7816164E-02  0.1184000E+00
        -11   -1    0    0    0    0  0.00000000000E+00  0.00000000000E+00  0.45593999997E+02  0.45594000000E+02  0.51100000000E-03 0. -1.
         11   -1    0    0    0    0 -0.00000000000E+00 -0.00000000000E+00 -0.45593999997E+02  0.45594000000E+02  0.51100000000E-03 0.  1.
         23    2    1    2    0    0  0.00000000000E+00  0.00000000000E+00  0.00000000000E+00  0.91188000000E+02  0.91188000000E+02 0.  0.
    9900012    2    3    3    0    0 -0.29131949350E+02  0.14094798958E+02 -0.28918680439E+02  0.47787263728E+02  0.19999966643E+02 0.  0.
         12    1    3    3    0    0  0.29131949350E+02 -0.14094798958E+02  0.28918680439E+02  0.43400736272E+02  0.00000000000E+00 0. -1.
         11    1    4    4    0    0 -0.19279088524E+02  0.10859577259E+01 -0.16804858242E+02  0.25598160467E+02  0.51100000000E-03 0. -1.
        -11    1    4    4    0    0 -0.36952442212E+01  0.26202053840E+01 -0.84186136601E+01  0.95599875694E+01  0.51100000000E-03 0.  1.
         12    1    4    4    0    0 -0.61576166047E+01  0.10388635848E+02 -0.36952085364E+01  0.12629115692E+02  0.00000000000E+00 0. -1.
</event>
<event>
 8    1  0.4798632E-010  0.9118800E+02  0.7816164E-02  0.1184000E+00
        -11   -1    0    0    0    0  0.00000000000E+00  0.00000000000E+00  0.45593999997E+02  0.45594000000E+02  0.51100000000E-03 0. -1.
         11   -1    0    0    0    0 -0.00000000000E+00 -0.00000000000E+00 -0.45593999997E+02  0.45594000000E+02  0.51100000000E-03 0.  1.
         23    2    1    2    0    0  0.00000000000E+00  0.00000000000E+00  0.00000000000E+00  0.91188000000E+02  0.91188000000E+02 0.  0.
    9900012    2    3    3    0    0 -0.12881669683E+02 -0.40769451907E+02  0.74523498151E+01  0.47787272582E+02  0.20000007012E+02 0.  0.
        -12    1    3    3    0    0  0.12881669683E+02  0.40769451907E+02 -0.74523498151E+01  0.43400727418E+02  0.00000000000E+00 0.  1.
         11    1    4    4    0    0 -0.13882753829E+01 -0.17769223500E+02  0.29593268350E+01  0.18067380218E+02  0.51100000000E-03 0. -1.
        -11    1    4    4    0    0 -0.72630924298E+00 -0.13160652104E+01 -0.38336449184E+01  0.41178133003E+01  0.51100000000E-03 0.  1.
        -12    1    4    4    0    0 -0.10767085057E+02 -0.21684163196E+02  0.83266678985E+01  0.25602079065E+02  0.00000000000E+00 0.  1.
</event>
<event>
 8    1  0.4798632E-010  0.9118800E+02  0.7816164E-02  0.1184000E+00
        -11   -1    0    0    0    0  0.00000000000E+00  0.00000000000E+00  0.45593999997E+02  0.45594000000E+02  0.51100000000E-03 0. -1.
         11   -1    0    0    0    0 -0.00000000000E+00 -0.00000000000E+00 -0.45593999997E+02  0.45594000000E+02  0.51100000000E-03 0.  1.
         23    2    1    2    0    0  0.35527136788E-14  0.00000000000E+00  0.00000000000E+00  0.91188000000E+02  0.91188000000E+02 0.  0.
    9900012    2    3    3    0    0 -0.22873834573E+02 -0.27601270148E+02  0.24465914078E+02  0.47787269896E+02  0.19999994765E+02 0.  0.
        -12    1    3    3    0    0  0.22873834573E+02  0.27601270148E+02 -0.24465914078E+02  0.43400730104E+02  0.00000000000E+00 0.  1.
         11    1    4    4    0    0 -0.36395525055E+01 -0.10421766099E+02  0.12671160785E+02  0.16805292825E+02  0.51100000000E-03 0. -1.
        -11    1    4    4    0    0 -0.12705805739E+02 -0.77413876477E+01  0.51003006199E+00  0.14887132468E+02  0.51100000000E-03 0.  1.
        -12    1    4    4    0    0 -0.65284763285E+01 -0.94381164019E+01  0.11284723232E+02  0.16094844603E+02  0.00000000000E+00 0.  1.
</event>
<event>
 8    1  0.4798632E-010  0.9118800E+02  0.7816164E-02  0.1184000E+00
        -11   -1    0    0    0    0  0.00000000000E+00  0.00000000000E+00  0.45593999997E+02  0.45594000000E+02  0.51100000000E-03 0. -1.
         11   -1    0    0    0    0 -0.00000000000E+00 -0.00000000000E+00 -0.45593999997E+02  0.45594000000E+02  0.51100000000E-03 0.  1.
         23    2    1    2    0    0  0.88817841970E-15  0.00000000000E+00 -0.71054273576E-14  0.91188000000E+02  0.91188000000E+02 0.  0.
    9900012    2    3    3    0    0 -0.57026317656E+01  0.20808958952E+02 -0.37657542532E+02  0.47787270844E+02  0.19999999086E+02 0.  0.
         12    1    3    3    0    0  0.57026317656E+01 -0.20808958952E+02  0.37657542532E+02  0.43400729156E+02  0.00000000000E+00 0. -1.
         11    1    4    4    0    0  0.15406033498E+01  0.45387544952E+01 -0.43342286818E+01  0.64621428007E+01  0.51100000000E-03 0. -1.
        -11    1    4    4    0    0 -0.10278840746E+02  0.11350404174E+02 -0.31879679213E+02  0.35366653631E+02  0.51100000000E-03 0.  1.
        -12    1    4    4    0    0  0.30356056309E+01  0.49198002821E+01 -0.14436346369E+01  0.59584744127E+01  0.00000000000E+00 0.  1.
</event>
<event>
 8    1  0.4798632E-010  0.9118800E+02  0.7816164E-02  0.1184000E+00
        -11   -1    0    0    0    0  0.00000000000E+00  0.00000000000E+00  0.45593999997E+02  0.45594000000E+02  0.51100000000E-03 0. -1.
         11   -1    0    0    0    0 -0.00000000000E+00 -0.00000000000E+00 -0.45593999997E+02  0.45594000000E+02  0.51100000000E-03 0.  1.
         23    2    1    2    0    0  0.00000000000E+00  0.00000000000E+00  0.00000000000E+00  0.91188000000E+02  0.91188000000E+02 0.  0.
    9900012    2    3    3    0    0  0.20109924383E+02  0.24664047503E+01  0.38381388437E+02  0.47787272018E+02  0.20000004438E+02 0.  0.
        -12    1    3    3    0    0 -0.20109924383E+02 -0.24664047503E+01 -0.38381388437E+02  0.43400727982E+02  0.00000000000E+00 0.  1.
         11    1    4    4    0    0  0.86336576261E+01 -0.51049055777E+01  0.26995977054E+02  0.28799008357E+02  0.51100000000E-03 0. -1.
        -11    1    4    4    0    0  0.17635900517E+01 -0.11742087669E+01  0.18021431753E+01  0.27814989456E+01  0.51100000000E-03 0.  1.
         12    1    4    4    0    0  0.97126767048E+01  0.87455190949E+01  0.95832682071E+01  0.16206764715E+02  0.00000000000E+00 0. -1.
</event>
<event>
 8    1  0.4798632E-010  0.9118800E+02  0.7816164E-02  0.1184000E+00
        -11   -1    0    0    0    0  0.00000000000E+00  0.00000000000E+00  0.45593999997E+02  0.45594000000E+02  0.51100000000E-03 0. -1.
         11   -1    0    0    0    0 -0.00000000000E+00 -0.00000000000E+00 -0.45593999997E+02  0.45594000000E+02  0.51100000000E-03 0.  1.
         23    2    1    2    0    0  0.35527136788E-14  0.00000000000E+00 -0.35527136788E-14  0.91188000000E+02  0.91188000000E+02 0.  0.
    9900012    2    3    3    0    0 -0.21885745529E+02  0.29279940581E+02 -0.23394920414E+02  0.47787273290E+02  0.20000010237E+02 0.  0.
         12    1    3    3    0    0  0.21885745529E+02 -0.29279940581E+02  0.23394920414E+02  0.43400726710E+02  0.00000000000E+00 0. -1.
         11    1    4    4    0    0 -0.33455770345E+01  0.82865649860E+00  0.28995023491E+01  0.45040727592E+01  0.51100000000E-03 0. -1.
        -11    1    4    4    0    0 -0.12863977490E+02  0.15820843777E+02 -0.13704608133E+02  0.24568217253E+02  0.51100000000E-03 0.  1.
         12    1    4    4    0    0 -0.56761910045E+01  0.12630440306E+02 -0.12589814630E+02  0.18714983277E+02  0.00000000000E+00 0. -1.
</event>
<event>
 8    1  0.4798632E-010  0.9118800E+02  0.7816164E-02  0.1184000E+00
        -11   -1    0    0    0    0  0.00000000000E+00  0.00000000000E+00  0.45593999997E+02  0.45594000000E+02  0.51100000000E-03 0. -1.
         11   -1    0    0    0    0 -0.00000000000E+00 -0.00000000000E+00 -0.45593999997E+02  0.45594000000E+02  0.51100000000E-03 0.  1.
         23    2    1    2    0    0  0.00000000000E+00 -0.17763568394E-14  0.00000000000E+00  0.91188000000E+02  0.91188000000E+02 0.  0.
    9900012    2    3    3    0    0  0.11404963463E+02  0.90862573047E+01 -0.40877742114E+02  0.47787273465E+02  0.20000011036E+02 0.  0.
         12    1    3    3    0    0 -0.11404963463E+02 -0.90862573047E+01  0.40877742114E+02  0.43400726535E+02  0.00000000000E+00 0. -1.
         11    1    4    4    0    0  0.85630506920E+00  0.10654531752E+00 -0.28727569525E+02  0.28740526462E+02  0.51100000000E-03 0. -1.
        -11    1    4    4    0    0  0.72618875406E+01  0.72184971927E+01 -0.11247524207E+02  0.15210145083E+02  0.51100000000E-03 0.  1.
         12    1    4    4    0    0  0.32867708529E+01  0.17612147945E+01 -0.90264838240E+00  0.38366019202E+01  0.00000000000E+00 0. -1.
</event>
<event>
 8    1  0.8746479E-010  0.9118800E+02  0.7816164E-02  0.1184000E+00
        -11   -1    0    0    0    0  0.00000000000E+00  0.00000000000E+00  0.45593999997E+02  0.45594000000E+02  0.51100000000E-03 0. -1.
         11   -1    0    0    0    0 -0.00000000000E+00 -0.00000000000E+00 -0.45593999997E+02  0.45594000000E+02  0.51100000000E-03 0.  1.
         23    2    1    2    0    0 -0.17763568394E-14  0.88817841970E-15 -0.71054273576E-14  0.91188000000E+02  0.91188000000E+02 0.  0.
    9900012    2    3    3    0    0 -0.13855367840E+02  0.66747195459E+01 -0.40584483933E+02  0.47787269187E+02  0.19999991532E+02 0.  0.
         12    1    3    3    0    0  0.13855367840E+02 -0.66747195459E+01  0.40584483933E+02  0.43400730813E+02  0.00000000000E+00 0. -1.
         11    1    4    4    0    0 -0.39640122822E+00 -0.15100052722E+01 -0.35162501544E+00  0.16002781847E+01  0.51100000000E-03 0. -1.
        -11    1    4    4    0    0  0.98755448091E+00 -0.31996321406E+01 -0.12258226791E+02  0.12707361410E+02  0.51100000000E-03 0.  1.
        -12    1    4    4    0    0 -0.14446521092E+02  0.11384356959E+02 -0.27974632126E+02  0.33479629592E+02  0.00000000000E+00 0.  1.
</event>
<event>
 8    1  0.4798632E-010  0.9118800E+02  0.7816164E-02  0.1184000E+00
        -11   -1    0    0    0    0  0.00000000000E+00  0.00000000000E+00  0.45593999997E+02  0.45594000000E+02  0.51100000000E-03 0. -1.
         11   -1    0    0    0    0 -0.00000000000E+00 -0.00000000000E+00 -0.45593999997E+02  0.45594000000E+02  0.51100000000E-03 0.  1.
         23    2    1    2    0    0  0.00000000000E+00  0.00000000000E+00  0.35527136788E-14  0.91188000000E+02  0.91188000000E+02 0.  0.
    9900012    2    3    3    0    0 -0.22048360699E+02 -0.23092178440E+02  0.29398067178E+02  0.47787248066E+02  0.19999895232E+02 0.  0.
        -12    1    3    3    0    0  0.22048360699E+02  0.23092178440E+02 -0.29398067178E+02  0.43400751934E+02  0.00000000000E+00 0.  1.
         11    1    4    4    0    0 -0.10904987111E+02 -0.41750735270E+01  0.21346481924E+02  0.24331507837E+02  0.51100000000E-03 0.  1.
        -11    1    4    4    0    0 -0.10136126158E+02 -0.16732551657E+02  0.77026280153E+01  0.21024980786E+02  0.51100000000E-03 0. -1.
        -12    1    4    4    0    0 -0.10072474302E+01 -0.21845532563E+01  0.34895723912E+00  0.24307594431E+01  0.00000000000E+00 0.  1.
</event>
<event>
 8    1  0.4798632E-010  0.9118800E+02  0.7816164E-02  0.1184000E+00
        -11   -1    0    0    0    0  0.00000000000E+00  0.00000000000E+00  0.45593999997E+02  0.45594000000E+02  0.51100000000E-03 0. -1.
         11   -1    0    0    0    0 -0.00000000000E+00 -0.00000000000E+00 -0.45593999997E+02  0.45594000000E+02  0.51100000000E-03 0.  1.
         23    2    1    2    0    0 -0.17763568394E-14 -0.35527136788E-14  0.00000000000E+00  0.91188000000E+02  0.91188000000E+02 0.  0.
    9900012    2    3    3    0    0  0.13134461351E+02  0.23754976879E+02 -0.33864597144E+02  0.47787263356E+02  0.19999964946E+02 0.  0.
         12    1    3    3    0    0 -0.13134461351E+02 -0.23754976879E+02  0.33864597144E+02  0.43400736644E+02  0.00000000000E+00 0. -1.
         11    1    4    4    0    0  0.25205538520E+01  0.92980080644E+01 -0.30990622201E+01  0.10119799039E+02  0.51100000000E-03 0. -1.
        -11    1    4    4    0    0  0.12172332323E+02  0.14995686119E+02 -0.30337551625E+02  0.35963916850E+02  0.51100000000E-03 0.  1.
        -12    1    4    4    0    0 -0.15584248244E+01 -0.53871730418E+00 -0.42798329920E+00  0.17035474668E+01  0.00000000000E+00 0.  1.
</event>
<event>
 8    1  0.4798632E-010  0.9118800E+02  0.7816164E-02  0.1184000E+00
        -11   -1    0    0    0    0  0.00000000000E+00  0.00000000000E+00  0.45593999997E+02  0.45594000000E+02  0.51100000000E-03 0. -1.
         11   -1    0    0    0    0 -0.00000000000E+00 -0.00000000000E+00 -0.45593999997E+02  0.45594000000E+02  0.51100000000E-03 0.  1.
         23    2    1    2    0    0  0.88817841970E-15  0.00000000000E+00  0.00000000000E+00  0.91188000000E+02  0.91188000000E+02 0.  0.
    9900012    2    3    3    0    0 -0.38589100701E+01 -0.40207975961E+02  0.15876103459E+02  0.47787272139E+02  0.20000004991E+02 0.  0.
        -12    1    3    3    0    0  0.38589100701E+01  0.40207975961E+02 -0.15876103459E+02  0.43400727861E+02  0.00000000000E+00 0.  1.
         11    1    4    4    0    0 -0.93972244886E+01 -0.31979974692E+02  0.14019625906E+02  0.36160427545E+02  0.51100000000E-03 0. -1.
        -11    1    4    4    0    0  0.51874123081E+01 -0.48215371258E+01  0.34172333177E+01  0.78634566521E+01  0.51100000000E-03 0.  1.
        -12    1    4    4    0    0  0.35090211046E+00 -0.34064641430E+01 -0.15607557647E+01  0.37633879425E+01  0.00000000000E+00 0.  1.
</event>
<event>
 8    1  0.4798632E-010  0.9118800E+02  0.7816164E-02  0.1184000E+00
        -11   -1    0    0    0    0  0.00000000000E+00  0.00000000000E+00  0.45593999997E+02  0.45594000000E+02  0.51100000000E-03 0. -1.
         11   -1    0    0    0    0 -0.00000000000E+00 -0.00000000000E+00 -0.45593999997E+02  0.45594000000E+02  0.51100000000E-03 0.  1.
         23    2    1    2    0    0  0.00000000000E+00  0.00000000000E+00  0.00000000000E+00  0.91188000000E+02  0.91188000000E+02 0.  0.
    9900012    2    3    3    0    0  0.27492574516E+02 -0.80336768045E+00 -0.33572850825E+02  0.47787269988E+02  0.19999995182E+02 0.  0.
         12    1    3    3    0    0 -0.27492574516E+02  0.80336768045E+00  0.33572850825E+02  0.43400730012E+02  0.00000000000E+00 0. -1.
         11    1    4    4    0    0  0.17884870133E+02 -0.38962703519E+01 -0.84300040517E+01  0.20152282027E+02  0.51100000000E-03 0. -1.
        -11    1    4    4    0    0  0.94694014973E+01  0.37354157255E+01 -0.19913370790E+02  0.22364374166E+02  0.51100000000E-03 0.  1.
         12    1    4    4    0    0  0.13830288498E+00 -0.64251305414E+00 -0.52294759827E+01  0.52706137941E+01  0.00000000000E+00 0. -1.
</event>
<event>
 8    1  0.4798632E-010  0.9118800E+02  0.7816164E-02  0.1184000E+00
        -11   -1    0    0    0    0  0.00000000000E+00  0.00000000000E+00  0.45593999997E+02  0.45594000000E+02  0.51100000000E-03 0. -1.
         11   -1    0    0    0    0 -0.00000000000E+00 -0.00000000000E+00 -0.45593999997E+02  0.45594000000E+02  0.51100000000E-03 0.  1.
         23    2    1    2    0    0 -0.88817841970E-15  0.00000000000E+00  0.00000000000E+00  0.91188000000E+02  0.91188000000E+02 0.  0.
    9900012    2    3    3    0    0 -0.66874314880E+01 -0.42130730559E+01  0.42674954079E+02  0.47787269244E+02  0.19999991792E+02 0.  0.
        -12    1    3    3    0    0  0.66874314880E+01  0.42130730559E+01 -0.42674954079E+02  0.43400730756E+02  0.00000000000E+00 0.  1.
         11    1    4    4    0    0 -0.38304409958E+01 -0.30912005251E+01  0.83028606175E+01  0.96522170305E+01  0.51100000000E-03 0. -1.
        -11    1    4    4    0    0 -0.22877271628E+01  0.62388323623E+01  0.26591899161E+02  0.27409593686E+02  0.51100000000E-03 0.  1.
        -12    1    4    4    0    0 -0.56926332939E+00 -0.73607048930E+01  0.77801943010E+01  0.10725458527E+02  0.00000000000E+00 0.  1.
</event>
<event>
 8    1  0.4798632E-010  0.9118800E+02  0.7816164E-02  0.1184000E+00
        -11   -1    0    0    0    0  0.00000000000E+00  0.00000000000E+00  0.45593999997E+02  0.45594000000E+02  0.51100000000E-03 0.  1.
         11   -1    0    0    0    0 -0.00000000000E+00 -0.00000000000E+00 -0.45593999997E+02  0.45594000000E+02  0.51100000000E-03 0. -1.
         23    2    1    2    0    0  0.71054273576E-14 -0.35527136788E-14  0.17763568394E-14  0.91188000000E+02  0.91188000000E+02 0.  0.
    9900012    2    3    3    0    0 -0.39474671052E+02  0.17178410268E+02 -0.55023450891E+01  0.47787271486E+02  0.20000002014E+02 0.  0.
         12    1    3    3    0    0  0.39474671052E+02 -0.17178410268E+02  0.55023450891E+01  0.43400728514E+02  0.00000000000E+00 0. -1.
         11    1    4    4    0    0 -0.22216865074E+01 -0.24614940692E+00 -0.44149740135E+01  0.49485832587E+01  0.51100000000E-03 0. -1.
        -11    1    4    4    0    0 -0.17406806849E+02  0.64011347022E+01  0.52377689852E+01  0.19271888189E+02  0.51100000000E-03 0.  1.
        -12    1    4    4    0    0 -0.19846177696E+02  0.11023424973E+02 -0.63251400608E+01  0.23566800039E+02  0.00000000000E+00 0.  1.
</event>
<event>
 8    1  0.4798632E-010  0.9118800E+02  0.7816164E-02  0.1184000E+00
        -11   -1    0    0    0    0  0.00000000000E+00  0.00000000000E+00  0.45593999997E+02  0.45594000000E+02  0.51100000000E-03 0. -1.
         11   -1    0    0    0    0 -0.00000000000E+00 -0.00000000000E+00 -0.45593999997E+02  0.45594000000E+02  0.51100000000E-03 0.  1.
         23    2    1    2    0    0  0.00000000000E+00  0.00000000000E+00  0.00000000000E+00  0.91188000000E+02  0.91188000000E+02 0.  0.
    9900012    2    3    3    0    0 -0.11948334474E+02 -0.17255538101E+02 -0.37988236097E+02  0.47787281416E+02  0.20000047286E+02 0.  0.
         12    1    3    3    0    0  0.11948334474E+02  0.17255538101E+02  0.37988236097E+02  0.43400718584E+02  0.00000000000E+00 0. -1.
         11    1    4    4    0    0 -0.98298894728E+01 -0.95360771938E+01 -0.23703314177E+02  0.27375364811E+02  0.51100000000E-03 0. -1.
        -11    1    4    4    0    0 -0.27125874084E+01 -0.95274390180E+01 -0.15321397450E+02  0.18244874480E+02  0.51100000000E-03 0.  1.
         12    1    4    4    0    0  0.59414240680E+00  0.18079781103E+01  0.10364755302E+01  0.21670421250E+01  0.00000000000E+00 0. -1.
</event>
<event>
 8    1  0.4798632E-010  0.9118800E+02  0.7816164E-02  0.1184000E+00
        -11   -1    0    0    0    0  0.00000000000E+00  0.00000000000E+00  0.45593999997E+02  0.45594000000E+02  0.51100000000E-03 0. -1.
         11   -1    0    0    0    0 -0.00000000000E+00 -0.00000000000E+00 -0.45593999997E+02  0.45594000000E+02  0.51100000000E-03 0.  1.
         23    2    1    2    0    0 -0.71054273576E-14  0.00000000000E+00  0.00000000000E+00  0.91188000000E+02  0.91188000000E+02 0.  0.
    9900012    2    3    3    0    0  0.37216089702E+02 -0.18780142931E+02 -0.12078579005E+02  0.47787272218E+02  0.20000005352E+02 0.  0.
         12    1    3    3    0    0 -0.37216089702E+02  0.18780142931E+02  0.12078579005E+02  0.43400727782E+02  0.00000000000E+00 0. -1.
         11    1    4    4    0    0  0.10553246788E+02 -0.11119154248E+02 -0.96075056166E+01  0.18091732183E+02  0.51100000000E-03 0. -1.
        -11    1    4    4    0    0  0.11719356973E+02 -0.86553364688E+01 -0.20543716966E+01  0.14713212450E+02  0.51100000000E-03 0.  1.
         12    1    4    4    0    0  0.14943485940E+02  0.99434778620E+00 -0.41670169209E+00  0.14982327585E+02  0.00000000000E+00 0. -1.
</event>
<event>
 8    1  0.4798632E-010  0.9118800E+02  0.7816164E-02  0.1184000E+00
        -11   -1    0    0    0    0  0.00000000000E+00  0.00000000000E+00  0.45593999997E+02  0.45594000000E+02  0.51100000000E-03 0. -1.
         11   -1    0    0    0    0 -0.00000000000E+00 -0.00000000000E+00 -0.45593999997E+02  0.45594000000E+02  0.51100000000E-03 0.  1.
         23    2    1    2    0    0  0.17763568394E-14 -0.71054273576E-14  0.00000000000E+00  0.91188000000E+02  0.91188000000E+02 0.  0.
    9900012    2    3    3    0    0  0.11113676270E+02 -0.32694097924E+02  0.26290779634E+02  0.47787274971E+02  0.20000017903E+02 0.  0.
        -12    1    3    3    0    0 -0.11113676270E+02  0.32694097924E+02 -0.26290779634E+02  0.43400725029E+02  0.00000000000E+00 0.  1.
         11    1    4    4    0    0  0.21732675638E+01 -0.62932058251E+01 -0.11084536736E+01  0.67495334112E+01  0.51100000000E-03 0.  1.
        -11    1    4    4    0    0  0.24541246246E+00 -0.15951061789E+02  0.19924276855E+02  0.25523977118E+02  0.51100000000E-03 0. -1.
         12    1    4    4    0    0  0.86949962441E+01 -0.10449830310E+02  0.74749564526E+01  0.15513764442E+02  0.00000000000E+00 0. -1.
</event>
<event>
 8    1  0.4798632E-010  0.9118800E+02  0.7816164E-02  0.1184000E+00
        -11   -1    0    0    0    0  0.00000000000E+00  0.00000000000E+00  0.45593999997E+02  0.45594000000E+02  0.51100000000E-03 0.  1.
         11   -1    0    0    0    0 -0.00000000000E+00 -0.00000000000E+00 -0.45593999997E+02  0.45594000000E+02  0.51100000000E-03 0. -1.
         23    2    1    2    0    0  0.71054273576E-14 -0.44408920985E-15  0.88817841970E-15  0.91188000000E+02  0.91188000000E+02 0.  0.
    9900012    2    3    3    0    0 -0.42844937692E+02  0.24608378887E+01 -0.64713727822E+01  0.47787273340E+02  0.20000010467E+02 0.  0.
        -12    1    3    3    0    0  0.42844937692E+02 -0.24608378887E+01  0.64713727822E+01  0.43400726660E+02  0.00000000000E+00 0.  1.
         11    1    4    4    0    0 -0.22004035010E+02  0.26420477725E+01  0.39033353015E+01  0.22503199770E+02  0.51100000000E-03 0. -1.
        -11    1    4    4    0    0 -0.19575429835E+02 -0.29294703497E+01 -0.10165540911E+02  0.22251235292E+02  0.51100000000E-03 0.  1.
         12    1    4    4    0    0 -0.12654728465E+01  0.27482604658E+01 -0.20916717256E+00  0.30328382778E+01  0.00000000000E+00 0. -1.
</event>
<event>
 8    1  0.4798632E-010  0.9118800E+02  0.7816164E-02  0.1184000E+00
        -11   -1    0    0    0    0  0.00000000000E+00  0.00000000000E+00  0.45593999997E+02  0.45594000000E+02  0.51100000000E-03 0. -1.
         11   -1    0    0    0    0 -0.00000000000E+00 -0.00000000000E+00 -0.45593999997E+02  0.45594000000E+02  0.51100000000E-03 0.  1.
         23    2    1    2    0    0 -0.71054273576E-14  0.00000000000E+00  0.00000000000E+00  0.91188000000E+02  0.91188000000E+02 0.  0.
    9900012    2    3    3    0    0 -0.35438537728E+02  0.29925342115E+01  0.24875140428E+02  0.47787333777E+02  0.20000286020E+02 0.  0.
        -12    1    3    3    0    0  0.35438537728E+02 -0.29925342115E+01 -0.24875140428E+02  0.43400666223E+02  0.00000000000E+00 0.  1.
         11    1    4    4    0    0  0.13995285291E+01 -0.20836070740E+01  0.14304602146E+01  0.28889990013E+01  0.51100000000E-03 0. -1.
        -11    1    4    4    0    0 -0.61279160234E+01  0.12945282955E+01  0.32281714266E+00  0.62714726712E+01  0.51100000000E-03 0.  1.
         12    1    4    4    0    0 -0.30710150234E+02  0.37816129900E+01  0.23121863070E+02  0.38626862104E+02  0.00000000000E+00 0. -1.
</event>
<event>
 8    1  0.5903829E-010  0.9118800E+02  0.7816164E-02  0.1184000E+00
        -11   -1    0    0    0    0  0.00000000000E+00  0.00000000000E+00  0.45593999997E+02  0.45594000000E+02  0.51100000000E-03 0.  1.
         11   -1    0    0    0    0 -0.00000000000E+00 -0.00000000000E+00 -0.45593999997E+02  0.45594000000E+02  0.51100000000E-03 0. -1.
         23    2    1    2    0    0  0.00000000000E+00  0.71054273576E-14  0.00000000000E+00  0.91188000000E+02  0.91188000000E+02 0.  0.
    9900012    2    3    3    0    0  0.76886430027E+01  0.35552303302E+02 -0.23675762820E+02  0.47787271361E+02  0.20000001442E+02 0.  0.
         12    1    3    3    0    0 -0.76886430027E+01 -0.35552303302E+02  0.23675762820E+02  0.43400728639E+02  0.00000000000E+00 0. -1.
         11    1    4    4    0    0  0.33515557457E+01 -0.80609403341E+00 -0.46283005485E+01  0.57709513718E+01  0.51100000000E-03 0. -1.
        -11    1    4    4    0    0  0.65658874285E+01  0.24670419499E+02 -0.12301547684E+02  0.28338464172E+02  0.51100000000E-03 0.  1.
        -12    1    4    4    0    0 -0.22288001715E+01  0.11687977837E+02 -0.67459145879E+01  0.13677855817E+02  0.00000000000E+00 0.  1.
</event>
<event>
 8    1  0.4798632E-010  0.9118800E+02  0.7816164E-02  0.1184000E+00
        -11   -1    0    0    0    0  0.00000000000E+00  0.00000000000E+00  0.45593999997E+02  0.45594000000E+02  0.51100000000E-03 0. -1.
         11   -1    0    0    0    0 -0.00000000000E+00 -0.00000000000E+00 -0.45593999997E+02  0.45594000000E+02  0.51100000000E-03 0.  1.
         23    2    1    2    0    0  0.35527136788E-14  0.35527136788E-14  0.00000000000E+00  0.91188000000E+02  0.91188000000E+02 0.  0.
    9900012    2    3    3    0    0  0.29451935804E+02  0.23328825974E+02 -0.21724945437E+02  0.47787263853E+02  0.19999967211E+02 0.  0.
         12    1    3    3    0    0 -0.29451935804E+02 -0.23328825974E+02  0.21724945437E+02  0.43400736147E+02  0.00000000000E+00 0. -1.
         11    1    4    4    0    0  0.37190571893E+01  0.40764387728E+01 -0.94498613329E+00  0.55983692714E+01  0.51100000000E-03 0. -1.
        -11    1    4    4    0    0  0.26425144284E+02  0.18155937610E+02 -0.13488661222E+02  0.34783189945E+02  0.51100000000E-03 0.  1.
        -12    1    4    4    0    0 -0.69226566924E+00  0.10964495913E+01 -0.72912980811E+01  0.74057046370E+01  0.00000000000E+00 0.  1.
</event>
<event>
 8    1  0.4798632E-010  0.9118800E+02  0.7816164E-02  0.1184000E+00
        -11   -1    0    0    0    0  0.00000000000E+00  0.00000000000E+00  0.45593999997E+02  0.45594000000E+02  0.51100000000E-03 0. -1.
         11   -1    0    0    0    0 -0.00000000000E+00 -0.00000000000E+00 -0.45593999997E+02  0.45594000000E+02  0.51100000000E-03 0.  1.
         23    2    1    2    0    0 -0.88817841970E-15 -0.88817841970E-15  0.71054273576E-14  0.91188000000E+02  0.91188000000E+02 0.  0.
    9900012    2    3    3    0    0  0.58196155176E+01  0.14174415340E+01 -0.42985419388E+02  0.47787270223E+02  0.19999996254E+02 0.  0.
         12    1    3    3    0    0 -0.58196155176E+01 -0.14174415340E+01  0.42985419388E+02  0.43400729777E+02  0.00000000000E+00 0. -1.
         11    1    4    4    0    0  0.39185576053E+01 -0.73022862708E+01 -0.20861890522E+02  0.22447649207E+02  0.51100000000E-03 0.  1.
        -11    1    4    4    0    0 -0.16472953285E+01 -0.39332675939E+00 -0.78933083696E+01  0.80729551663E+01  0.51100000000E-03 0. -1.
         12    1    4    4    0    0  0.35483532408E+01  0.91130545641E+01 -0.14230220496E+02  0.17266665850E+02  0.00000000000E+00 0. -1.
</event>
<event>
 8    1  0.4798632E-010  0.9118800E+02  0.7816164E-02  0.1184000E+00
        -11   -1    0    0    0    0  0.00000000000E+00  0.00000000000E+00  0.45593999997E+02  0.45594000000E+02  0.51100000000E-03 0. -1.
         11   -1    0    0    0    0 -0.00000000000E+00 -0.00000000000E+00 -0.45593999997E+02  0.45594000000E+02  0.51100000000E-03 0.  1.
         23    2    1    2    0    0  0.00000000000E+00  0.00000000000E+00 -0.71054273576E-14  0.91188000000E+02  0.91188000000E+02 0.  0.
    9900012    2    3    3    0    0 -0.16904750962E+02 -0.83490747051E+01 -0.39091505244E+02  0.47787269180E+02  0.19999991498E+02 0.  0.
         12    1    3    3    0    0  0.16904750962E+02  0.83490747051E+01  0.39091505244E+02  0.43400730820E+02  0.00000000000E+00 0. -1.
         11    1    4    4    0    0 -0.43192788810E+01  0.36893719069E+01 -0.10754885665E+02  0.12162861548E+02  0.51100000000E-03 0. -1.
        -11    1    4    4    0    0 -0.90138893413E+01 -0.21542226661E+01 -0.20554096421E+02  0.22546879081E+02  0.51100000000E-03 0.  1.
        -12    1    4    4    0    0 -0.35715827392E+01 -0.98842239460E+01 -0.77825231581E+01  0.13077528550E+02  0.00000000000E+00 0.  1.
</event>
<event>
 8    1  0.4798632E-010  0.9118800E+02  0.7816164E-02  0.1184000E+00
        -11   -1    0    0    0    0  0.00000000000E+00  0.00000000000E+00  0.45593999997E+02  0.45594000000E+02  0.51100000000E-03 0. -1.
         11   -1    0    0    0    0 -0.00000000000E+00 -0.00000000000E+00 -0.45593999997E+02  0.45594000000E+02  0.51100000000E-03 0.  1.
         23    2    1    2    0    0  0.00000000000E+00  0.00000000000E+00  0.00000000000E+00  0.91188000000E+02  0.91188000000E+02 0.  0.
    9900012    2    3    3    0    0 -0.56342184457E+01  0.38936357493E+02  0.18325890322E+02  0.47787278711E+02  0.20000034953E+02 0.  0.
        -12    1    3    3    0    0  0.56342184457E+01 -0.38936357493E+02 -0.18325890322E+02  0.43400721289E+02  0.00000000000E+00 0.  1.
         11    1    4    4    0    0 -0.89515021505E+01  0.27759602066E+02  0.18187461070E+02  0.34373080136E+02  0.51100000000E-03 0. -1.
        -11    1    4    4    0    0  0.48600617405E+01  0.10541616837E+02 -0.52223462033E+00  0.11619751069E+02  0.51100000000E-03 0.  1.
         12    1    4    4    0    0 -0.15427780357E+01  0.63513859099E+00  0.66066387291E+00  0.17944475056E+01  0.00000000000E+00 0. -1.
</event>
<event>
 8    1  0.4798632E-010  0.9118800E+02  0.7816164E-02  0.1184000E+00
        -11   -1    0    0    0    0  0.00000000000E+00  0.00000000000E+00  0.45593999997E+02  0.45594000000E+02  0.51100000000E-03 0.  1.
         11   -1    0    0    0    0 -0.00000000000E+00 -0.00000000000E+00 -0.45593999997E+02  0.45594000000E+02  0.51100000000E-03 0. -1.
         23    2    1    2    0    0  0.00000000000E+00  0.00000000000E+00  0.00000000000E+00  0.91188000000E+02  0.91188000000E+02 0.  0.
    9900012    2    3    3    0    0 -0.12407517878E+02  0.41274992262E+02  0.51040477720E+01  0.47787276622E+02  0.20000025429E+02 0.  0.
         12    1    3    3    0    0  0.12407517878E+02 -0.41274992262E+02 -0.51040477720E+01  0.43400723378E+02  0.00000000000E+00 0. -1.
         11    1    4    4    0    0 -0.69589602864E+01  0.29478713427E+02  0.19060770464E-01  0.30288975506E+02  0.51100000000E-03 0. -1.
        -11    1    4    4    0    0  0.25349715571E+01  0.42339780280E+01  0.41752113345E+01  0.64641349526E+01  0.51100000000E-03 0.  1.
        -12    1    4    4    0    0 -0.79835291490E+01  0.75623008064E+01  0.90977566709E+00  0.11034166164E+02  0.00000000000E+00 0.  1.
</event>
<event>
 8    1  0.4798632E-010  0.9118800E+02  0.7816164E-02  0.1184000E+00
        -11   -1    0    0    0    0  0.00000000000E+00  0.00000000000E+00  0.45593999997E+02  0.45594000000E+02  0.51100000000E-03 0. -1.
         11   -1    0    0    0    0 -0.00000000000E+00 -0.00000000000E+00 -0.45593999997E+02  0.45594000000E+02  0.51100000000E-03 0.  1.
         23    2    1    2    0    0  0.88817841970E-15  0.00000000000E+00 -0.71054273576E-14  0.91188000000E+02  0.91188000000E+02 0.  0.
    9900012    2    3    3    0    0 -0.65460896190E+01  0.25011757410E+02 -0.34859487830E+02  0.47787272013E+02  0.20000004414E+02 0.  0.
         12    1    3    3    0    0  0.65460896190E+01 -0.25011757410E+02  0.34859487830E+02  0.43400727987E+02  0.00000000000E+00 0. -1.
         11    1    4    4    0    0 -0.12563509782E+02  0.14995050216E+02 -0.20589605058E+02  0.28401146908E+02  0.51100000000E-03 0. -1.
        -11    1    4    4    0    0  0.34134869293E+01  0.87290362388E+01 -0.13402144407E+02  0.16354370719E+02  0.51100000000E-03 0.  1.
         12    1    4    4    0    0  0.26039332340E+01  0.12876709557E+01 -0.86773836621E+00  0.30317543847E+01  0.00000000000E+00 0. -1.
</event>
<event>
 8    1  0.4798632E-010  0.9118800E+02  0.7816164E-02  0.1184000E+00
        -11   -1    0    0    0    0  0.00000000000E+00  0.00000000000E+00  0.45593999997E+02  0.45594000000E+02  0.51100000000E-03 0. -1.
         11   -1    0    0    0    0 -0.00000000000E+00 -0.00000000000E+00 -0.45593999997E+02  0.45594000000E+02  0.51100000000E-03 0.  1.
         23    2    1    2    0    0 -0.17763568394E-14  0.00000000000E+00  0.00000000000E+00  0.91188000000E+02  0.91188000000E+02 0.  0.
    9900012    2    3    3    0    0  0.34009848004E+01 -0.95951485784E+01 -0.42189941749E+02  0.47787253939E+02  0.19999922009E+02 0.  0.
         12    1    3    3    0    0 -0.34009848004E+01  0.95951485784E+01  0.42189941749E+02  0.43400746061E+02  0.00000000000E+00 0. -1.
         11    1    4    4    0    0 -0.58839699936E+01  0.85081177114E-01 -0.99439687332E+01  0.11554689789E+02  0.51100000000E-03 0. -1.
        -11    1    4    4    0    0  0.47140662836E+01 -0.10758054709E+02 -0.24586417830E+02  0.27247937611E+02  0.51100000000E-03 0.  1.
         12    1    4    4    0    0  0.45708885104E+01  0.10778249535E+01 -0.76595551858E+01  0.89846265392E+01  0.00000000000E+00 0. -1.
</event>
<event>
 8    1  0.4798632E-010  0.9118800E+02  0.7816164E-02  0.1184000E+00
        -11   -1    0    0    0    0  0.00000000000E+00  0.00000000000E+00  0.45593999997E+02  0.45594000000E+02  0.51100000000E-03 0.  1.
         11   -1    0    0    0    0 -0.00000000000E+00 -0.00000000000E+00 -0.45593999997E+02  0.45594000000E+02  0.51100000000E-03 0. -1.
         23    2    1    2    0    0  0.00000000000E+00  0.00000000000E+00  0.17763568394E-14  0.91188000000E+02  0.91188000000E+02 0.  0.
    9900012    2    3    3    0    0 -0.37931087058E+02 -0.16334341165E+02  0.13343338491E+02  0.47787277094E+02  0.20000027580E+02 0.  0.
         12    1    3    3    0    0  0.37931087058E+02  0.16334341165E+02 -0.13343338491E+02  0.43400722906E+02  0.00000000000E+00 0. -1.
         11    1    4    4    0    0 -0.55896941014E+01 -0.33700278737E+00  0.11875967497E+01  0.57243896903E+01  0.51100000000E-03 0. -1.
        -11    1    4    4    0    0 -0.37324127969E+01  0.23391323919E+01 -0.24903610809E+01  0.50600735378E+01  0.51100000000E-03 0.  1.
        -12    1    4    4    0    0 -0.28608980160E+02 -0.18336470770E+02  0.14646102822E+02  0.37002813865E+02  0.00000000000E+00 0.  1.
</event>
<event>
 8    1  0.4798632E-010  0.9118800E+02  0.7816164E-02  0.1184000E+00
        -11   -1    0    0    0    0  0.00000000000E+00  0.00000000000E+00  0.45593999997E+02  0.45594000000E+02  0.51100000000E-03 0. -1.
         11   -1    0    0    0    0 -0.00000000000E+00 -0.00000000000E+00 -0.45593999997E+02  0.45594000000E+02  0.51100000000E-03 0.  1.
         23    2    1    2    0    0 -0.35527136788E-14  0.00000000000E+00  0.00000000000E+00  0.91188000000E+02  0.91188000000E+02 0.  0.
    9900012    2    3    3    0    0 -0.27467269680E+02 -0.19796787855E+02  0.27152522484E+02  0.47787272007E+02  0.20000004387E+02 0.  0.
        -12    1    3    3    0    0  0.27467269680E+02  0.19796787855E+02 -0.27152522484E+02  0.43400727993E+02  0.00000000000E+00 0.  1.
         11    1    4    4    0    0 -0.68360518512E+01 -0.16036638515E+02  0.16598337837E+02  0.24070940966E+02  0.51100000000E-03 0. -1.
        -11    1    4    4    0    0 -0.14781272401E+02 -0.27458609311E+01  0.92030570985E+01  0.17627309104E+02  0.51100000000E-03 0.  1.
         12    1    4    4    0    0 -0.58499454281E+01 -0.10142884097E+01  0.13511275488E+01  0.60890219364E+01  0.00000000000E+00 0. -1.
</event>
<event>
 8    1  0.4798632E-010  0.9118800E+02  0.7816164E-02  0.1184000E+00
        -11   -1    0    0    0    0  0.00000000000E+00  0.00000000000E+00  0.45593999997E+02  0.45594000000E+02  0.51100000000E-03 0. -1.
         11   -1    0    0    0    0 -0.00000000000E+00 -0.00000000000E+00 -0.45593999997E+02  0.45594000000E+02  0.51100000000E-03 0.  1.
         23    2    1    2    0    0  0.00000000000E+00 -0.35527136788E-14  0.35527136788E-14  0.91188000000E+02  0.91188000000E+02 0.  0.
    9900012    2    3    3    0    0  0.28907446171E+02 -0.22771950715E+02  0.23009157337E+02  0.47787268384E+02  0.19999987868E+02 0.  0.
        -12    1    3    3    0    0 -0.28907446171E+02  0.22771950715E+02 -0.23009157337E+02  0.43400731616E+02  0.00000000000E+00 0.  1.
         11    1    4    4    0    0  0.73713882078E+01 -0.54814387887E+01 -0.18645668129E+00  0.91879432769E+01  0.51100000000E-03 0.  1.
        -11    1    4    4    0    0  0.12944203514E+02 -0.70429968439E+01  0.20012889415E+02  0.24853006904E+02  0.51100000000E-03 0. -1.
        -12    1    4    4    0    0  0.85918544490E+01 -0.10247515082E+02  0.31827246029E+01  0.13746318203E+02  0.00000000000E+00 0.  1.
</event>
<event>
 8    1  0.4798632E-010  0.9118800E+02  0.7816164E-02  0.1184000E+00
        -11   -1    0    0    0    0  0.00000000000E+00  0.00000000000E+00  0.45593999997E+02  0.45594000000E+02  0.51100000000E-03 0. -1.
         11   -1    0    0    0    0 -0.00000000000E+00 -0.00000000000E+00 -0.45593999997E+02  0.45594000000E+02  0.51100000000E-03 0.  1.
         23    2    1    2    0    0 -0.55511151231E-16  0.00000000000E+00  0.00000000000E+00  0.91188000000E+02  0.91188000000E+02 0.  0.
    9900012    2    3    3    0    0  0.40111647601E+00  0.41880817475E+02  0.11378019251E+02  0.47787273176E+02  0.20000009719E+02 0.  0.
        -12    1    3    3    0    0 -0.40111647601E+00 -0.41880817475E+02 -0.11378019251E+02  0.43400726824E+02  0.00000000000E+00 0.  1.
         11    1    4    4    0    0  0.68446430326E+00  0.51575702262E+01  0.30648625317E+01  0.60384107694E+01  0.51100000000E-03 0. -1.
        -11    1    4    4    0    0 -0.22576178673E+01  0.30366691581E+02 -0.80332389080E+00  0.30461091996E+02  0.51100000000E-03 0.  1.
        -12    1    4    4    0    0  0.19742700401E+01  0.63565556672E+01  0.91164806100E+01  0.11287770411E+02  0.00000000000E+00 0.  1.
</event>
<event>
 8    1  0.4798632E-010  0.9118800E+02  0.7816164E-02  0.1184000E+00
        -11   -1    0    0    0    0  0.00000000000E+00  0.00000000000E+00  0.45593999997E+02  0.45594000000E+02  0.51100000000E-03 0.  1.
         11   -1    0    0    0    0 -0.00000000000E+00 -0.00000000000E+00 -0.45593999997E+02  0.45594000000E+02  0.51100000000E-03 0. -1.
         23    2    1    2    0    0  0.00000000000E+00  0.00000000000E+00  0.00000000000E+00  0.91188000000E+02  0.91188000000E+02 0.  0.
    9900012    2    3    3    0    0 -0.19310347034E+02  0.34189235466E+02  0.18488647030E+02  0.47787269669E+02  0.19999993727E+02 0.  0.
        -12    1    3    3    0    0  0.19310347034E+02 -0.34189235466E+02 -0.18488647030E+02  0.43400730331E+02  0.00000000000E+00 0.  1.
         11    1    4    4    0    0 -0.77597085564E+01  0.21171803300E+02  0.47001025778E+01  0.23033655732E+02  0.51100000000E-03 0. -1.
        -11    1    4    4    0    0 -0.51794431240E+01 -0.61622310401E+00  0.54716235848E+01  0.75594329750E+01  0.51100000000E-03 0.  1.
         12    1    4    4    0    0 -0.63711953539E+01  0.13633655269E+02  0.83169208672E+01  0.17194180962E+02  0.00000000000E+00 0. -1.
</event>
<event>
 8    1  0.4798632E-010  0.9118800E+02  0.7816164E-02  0.1184000E+00
        -11   -1    0    0    0    0  0.00000000000E+00  0.00000000000E+00  0.45593999997E+02  0.45594000000E+02  0.51100000000E-03 0. -1.
         11   -1    0    0    0    0 -0.00000000000E+00 -0.00000000000E+00 -0.45593999997E+02  0.45594000000E+02  0.51100000000E-03 0.  1.
         23    2    1    2    0    0  0.00000000000E+00  0.35527136788E-14  0.00000000000E+00  0.91188000000E+02  0.91188000000E+02 0.  0.
    9900012    2    3    3    0    0 -0.14906341817E+02  0.28477902203E+02  0.29162184210E+02  0.47787275027E+02  0.20000018159E+02 0.  0.
        -12    1    3    3    0    0  0.14906341817E+02 -0.28477902203E+02 -0.29162184210E+02  0.43400724973E+02  0.00000000000E+00 0.  1.
         11    1    4    4    0    0 -0.76113678709E+01  0.19734408193E+02  0.70435022700E+01  0.22293288499E+02  0.51100000000E-03 0.  1.
        -11    1    4    4    0    0 -0.74472842297E+01  0.62927715393E+01  0.14368907567E+02  0.17364519025E+02  0.51100000000E-03 0. -1.
        -12    1    4    4    0    0  0.15231028391E+00  0.24507224705E+01  0.77497743728E+01  0.81294675028E+01  0.00000000000E+00 0.  1.
</event>
<event>
 8    1  0.4798632E-010  0.9118800E+02  0.7816164E-02  0.1184000E+00
        -11   -1    0    0    0    0  0.00000000000E+00  0.00000000000E+00  0.45593999997E+02  0.45594000000E+02  0.51100000000E-03 0.  1.
         11   -1    0    0    0    0 -0.00000000000E+00 -0.00000000000E+00 -0.45593999997E+02  0.45594000000E+02  0.51100000000E-03 0. -1.
         23    2    1    2    0    0  0.35527136788E-14  0.00000000000E+00  0.00000000000E+00  0.91188000000E+02  0.91188000000E+02 0.  0.
    9900012    2    3    3    0    0  0.23551451508E+02 -0.16430365061E+02  0.32542210957E+02  0.47787271226E+02  0.20000000827E+02 0.  0.
        -12    1    3    3    0    0 -0.23551451508E+02  0.16430365061E+02 -0.32542210957E+02  0.43400728774E+02  0.00000000000E+00 0.  1.
         11    1    4    4    0    0 -0.41886957194E+00 -0.30056511883E+01 -0.12226573714E+01  0.32717399183E+01  0.51100000000E-03 0. -1.
        -11    1    4    4    0    0  0.19812508888E+01 -0.36327804575E+01  0.93767990455E+01  0.10249234583E+02  0.51100000000E-03 0.  1.
         12    1    4    4    0    0  0.21989070191E+02 -0.97919334152E+01  0.24388069283E+02  0.34266296725E+02  0.00000000000E+00 0. -1.
</event>
<event>
 8    1  0.4798632E-010  0.9118800E+02  0.7816164E-02  0.1184000E+00
        -11   -1    0    0    0    0  0.00000000000E+00  0.00000000000E+00  0.45593999997E+02  0.45594000000E+02  0.51100000000E-03 0. -1.
         11   -1    0    0    0    0 -0.00000000000E+00 -0.00000000000E+00 -0.45593999997E+02  0.45594000000E+02  0.51100000000E-03 0.  1.
         23    2    1    2    0    0  0.00000000000E+00  0.44408920985E-15  0.00000000000E+00  0.91188000000E+02  0.91188000000E+02 0.  0.
    9900012    2    3    3    0    0  0.24458668867E+02  0.21150845425E+01 -0.35789987350E+02  0.47787271206E+02  0.20000000735E+02 0.  0.
         12    1    3    3    0    0 -0.24458668867E+02 -0.21150845425E+01  0.35789987350E+02  0.43400728794E+02  0.00000000000E+00 0. -1.
         11    1    4    4    0    0 -0.16245905846E+01  0.16980806082E+01 -0.48729883939E+01  0.54100636288E+01  0.51100000000E-03 0. -1.
        -11    1    4    4    0    0  0.19847780189E+02 -0.44245294263E+01 -0.26255125757E+02  0.33209072071E+02  0.51100000000E-03 0.  1.
         12    1    4    4    0    0  0.62354792633E+01  0.48415333606E+01 -0.46618731991E+01  0.91681355056E+01  0.00000000000E+00 0. -1.
</event>
<event>
 8    1  0.4798632E-010  0.9118800E+02  0.7816164E-02  0.1184000E+00
        -11   -1    0    0    0    0  0.00000000000E+00  0.00000000000E+00  0.45593999997E+02  0.45594000000E+02  0.51100000000E-03 0.  1.
         11   -1    0    0    0    0 -0.00000000000E+00 -0.00000000000E+00 -0.45593999997E+02  0.45594000000E+02  0.51100000000E-03 0. -1.
         23    2    1    2    0    0  0.00000000000E+00  0.00000000000E+00 -0.55511151231E-15  0.91188000000E+02  0.91188000000E+02 0.  0.
    9900012    2    3    3    0    0 -0.12950965171E+02 -0.41421533670E+02  0.38832892493E+00  0.47787288603E+02  0.20000080056E+02 0.  0.
         12    1    3    3    0    0  0.12950965171E+02  0.41421533670E+02 -0.38832892493E+00  0.43400711397E+02  0.00000000000E+00 0. -1.
         11    1    4    4    0    0 -0.12132937136E+02 -0.26063179625E+02 -0.74725395986E+01  0.29704146917E+02  0.51100000000E-03 0. -1.
        -11    1    4    4    0    0 -0.29658126098E+01 -0.11409342602E+02  0.55861010400E+01  0.13045062979E+02  0.51100000000E-03 0.  1.
        -12    1    4    4    0    0  0.21477845750E+01 -0.39490114424E+01  0.22747674835E+01  0.50380787069E+01  0.00000000000E+00 0.  1.
</event>
<event>
 8    1  0.4798632E-010  0.9118800E+02  0.7816164E-02  0.1184000E+00
        -11   -1    0    0    0    0  0.00000000000E+00  0.00000000000E+00  0.45593999997E+02  0.45594000000E+02  0.51100000000E-03 0. -1.
         11   -1    0    0    0    0 -0.00000000000E+00 -0.00000000000E+00 -0.45593999997E+02  0.45594000000E+02  0.51100000000E-03 0.  1.
         23    2    1    2    0    0  0.00000000000E+00  0.88817841970E-15  0.00000000000E+00  0.91188000000E+02  0.91188000000E+02 0.  0.
    9900012    2    3    3    0    0 -0.31865471656E+02  0.47709219981E+01  0.29076675510E+02  0.47787273747E+02  0.20000012322E+02 0.  0.
        -12    1    3    3    0    0  0.31865471656E+02 -0.47709219981E+01 -0.29076675510E+02  0.43400726253E+02  0.00000000000E+00 0.  1.
         11    1    4    4    0    0 -0.34573400009E+01  0.53322192217E+01  0.12434232930E+02  0.13964093616E+02  0.51100000000E-03 0. -1.
        -11    1    4    4    0    0 -0.18324952083E+02  0.31749059556E+01  0.92268179036E+01  0.20760974581E+02  0.51100000000E-03 0.  1.
         12    1    4    4    0    0 -0.10083179572E+02 -0.37362031792E+01  0.74156246765E+01  0.13062205550E+02  0.00000000000E+00 0. -1.
</event>
<event>
 8    1  0.4798632E-010  0.9118800E+02  0.7816164E-02  0.1184000E+00
        -11   -1    0    0    0    0  0.00000000000E+00  0.00000000000E+00  0.45593999997E+02  0.45594000000E+02  0.51100000000E-03 0. -1.
         11   -1    0    0    0    0 -0.00000000000E+00 -0.00000000000E+00 -0.45593999997E+02  0.45594000000E+02  0.51100000000E-03 0.  1.
         23    2    1    2    0    0  0.00000000000E+00 -0.17763568394E-14  0.00000000000E+00  0.91188000000E+02  0.91188000000E+02 0.  0.
    9900012    2    3    3    0    0  0.30784953596E+02 -0.69686569843E+01 -0.29788382709E+02  0.47787270830E+02  0.19999999021E+02 0.  0.
         12    1    3    3    0    0 -0.30784953596E+02  0.69686569843E+01  0.29788382709E+02  0.43400729170E+02  0.00000000000E+00 0. -1.
         11    1    4    4    0    0  0.15053024139E+02 -0.77903131705E+01 -0.61797092512E+01  0.18040823754E+02  0.51100000000E-03 0. -1.
        -11    1    4    4    0    0  0.83301934589E+01  0.41806287064E+01 -0.16489471570E+02  0.18941289617E+02  0.51100000000E-03 0.  1.
        -12    1    4    4    0    0  0.74017359981E+01 -0.33589725202E+01 -0.71192018879E+01  0.10805157458E+02  0.00000000000E+00 0.  1.
</event>
<event>
 8    1  0.4798632E-010  0.9118800E+02  0.7816164E-02  0.1184000E+00
        -11   -1    0    0    0    0  0.00000000000E+00  0.00000000000E+00  0.45593999997E+02  0.45594000000E+02  0.51100000000E-03 0. -1.
         11   -1    0    0    0    0 -0.00000000000E+00 -0.00000000000E+00 -0.45593999997E+02  0.45594000000E+02  0.51100000000E-03 0.  1.
         23    2    1    2    0    0  0.00000000000E+00 -0.71054273576E-14 -0.35527136788E-14  0.91188000000E+02  0.91188000000E+02 0.  0.
    9900012    2    3    3    0    0 -0.18968347097E+02 -0.36336281952E+02 -0.14265320536E+02  0.47787274803E+02  0.20000017136E+02 0.  0.
         12    1    3    3    0    0  0.18968347097E+02  0.36336281952E+02  0.14265320536E+02  0.43400725197E+02  0.00000000000E+00 0. -1.
         11    1    4    4    0    0 -0.79555012918E+01 -0.27458862982E+02 -0.14962706200E+02  0.32267037889E+02  0.51100000000E-03 0. -1.
        -11    1    4    4    0    0 -0.24811758028E+01 -0.45749363734E+01 -0.20254955976E+01  0.55847031132E+01  0.51100000000E-03 0.  1.
         12    1    4    4    0    0 -0.85316700026E+01 -0.43024825964E+01  0.27228812624E+01  0.99355338002E+01  0.00000000000E+00 0. -1.
</event>
<event>
 8    1  0.4798632E-010  0.9118800E+02  0.7816164E-02  0.1184000E+00
        -11   -1    0    0    0    0  0.00000000000E+00  0.00000000000E+00  0.45593999997E+02  0.45594000000E+02  0.51100000000E-03 0. -1.
         11   -1    0    0    0    0 -0.00000000000E+00 -0.00000000000E+00 -0.45593999997E+02  0.45594000000E+02  0.51100000000E-03 0.  1.
         23    2    1    2    0    0  0.00000000000E+00 -0.27755575616E-16  0.00000000000E+00  0.91188000000E+02  0.91188000000E+02 0.  0.
    9900012    2    3    3    0    0 -0.28673885870E+02  0.21971472822E+00 -0.32578875539E+02  0.47787272623E+02  0.20000007198E+02 0.  0.
         12    1    3    3    0    0  0.28673885870E+02 -0.21971472822E+00  0.32578875539E+02  0.43400727377E+02  0.00000000000E+00 0. -1.
         11    1    4    4    0    0  0.21514412394E+01  0.72449104709E+00 -0.32348214184E+00  0.22930825631E+01  0.51100000000E-03 0. -1.
        -11    1    4    4    0    0 -0.15057226596E+02 -0.46827583426E+01 -0.16112785536E+02  0.22544847669E+02  0.51100000000E-03 0.  1.
         12    1    4    4    0    0 -0.15768100514E+02  0.41779820237E+01 -0.16142607861E+02  0.22949342391E+02  0.00000000000E+00 0. -1.
</event>
<event>
 8    1  0.4798632E-010  0.9118800E+02  0.7816164E-02  0.1184000E+00
        -11   -1    0    0    0    0  0.00000000000E+00  0.00000000000E+00  0.45593999997E+02  0.45594000000E+02  0.51100000000E-03 0. -1.
         11   -1    0    0    0    0 -0.00000000000E+00 -0.00000000000E+00 -0.45593999997E+02  0.45594000000E+02  0.51100000000E-03 0.  1.
         23    2    1    2    0    0  0.17763568394E-14  0.71054273576E-14  0.35527136788E-14  0.91188000000E+02  0.91188000000E+02 0.  0.
    9900012    2    3    3    0    0  0.10752092327E+02  0.33013705524E+02  0.26040550328E+02  0.47787279923E+02  0.20000040481E+02 0.  0.
        -12    1    3    3    0    0 -0.10752092327E+02 -0.33013705524E+02 -0.26040550328E+02  0.43400720077E+02  0.00000000000E+00 0.  1.
         11    1    4    4    0    0  0.45186026196E+01  0.26258643535E+02  0.20498716735E+02  0.33617428783E+02  0.51100000000E-03 0. -1.
        -11    1    4    4    0    0  0.32406611641E+00 -0.12945519200E+01  0.38073706913E+01  0.40344708901E+01  0.51100000000E-03 0.  1.
         12    1    4    4    0    0  0.59094235910E+01  0.80496139087E+01  0.17344629021E+01  0.10135380250E+02  0.00000000000E+00 0. -1.
</event>
<event>
 8    1  0.4798632E-010  0.9118800E+02  0.7816164E-02  0.1184000E+00
        -11   -1    0    0    0    0  0.00000000000E+00  0.00000000000E+00  0.45593999997E+02  0.45594000000E+02  0.51100000000E-03 0.  1.
         11   -1    0    0    0    0 -0.00000000000E+00 -0.00000000000E+00 -0.45593999997E+02  0.45594000000E+02  0.51100000000E-03 0. -1.
         23    2    1    2    0    0  0.00000000000E+00  0.17763568394E-14  0.00000000000E+00  0.91188000000E+02  0.91188000000E+02 0.  0.
    9900012    2    3    3    0    0  0.41073629534E+02 -0.11268844562E+02  0.83422611908E+01  0.47787271635E+02  0.20000002692E+02 0.  0.
        -12    1    3    3    0    0 -0.41073629534E+02  0.11268844562E+02 -0.83422611908E+01  0.43400728365E+02  0.00000000000E+00 0.  1.
         11    1    4    4    0    0  0.58966361419E+01  0.41937205712E+01  0.12591823573E+01  0.73446000905E+01  0.51100000000E-03 0. -1.
        -11    1    4    4    0    0  0.19195547676E+02 -0.12993305575E+02  0.71969182567E+01  0.24271190185E+02  0.51100000000E-03 0.  1.
         12    1    4    4    0    0  0.15981445716E+02 -0.24692595583E+01 -0.11383942321E+00  0.16171481360E+02  0.00000000000E+00 0. -1.
</event>
<event>
 8    1  0.4798632E-010  0.9118800E+02  0.7816164E-02  0.1184000E+00
        -11   -1    0    0    0    0  0.00000000000E+00  0.00000000000E+00  0.45593999997E+02  0.45594000000E+02  0.51100000000E-03 0. -1.
         11   -1    0    0    0    0 -0.00000000000E+00 -0.00000000000E+00 -0.45593999997E+02  0.45594000000E+02  0.51100000000E-03 0.  1.
         23    2    1    2    0    0 -0.88817841970E-15 -0.17763568394E-14  0.00000000000E+00  0.91188000000E+02  0.91188000000E+02 0.  0.
    9900012    2    3    3    0    0  0.51177634584E+01  0.10220523105E+02  0.41868513852E+02  0.47787273653E+02  0.20000011892E+02 0.  0.
        -12    1    3    3    0    0 -0.51177634584E+01 -0.10220523105E+02 -0.41868513852E+02  0.43400726347E+02  0.00000000000E+00 0.  1.
         11    1    4    4    0    0  0.64729349215E+01  0.79678881622E+01  0.40403848493E+02  0.41687613287E+02  0.51100000000E-03 0. -1.
        -11    1    4    4    0    0  0.18150800013E+01  0.80919052886E+00 -0.56763184483E+00  0.20667633865E+01  0.51100000000E-03 0.  1.
         12    1    4    4    0    0 -0.31702514644E+01  0.14434444136E+01  0.20322972037E+01  0.40328969794E+01  0.00000000000E+00 0. -1.
</event>
<event>
 8    1  0.4798632E-010  0.9118800E+02  0.7816164E-02  0.1184000E+00
        -11   -1    0    0    0    0  0.00000000000E+00  0.00000000000E+00  0.45593999997E+02  0.45594000000E+02  0.51100000000E-03 0. -1.
         11   -1    0    0    0    0 -0.00000000000E+00 -0.00000000000E+00 -0.45593999997E+02  0.45594000000E+02  0.51100000000E-03 0.  1.
         23    2    1    2    0    0  0.35527136788E-14 -0.88817841970E-15  0.00000000000E+00  0.91188000000E+02  0.91188000000E+02 0.  0.
    9900012    2    3    3    0    0  0.29927887909E+02 -0.52501025049E+01  0.30990023509E+02  0.47787267194E+02  0.19999982445E+02 0.  0.
        -12    1    3    3    0    0 -0.29927887909E+02  0.52501025049E+01 -0.30990023509E+02  0.43400732806E+02  0.00000000000E+00 0.  1.
         11    1    4    4    0    0  0.24408068053E+02 -0.91791503172E+01  0.23016286135E+02  0.34781604540E+02  0.51100000000E-03 0. -1.
        -11    1    4    4    0    0  0.14959175167E+01 -0.21640964118E+01  0.75303019358E+00  0.27364460948E+01  0.51100000000E-03 0.  1.
         12    1    4    4    0    0  0.40239023391E+01  0.60931442242E+01  0.72207071802E+01  0.10269216560E+02  0.00000000000E+00 0. -1.
</event>
<event>
 8    1  0.4798632E-010  0.9118800E+02  0.7816164E-02  0.1184000E+00
        -11   -1    0    0    0    0  0.00000000000E+00  0.00000000000E+00  0.45593999997E+02  0.45594000000E+02  0.51100000000E-03 0. -1.
         11   -1    0    0    0    0 -0.00000000000E+00 -0.00000000000E+00 -0.45593999997E+02  0.45594000000E+02  0.51100000000E-03 0.  1.
         23    2    1    2    0    0 -0.17763568394E-14  0.00000000000E+00  0.71054273576E-14  0.91188000000E+02  0.91188000000E+02 0.  0.
    9900012    2    3    3    0    0 -0.11757119623E+02  0.11159418884E+02  0.40259882390E+02  0.47787301599E+02  0.20000139309E+02 0.  0.
        -12    1    3    3    0    0  0.11757119623E+02 -0.11159418884E+02 -0.40259882390E+02  0.43400698401E+02  0.00000000000E+00 0.  1.
         11    1    4    4    0    0  0.19926581029E-01  0.34642619527E+01  0.73065354702E+01  0.80862209210E+01  0.51100000000E-03 0. -1.
        -11    1    4    4    0    0 -0.72326495154E+01  0.13111055065E+02  0.24075538767E+02  0.28352117225E+02  0.51100000000E-03 0.  1.
        -12    1    4    4    0    0 -0.45443966889E+01 -0.54158981339E+01  0.88778081525E+01  0.11348963453E+02  0.00000000000E+00 0.  1.
</event>
<event>
 8    1  0.4798632E-010  0.9118800E+02  0.7816164E-02  0.1184000E+00
        -11   -1    0    0    0    0  0.00000000000E+00  0.00000000000E+00  0.45593999997E+02  0.45594000000E+02  0.51100000000E-03 0. -1.
         11   -1    0    0    0    0 -0.00000000000E+00 -0.00000000000E+00 -0.45593999997E+02  0.45594000000E+02  0.51100000000E-03 0.  1.
         23    2    1    2    0    0 -0.88817841970E-15  0.00000000000E+00  0.17763568394E-14  0.91188000000E+02  0.91188000000E+02 0.  0.
    9900012    2    3    3    0    0 -0.75343021926E+01  0.40578281295E+02 -0.13426071020E+02  0.47787285657E+02  0.20000066625E+02 0.  0.
         12    1    3    3    0    0  0.75343021926E+01 -0.40578281295E+02  0.13426071020E+02  0.43400714343E+02  0.00000000000E+00 0. -1.
         11    1    4    4    0    0 -0.10403852237E+02  0.14393872985E+02 -0.48829481082E+01  0.18419199314E+02  0.51100000000E-03 0. -1.
        -11    1    4    4    0    0  0.38095799678E+01  0.55023191775E+01  0.63294053014E+00  0.67222786195E+01  0.51100000000E-03 0.  1.
         12    1    4    4    0    0 -0.94002992342E+00  0.20682089133E+02 -0.91760634423E+01  0.22645807724E+02  0.00000000000E+00 0. -1.
</event>
<event>
 8    1  0.4798632E-010  0.9118800E+02  0.7816164E-02  0.1184000E+00
        -11   -1    0    0    0    0  0.00000000000E+00  0.00000000000E+00  0.45593999997E+02  0.45594000000E+02  0.51100000000E-03 0. -1.
         11   -1    0    0    0    0 -0.00000000000E+00 -0.00000000000E+00 -0.45593999997E+02  0.45594000000E+02  0.51100000000E-03 0.  1.
         23    2    1    2    0    0 -0.71054273576E-14  0.00000000000E+00 -0.35527136788E-14  0.91188000000E+02  0.91188000000E+02 0.  0.
    9900012    2    3    3    0    0  0.33776229534E+02 -0.14308695632E+02  0.23195926183E+02  0.47787269088E+02  0.19999991081E+02 0.  0.
        -12    1    3    3    0    0 -0.33776229534E+02  0.14308695632E+02 -0.23195926183E+02  0.43400730912E+02  0.00000000000E+00 0.  1.
         11    1    4    4    0    0  0.38343265372E+01  0.36873239222E+01  0.80656834663E+01  0.96619701791E+01  0.51100000000E-03 0. -1.
        -11    1    4    4    0    0  0.16201728178E+02 -0.10357148404E+02  0.73681977780E+01  0.20592640864E+02  0.51100000000E-03 0.  1.
        -12    1    4    4    0    0  0.13740174818E+02 -0.76388711503E+01  0.77620449384E+01  0.17532658045E+02  0.00000000000E+00 0.  1.
</event>
<event>
 8    1  0.4798632E-010  0.9118800E+02  0.7816164E-02  0.1184000E+00
        -11   -1    0    0    0    0  0.00000000000E+00  0.00000000000E+00  0.45593999997E+02  0.45594000000E+02  0.51100000000E-03 0. -1.
         11   -1    0    0    0    0 -0.00000000000E+00 -0.00000000000E+00 -0.45593999997E+02  0.45594000000E+02  0.51100000000E-03 0.  1.
         23    2    1    2    0    0 -0.35527136788E-14 -0.17763568394E-14  0.00000000000E+00  0.91188000000E+02  0.91188000000E+02 0.  0.
    9900012    2    3    3    0    0  0.25203706876E+02 -0.96491679521E+01  0.33989552487E+02  0.47787274652E+02  0.20000016448E+02 0.  0.
        -12    1    3    3    0    0 -0.25203706876E+02  0.96491679521E+01 -0.33989552487E+02  0.43400725348E+02  0.00000000000E+00 0.  1.
         11    1    4    4    0    0  0.11406800941E+02  0.38299048885E+00  0.36790468295E+01  0.11991545991E+02  0.51100000000E-03 0. -1.
        -11    1    4    4    0    0  0.56498539889E+01 -0.83104249753E+01  0.11804419442E+02  0.15502526632E+02  0.51100000000E-03 0.  1.
         12    1    4    4    0    0  0.81470519466E+01 -0.17217334657E+01  0.18506086216E+02  0.20293202028E+02  0.00000000000E+00 0. -1.
</event>
<event>
 8    1  0.4798632E-010  0.9118800E+02  0.7816164E-02  0.1184000E+00
        -11   -1    0    0    0    0  0.00000000000E+00  0.00000000000E+00  0.45593999997E+02  0.45594000000E+02  0.51100000000E-03 0.  1.
         11   -1    0    0    0    0 -0.00000000000E+00 -0.00000000000E+00 -0.45593999997E+02  0.45594000000E+02  0.51100000000E-03 0. -1.
         23    2    1    2    0    0  0.35527136788E-14 -0.35527136788E-14  0.00000000000E+00  0.91188000000E+02  0.91188000000E+02 0.  0.
    9900012    2    3    3    0    0 -0.29466311521E+02  0.26815465031E+02  0.17213101344E+02  0.47787268009E+02  0.19999986162E+02 0.  0.
        -12    1    3    3    0    0  0.29466311521E+02 -0.26815465031E+02 -0.17213101344E+02  0.43400731991E+02  0.00000000000E+00 0.  1.
         11    1    4    4    0    0 -0.63760782579E+01  0.75808678982E+01  0.52664319964E+01  0.11218700383E+02  0.51100000000E-03 0.  1.
        -11    1    4    4    0    0 -0.17226746499E+02  0.17875139911E+02  0.15795560860E+02  0.29424159545E+02  0.51100000000E-03 0. -1.
        -12    1    4    4    0    0 -0.58634867637E+01  0.13594572217E+01 -0.38488915124E+01  0.71444080818E+01  0.00000000000E+00 0.  1.
</event>
<event>
 8    1  0.4798632E-010  0.9118800E+02  0.7816164E-02  0.1184000E+00
        -11   -1    0    0    0    0  0.00000000000E+00  0.00000000000E+00  0.45593999997E+02  0.45594000000E+02  0.51100000000E-03 0. -1.
         11   -1    0    0    0    0 -0.00000000000E+00 -0.00000000000E+00 -0.45593999997E+02  0.45594000000E+02  0.51100000000E-03 0.  1.
         23    2    1    2    0    0 -0.44408920985E-15  0.17763568394E-14  0.00000000000E+00  0.91188000000E+02  0.91188000000E+02 0.  0.
    9900012    2    3    3    0    0  0.15747428297E+01 -0.15777260949E+02 -0.40400759662E+02  0.47787272365E+02  0.20000006019E+02 0.  0.
         12    1    3    3    0    0 -0.15747428297E+01  0.15777260949E+02  0.40400759662E+02  0.43400727635E+02  0.00000000000E+00 0. -1.
         11    1    4    4    0    0 -0.25121409027E+01 -0.99189291300E+01 -0.13917870508E+02  0.17274348808E+02  0.51100000000E-03 0. -1.
        -11    1    4    4    0    0  0.73121026022E+01  0.18623103730E+00 -0.81986181653E+01  0.10987213775E+02  0.51100000000E-03 0.  1.
        -12    1    4    4    0    0 -0.32252188698E+01 -0.60445628564E+01 -0.18284270988E+02  0.19525709781E+02  0.00000000000E+00 0.  1.
</event>
<event>
 8    1  0.4798632E-010  0.9118800E+02  0.7816164E-02  0.1184000E+00
        -11   -1    0    0    0    0  0.00000000000E+00  0.00000000000E+00  0.45593999997E+02  0.45594000000E+02  0.51100000000E-03 0. -1.
         11   -1    0    0    0    0 -0.00000000000E+00 -0.00000000000E+00 -0.45593999997E+02  0.45594000000E+02  0.51100000000E-03 0.  1.
         23    2    1    2    0    0  0.00000000000E+00  0.00000000000E+00  0.00000000000E+00  0.91188000000E+02  0.91188000000E+02 0.  0.
    9900012    2    3    3    0    0  0.18210714210E+01 -0.15056941565E+02  0.40664421741E+02  0.47787274361E+02  0.20000015122E+02 0.  0.
        -12    1    3    3    0    0 -0.18210714210E+01  0.15056941565E+02 -0.40664421741E+02  0.43400725639E+02  0.00000000000E+00 0.  1.
         11    1    4    4    0    0  0.22183512604E+00 -0.90640089357E+01  0.29592823970E+01  0.95374431258E+01  0.51100000000E-03 0. -1.
        -11    1    4    4    0    0  0.96835646105E+00 -0.53087278757E+01  0.29249232283E+02  0.29742862931E+02  0.51100000000E-03 0.  1.
         12    1    4    4    0    0  0.63087983391E+00 -0.68420475391E+00  0.84559070612E+01  0.85069683047E+01  0.00000000000E+00 0. -1.
</event>
<event>
 8    1  0.4798632E-010  0.9118800E+02  0.7816164E-02  0.1184000E+00
        -11   -1    0    0    0    0  0.00000000000E+00  0.00000000000E+00  0.45593999997E+02  0.45594000000E+02  0.51100000000E-03 0.  1.
         11   -1    0    0    0    0 -0.00000000000E+00 -0.00000000000E+00 -0.45593999997E+02  0.45594000000E+02  0.51100000000E-03 0. -1.
         23    2    1    2    0    0 -0.35527136788E-14  0.00000000000E+00  0.88817841970E-15  0.91188000000E+02  0.91188000000E+02 0.  0.
    9900012    2    3    3    0    0 -0.20902520436E+02  0.37557650221E+02 -0.60109160583E+01  0.47787267719E+02  0.19999984837E+02 0.  0.
        -12    1    3    3    0    0  0.20902520436E+02 -0.37557650221E+02  0.60109160583E+01  0.43400732281E+02  0.00000000000E+00 0.  1.
         11    1    4    4    0    0 -0.66733483263E+01  0.12456127734E+02 -0.34916836622E+01  0.14556117307E+02  0.51100000000E-03 0. -1.
        -11    1    4    4    0    0 -0.58223755056E-01  0.16605791265E+02 -0.16072646761E+01  0.16683494644E+02  0.51100000000E-03 0.  1.
        -12    1    4    4    0    0 -0.14170948355E+02  0.84957312218E+01 -0.91196771993E+00  0.16547655767E+02  0.00000000000E+00 0.  1.
</event>
<event>
 8    1  0.4798632E-010  0.9118800E+02  0.7816164E-02  0.1184000E+00
        -11   -1    0    0    0    0  0.00000000000E+00  0.00000000000E+00  0.45593999997E+02  0.45594000000E+02  0.51100000000E-03 0. -1.
         11   -1    0    0    0    0 -0.00000000000E+00 -0.00000000000E+00 -0.45593999997E+02  0.45594000000E+02  0.51100000000E-03 0.  1.
         23    2    1    2    0    0  0.00000000000E+00  0.00000000000E+00 -0.35527136788E-14  0.91188000000E+02  0.91188000000E+02 0.  0.
    9900012    2    3    3    0    0  0.20605591501E+02 -0.26264804211E+02  0.27734327477E+02  0.47787271182E+02  0.20000000625E+02 0.  0.
        -12    1    3    3    0    0 -0.20605591501E+02  0.26264804211E+02 -0.27734327477E+02  0.43400728818E+02  0.00000000000E+00 0.  1.
         11    1    4    4    0    0  0.26074445065E+01 -0.13700103972E+01  0.56830810190E+01  0.64010237832E+01  0.51100000000E-03 0. -1.
        -11    1    4    4    0    0  0.55808035411E+00 -0.20519536379E+01  0.99980159502E+01  0.10221657919E+02  0.51100000000E-03 0.  1.
         12    1    4    4    0    0  0.17440066640E+02 -0.22842840176E+02  0.12053230508E+02  0.31164589479E+02  0.00000000000E+00 0. -1.
</event>
<event>
 8    1  0.4798632E-010  0.9118800E+02  0.7816164E-02  0.1184000E+00
        -11   -1    0    0    0    0  0.00000000000E+00  0.00000000000E+00  0.45593999997E+02  0.45594000000E+02  0.51100000000E-03 0. -1.
         11   -1    0    0    0    0 -0.00000000000E+00 -0.00000000000E+00 -0.45593999997E+02  0.45594000000E+02  0.51100000000E-03 0.  1.
         23    2    1    2    0    0 -0.13322676296E-14  0.00000000000E+00  0.00000000000E+00  0.91188000000E+02  0.91188000000E+02 0.  0.
    9900012    2    3    3    0    0 -0.34484009369E+01 -0.40175406051E+02 -0.16052086874E+02  0.47787260221E+02  0.19999950650E+02 0.  0.
         12    1    3    3    0    0  0.34484009369E+01  0.40175406051E+02  0.16052086874E+02  0.43400739779E+02  0.00000000000E+00 0. -1.
         11    1    4    4    0    0  0.58378079361E+01 -0.13849419797E+02 -0.45778827899E+01  0.15711252061E+02  0.51100000000E-03 0. -1.
        -11    1    4    4    0    0 -0.10886024539E+02 -0.21170487901E+02 -0.11988238301E+02  0.26653572858E+02  0.51100000000E-03 0.  1.
        -12    1    4    4    0    0  0.15998156663E+01 -0.51554983527E+01  0.51403421711E+00  0.54224353022E+01  0.00000000000E+00 0.  1.
</event>
<event>
 8    1  0.4798632E-010  0.9118800E+02  0.7816164E-02  0.1184000E+00
        -11   -1    0    0    0    0  0.00000000000E+00  0.00000000000E+00  0.45593999997E+02  0.45594000000E+02  0.51100000000E-03 0. -1.
         11   -1    0    0    0    0 -0.00000000000E+00 -0.00000000000E+00 -0.45593999997E+02  0.45594000000E+02  0.51100000000E-03 0.  1.
         23    2    1    2    0    0  0.17763568394E-14  0.35527136788E-14  0.00000000000E+00  0.91188000000E+02  0.91188000000E+02 0.  0.
    9900012    2    3    3    0    0  0.10206678405E+02  0.30396058849E+02 -0.29249392220E+02  0.47787267024E+02  0.19999981667E+02 0.  0.
         12    1    3    3    0    0 -0.10206678405E+02 -0.30396058849E+02  0.29249392220E+02  0.43400732976E+02  0.00000000000E+00 0. -1.
         11    1    4    4    0    0  0.68076416288E+01  0.26505761033E+02 -0.21229966665E+02  0.34635398617E+02  0.51100000000E-03 0.  1.
        -11    1    4    4    0    0 -0.11990736206E+01  0.54303507153E+01 -0.46196077057E+01  0.72296100901E+01  0.51100000000E-03 0. -1.
         12    1    4    4    0    0  0.45981103969E+01 -0.15400528996E+01 -0.33998178499E+01  0.59222583165E+01  0.00000000000E+00 0. -1.
</event>
<event>
 8    1  0.4798632E-010  0.9118800E+02  0.7816164E-02  0.1184000E+00
        -11   -1    0    0    0    0  0.00000000000E+00  0.00000000000E+00  0.45593999997E+02  0.45594000000E+02  0.51100000000E-03 0. -1.
         11   -1    0    0    0    0 -0.00000000000E+00 -0.00000000000E+00 -0.45593999997E+02  0.45594000000E+02  0.51100000000E-03 0.  1.
         23    2    1    2    0    0 -0.22204460493E-15 -0.35527136788E-14  0.00000000000E+00  0.91188000000E+02  0.91188000000E+02 0.  0.
    9900012    2    3    3    0    0  0.18871161855E+01 -0.27194891700E+02  0.33771288748E+02  0.47787270907E+02  0.19999999375E+02 0.  0.
        -12    1    3    3    0    0 -0.18871161855E+01  0.27194891700E+02 -0.33771288748E+02  0.43400729093E+02  0.00000000000E+00 0.  1.
         11    1    4    4    0    0  0.15833403279E+01 -0.79338767860E+01  0.99859525043E+01  0.12851949857E+02  0.51100000000E-03 0. -1.
        -11    1    4    4    0    0  0.77124732997E+01 -0.14014215572E+02  0.11692559525E+02  0.19814046306E+02  0.51100000000E-03 0.  1.
        -12    1    4    4    0    0 -0.74086974421E+01 -0.52467993417E+01  0.12092776719E+02  0.15121274745E+02  0.00000000000E+00 0.  1.
</event>
<event>
 8    1  0.4798632E-010  0.9118800E+02  0.7816164E-02  0.1184000E+00
        -11   -1    0    0    0    0  0.00000000000E+00  0.00000000000E+00  0.45593999997E+02  0.45594000000E+02  0.51100000000E-03 0.  1.
         11   -1    0    0    0    0 -0.00000000000E+00 -0.00000000000E+00 -0.45593999997E+02  0.45594000000E+02  0.51100000000E-03 0. -1.
         23    2    1    2    0    0  0.00000000000E+00 -0.17763568394E-14  0.00000000000E+00  0.91188000000E+02  0.91188000000E+02 0.  0.
    9900012    2    3    3    0    0  0.37007122897E+02 -0.14182371442E+02  0.17690567427E+02  0.47787274422E+02  0.20000015400E+02 0.  0.
        -12    1    3    3    0    0 -0.37007122897E+02  0.14182371442E+02 -0.17690567427E+02  0.43400725578E+02  0.00000000000E+00 0.  1.
         11    1    4    4    0    0  0.70508876702E+01 -0.50475890392E+01  0.62369131050E+01  0.10681397726E+02  0.51100000000E-03 0. -1.
        -11    1    4    4    0    0  0.12577107895E+01  0.65378441956E+00  0.61653695391E+01  0.63262194329E+01  0.51100000000E-03 0.  1.
        -12    1    4    4    0    0  0.28698524437E+02 -0.97885668222E+01  0.52882847826E+01  0.30779657263E+02  0.00000000000E+00 0.  1.
</event>
<event>
 8    1  0.4798632E-010  0.9118800E+02  0.7816164E-02  0.1184000E+00
        -11   -1    0    0    0    0  0.00000000000E+00  0.00000000000E+00  0.45593999997E+02  0.45594000000E+02  0.51100000000E-03 0. -1.
         11   -1    0    0    0    0 -0.00000000000E+00 -0.00000000000E+00 -0.45593999997E+02  0.45594000000E+02  0.51100000000E-03 0.  1.
         23    2    1    2    0    0 -0.71054273576E-14  0.44408920985E-15  0.35527136788E-14  0.91188000000E+02  0.91188000000E+02 0.  0.
    9900012    2    3    3    0    0 -0.33880521606E+02  0.30589911306E+01  0.26951369062E+02  0.47787268839E+02  0.19999989943E+02 0.  0.
        -12    1    3    3    0    0  0.33880521606E+02 -0.30589911306E+01 -0.26951369062E+02  0.43400731161E+02  0.00000000000E+00 0.  1.
         11    1    4    4    0    0 -0.98478683083E+01  0.60272809964E+01  0.14995668286E+02  0.18925609476E+02  0.51100000000E-03 0. -1.
        -11    1    4    4    0    0 -0.18642034251E+02  0.11119695794E+01  0.53899721329E+01  0.19437430829E+02  0.51100000000E-03 0.  1.
         12    1    4    4    0    0 -0.53906190462E+01 -0.40802594452E+01  0.65657286435E+01  0.94242285340E+01  0.00000000000E+00 0. -1.
</event>
<event>
 8    1  0.4798632E-010  0.9118800E+02  0.7816164E-02  0.1184000E+00
        -11   -1    0    0    0    0  0.00000000000E+00  0.00000000000E+00  0.45593999997E+02  0.45594000000E+02  0.51100000000E-03 0. -1.
         11   -1    0    0    0    0 -0.00000000000E+00 -0.00000000000E+00 -0.45593999997E+02  0.45594000000E+02  0.51100000000E-03 0.  1.
         23    2    1    2    0    0 -0.35527136788E-14  0.00000000000E+00  0.00000000000E+00  0.91188000000E+02  0.91188000000E+02 0.  0.
    9900012    2    3    3    0    0  0.26631015725E+02 -0.15627457632E+02 -0.30499095931E+02  0.47787270937E+02  0.19999999511E+02 0.  0.
         12    1    3    3    0    0 -0.26631015725E+02  0.15627457632E+02  0.30499095931E+02  0.43400729063E+02  0.00000000000E+00 0. -1.
         11    1    4    4    0    0  0.36287970935E+01  0.18395250839E+01 -0.32880837342E+01  0.52310147949E+01  0.51100000000E-03 0. -1.
        -11    1    4    4    0    0  0.14829985746E+02 -0.28197953518E+01 -0.17742698367E+02  0.23295558990E+02  0.51100000000E-03 0.  1.
        -12    1    4    4    0    0  0.81722328853E+01 -0.14647187364E+02 -0.94683138294E+01  0.19260697152E+02  0.00000000000E+00 0.  1.
</event>
<event>
 8    1  0.4798632E-010  0.9118800E+02  0.7816164E-02  0.1184000E+00
        -11   -1    0    0    0    0  0.00000000000E+00  0.00000000000E+00  0.45593999997E+02  0.45594000000E+02  0.51100000000E-03 0. -1.
         11   -1    0    0    0    0 -0.00000000000E+00 -0.00000000000E+00 -0.45593999997E+02  0.45594000000E+02  0.51100000000E-03 0.  1.
         23    2    1    2    0    0  0.00000000000E+00  0.00000000000E+00  0.00000000000E+00  0.91188000000E+02  0.91188000000E+02 0.  0.
    9900012    2    3    3    0    0 -0.19191924065E+02 -0.34983520582E+02 -0.17071813694E+02  0.47787268618E+02  0.19999988939E+02 0.  0.
         12    1    3    3    0    0  0.19191924065E+02  0.34983520582E+02  0.17071813694E+02  0.43400731382E+02  0.00000000000E+00 0. -1.
         11    1    4    4    0    0  0.19970682637E+00  0.10626725280E+00 -0.14021934119E+00  0.26615271984E+00  0.51100000000E-03 0. -1.
        -11    1    4    4    0    0 -0.20962438164E+01 -0.18311991819E+02 -0.14206843059E+02  0.23271391718E+02  0.51100000000E-03 0.  1.
        -12    1    4    4    0    0 -0.17295387075E+02 -0.16777796016E+02 -0.27247512940E+01  0.24249724181E+02  0.00000000000E+00 0.  1.
</event>
<event>
 8    1  0.4798632E-010  0.9118800E+02  0.7816164E-02  0.1184000E+00
        -11   -1    0    0    0    0  0.00000000000E+00  0.00000000000E+00  0.45593999997E+02  0.45594000000E+02  0.51100000000E-03 0.  1.
         11   -1    0    0    0    0 -0.00000000000E+00 -0.00000000000E+00 -0.45593999997E+02  0.45594000000E+02  0.51100000000E-03 0. -1.
         23    2    1    2    0    0 -0.35527136788E-14  0.00000000000E+00  0.00000000000E+00  0.91188000000E+02  0.91188000000E+02 0.  0.
    9900012    2    3    3    0    0  0.17615602864E+02  0.34504473389E+02  0.19564125930E+02  0.47787272223E+02  0.20000005374E+02 0.  0.
        -12    1    3    3    0    0 -0.17615602864E+02 -0.34504473389E+02 -0.19564125930E+02  0.43400727777E+02  0.00000000000E+00 0.  1.
         11    1    4    4    0    0  0.81788313426E+01  0.19978721841E+01  0.68002260892E+00  0.84467275559E+01  0.51100000000E-03 0. -1.
        -11    1    4    4    0    0  0.11618099171E+01  0.13019468703E+02  0.48589061083E+01  0.13945082876E+02  0.51100000000E-03 0.  1.
         12    1    4    4    0    0  0.82749616041E+01  0.19487132502E+02  0.14025197213E+02  0.25395461791E+02  0.00000000000E+00 0. -1.
</event>
<event>
 8    1  0.4798632E-010  0.9118800E+02  0.7816164E-02  0.1184000E+00
        -11   -1    0    0    0    0  0.00000000000E+00  0.00000000000E+00  0.45593999997E+02  0.45594000000E+02  0.51100000000E-03 0. -1.
         11   -1    0    0    0    0 -0.00000000000E+00 -0.00000000000E+00 -0.45593999997E+02  0.45594000000E+02  0.51100000000E-03 0.  1.
         23    2    1    2    0    0  0.00000000000E+00  0.00000000000E+00  0.00000000000E+00  0.91188000000E+02  0.91188000000E+02 0.  0.
    9900012    2    3    3    0    0 -0.23594930412E+02 -0.21359524538E+02 -0.29507212617E+02  0.47787243946E+02  0.19999876448E+02 0.  0.
         12    1    3    3    0    0  0.23594930412E+02  0.21359524538E+02  0.29507212617E+02  0.43400756054E+02  0.00000000000E+00 0. -1.
         11    1    4    4    0    0 -0.73171685253E-01 -0.38774288966E+01  0.18439541380E-01  0.38781631247E+01  0.51100000000E-03 0. -1.
        -11    1    4    4    0    0 -0.66349038873E+01  0.97803593879E+00 -0.27068907392E+01  0.72322722312E+01  0.51100000000E-03 0.  1.
        -12    1    4    4    0    0 -0.16886854839E+02 -0.18460131580E+02 -0.26818761419E+02  0.36676808590E+02  0.00000000000E+00 0.  1.
</event>
<event>
 8    1  0.4798632E-010  0.9118800E+02  0.7816164E-02  0.1184000E+00
        -11   -1    0    0    0    0  0.00000000000E+00  0.00000000000E+00  0.45593999997E+02  0.45594000000E+02  0.51100000000E-03 0. -1.
         11   -1    0    0    0    0 -0.00000000000E+00 -0.00000000000E+00 -0.45593999997E+02  0.45594000000E+02  0.51100000000E-03 0.  1.
         23    2    1    2    0    0  0.00000000000E+00  0.00000000000E+00 -0.17763568394E-14  0.91188000000E+02  0.91188000000E+02 0.  0.
    9900012    2    3    3    0    0  0.36575439888E+02  0.18448925848E+02  0.14335204746E+02  0.47787265409E+02  0.19999974306E+02 0.  0.
        -12    1    3    3    0    0 -0.36575439888E+02 -0.18448925848E+02 -0.14335204746E+02  0.43400734591E+02  0.00000000000E+00 0.  1.
         11    1    4    4    0    0  0.61148062232E+01  0.97285934903E+01  0.73097375580E+01  0.13618687524E+02  0.51100000000E-03 0. -1.
        -11    1    4    4    0    0  0.14056157370E+02  0.36531580650E+01 -0.21822250110E+01  0.14686157773E+02  0.51100000000E-03 0.  1.
         12    1    4    4    0    0  0.16404476295E+02  0.50671742926E+01  0.92076921987E+01  0.19482420113E+02  0.00000000000E+00 0. -1.
</event>
<event>
 8    1  0.5062727E-010  0.9118800E+02  0.7816164E-02  0.1184000E+00
        -11   -1    0    0    0    0  0.00000000000E+00  0.00000000000E+00  0.45593999997E+02  0.45594000000E+02  0.51100000000E-03 0. -1.
         11   -1    0    0    0    0 -0.00000000000E+00 -0.00000000000E+00 -0.45593999997E+02  0.45594000000E+02  0.51100000000E-03 0.  1.
         23    2    1    2    0    0  0.00000000000E+00  0.00000000000E+00  0.00000000000E+00  0.91188000000E+02  0.91188000000E+02 0.  0.
    9900012    2    3    3    0    0  0.32898210976E+02 -0.22765108534E+01  0.28216099990E+02  0.47787273212E+02  0.20000009884E+02 0.  0.
        -12    1    3    3    0    0 -0.32898210976E+02  0.22765108534E+01 -0.28216099990E+02  0.43400726788E+02  0.00000000000E+00 0.  1.
         11    1    4    4    0    0  0.17041316457E+02  0.31748327167E+00  0.21585203390E+02  0.27503241043E+02  0.51100000000E-03 0. -1.
        -11    1    4    4    0    0  0.14929619499E+01 -0.23452098465E+01 -0.20900403082E+01  0.34781048517E+01  0.51100000000E-03 0.  1.
        -12    1    4    4    0    0  0.14363932569E+02 -0.24878427853E+00  0.87209369082E+01  0.16805927318E+02  0.00000000000E+00 0.  1.
</event>
<event>
 8    1  0.4798632E-010  0.9118800E+02  0.7816164E-02  0.1184000E+00
        -11   -1    0    0    0    0  0.00000000000E+00  0.00000000000E+00  0.45593999997E+02  0.45594000000E+02  0.51100000000E-03 0. -1.
         11   -1    0    0    0    0 -0.00000000000E+00 -0.00000000000E+00 -0.45593999997E+02  0.45594000000E+02  0.51100000000E-03 0.  1.
         23    2    1    2    0    0  0.00000000000E+00  0.00000000000E+00  0.48572257327E-15  0.91188000000E+02  0.91188000000E+02 0.  0.
    9900012    2    3    3    0    0  0.39642963794E+02  0.17664763760E+02  0.12185453075E+00  0.47787270679E+02  0.19999998335E+02 0.  0.
        -12    1    3    3    0    0 -0.39642963794E+02 -0.17664763760E+02 -0.12185453075E+00  0.43400729321E+02  0.00000000000E+00 0.  1.
         11    1    4    4    0    0  0.38053640912E+02  0.21013367179E+02 -0.19887318399E+01  0.43515471289E+02  0.51100000000E-03 0. -1.
        -11    1    4    4    0    0  0.47181617895E+00 -0.12425256805E+01  0.79535156795E+00  0.15488915234E+01  0.51100000000E-03 0.  1.
         12    1    4    4    0    0  0.11175067022E+01 -0.21060777379E+01  0.13152348027E+01  0.27229078673E+01  0.00000000000E+00 0. -1.
</event>
<event>
 8    1  0.4936534E-010  0.9118800E+02  0.7816164E-02  0.1184000E+00
        -11   -1    0    0    0    0  0.00000000000E+00  0.00000000000E+00  0.45593999997E+02  0.45594000000E+02  0.51100000000E-03 0. -1.
         11   -1    0    0    0    0 -0.00000000000E+00 -0.00000000000E+00 -0.45593999997E+02  0.45594000000E+02  0.51100000000E-03 0.  1.
         23    2    1    2    0    0 -0.17763568394E-14  0.00000000000E+00  0.00000000000E+00  0.91188000000E+02  0.91188000000E+02 0.  0.
    9900012    2    3    3    0    0 -0.13685951936E+02 -0.55748628436E+01  0.40807339743E+02  0.47787270133E+02  0.19999995843E+02 0.  0.
        -12    1    3    3    0    0  0.13685951936E+02  0.55748628436E+01 -0.40807339743E+02  0.43400729867E+02  0.00000000000E+00 0.  1.
         11    1    4    4    0    0 -0.14347540596E+02 -0.74081326003E+01  0.30322028303E+02  0.34353424145E+02  0.51100000000E-03 0. -1.
        -11    1    4    4    0    0 -0.66925946246E+00  0.45949086217E+01  0.87638995616E+01  0.99180153890E+01  0.51100000000E-03 0.  1.
        -12    1    4    4    0    0  0.13308481223E+01 -0.27616388651E+01  0.17214118779E+01  0.35158305988E+01  0.00000000000E+00 0.  1.
</event>
<event>
 8    1  0.4798632E-010  0.9118800E+02  0.7816164E-02  0.1184000E+00
        -11   -1    0    0    0    0  0.00000000000E+00  0.00000000000E+00  0.45593999997E+02  0.45594000000E+02  0.51100000000E-03 0. -1.
         11   -1    0    0    0    0 -0.00000000000E+00 -0.00000000000E+00 -0.45593999997E+02  0.45594000000E+02  0.51100000000E-03 0.  1.
         23    2    1    2    0    0 -0.17763568394E-14  0.00000000000E+00  0.00000000000E+00  0.91188000000E+02  0.91188000000E+02 0.  0.
    9900012    2    3    3    0    0  0.11453036373E+02  0.26812241130E+02  0.32148970401E+02  0.47787255600E+02  0.19999929584E+02 0.  0.
        -12    1    3    3    0    0 -0.11453036373E+02 -0.26812241130E+02 -0.32148970401E+02  0.43400744400E+02  0.00000000000E+00 0.  1.
         11    1    4    4    0    0  0.32958705916E+01  0.21882620971E+02  0.28682637946E+02  0.36227138768E+02  0.51100000000E-03 0. -1.
        -11    1    4    4    0    0  0.84967366541E+01  0.48015198829E+01  0.42893994441E+01  0.10660585106E+02  0.51100000000E-03 0.  1.
         12    1    4    4    0    0 -0.33957087265E+00  0.12810027628E+00 -0.82306698882E+00  0.89953172619E+00  0.00000000000E+00 0. -1.
</event>
<event>
 8    1  0.4798632E-010  0.9118800E+02  0.7816164E-02  0.1184000E+00
        -11   -1    0    0    0    0  0.00000000000E+00  0.00000000000E+00  0.45593999997E+02  0.45594000000E+02  0.51100000000E-03 0. -1.
         11   -1    0    0    0    0 -0.00000000000E+00 -0.00000000000E+00 -0.45593999997E+02  0.45594000000E+02  0.51100000000E-03 0.  1.
         23    2    1    2    0    0  0.00000000000E+00 -0.35527136788E-14  0.00000000000E+00  0.91188000000E+02  0.91188000000E+02 0.  0.
    9900012    2    3    3    0    0  0.29127759241E+02  0.25558737645E+02  0.19543483041E+02  0.47787272382E+02  0.20000006097E+02 0.  0.
        -12    1    3    3    0    0 -0.29127759241E+02 -0.25558737645E+02 -0.19543483041E+02  0.43400727618E+02  0.00000000000E+00 0.  1.
         11    1    4    4    0    0  0.16145250017E+02  0.16722893204E+02  0.19399522094E+02  0.30276487791E+02  0.51100000000E-03 0. -1.
        -11    1    4    4    0    0  0.46611870454E+01  0.48132216743E+01 -0.35197539211E+01  0.75685160689E+01  0.51100000000E-03 0.  1.
        -12    1    4    4    0    0  0.83213221786E+01  0.40226227671E+01  0.36637148678E+01  0.99422685218E+01  0.00000000000E+00 0.  1.
</event>
<event>
 8    1  0.4798632E-010  0.9118800E+02  0.7816164E-02  0.1184000E+00
        -11   -1    0    0    0    0  0.00000000000E+00  0.00000000000E+00  0.45593999997E+02  0.45594000000E+02  0.51100000000E-03 0. -1.
         11   -1    0    0    0    0 -0.00000000000E+00 -0.00000000000E+00 -0.45593999997E+02  0.45594000000E+02  0.51100000000E-03 0.  1.
         23    2    1    2    0    0  0.00000000000E+00  0.00000000000E+00 -0.35527136788E-14  0.91188000000E+02  0.91188000000E+02 0.  0.
    9900012    2    3    3    0    0  0.21274675360E+02  0.20573618078E+02  0.31744904151E+02  0.47787256780E+02  0.19999934963E+02 0.  0.
        -12    1    3    3    0    0 -0.21274675360E+02 -0.20573618078E+02 -0.31744904151E+02  0.43400743220E+02  0.00000000000E+00 0.  1.
         11    1    4    4    0    0  0.49309012162E+01  0.33761051203E+01  0.79365553144E+01  0.99348267779E+01  0.51100000000E-03 0. -1.
        -11    1    4    4    0    0  0.12141560163E+02  0.27904016271E+01  0.17710808882E+02  0.21653558043E+02  0.51100000000E-03 0.  1.
        -12    1    4    4    0    0  0.42022139808E+01  0.14407111331E+02  0.60975399544E+01  0.16198871959E+02  0.00000000000E+00 0.  1.
</event>
<event>
 8    1  0.4798632E-010  0.9118800E+02  0.7816164E-02  0.1184000E+00
        -11   -1    0    0    0    0  0.00000000000E+00  0.00000000000E+00  0.45593999997E+02  0.45594000000E+02  0.51100000000E-03 0.  1.
         11   -1    0    0    0    0 -0.00000000000E+00 -0.00000000000E+00 -0.45593999997E+02  0.45594000000E+02  0.51100000000E-03 0. -1.
         23    2    1    2    0    0  0.00000000000E+00  0.00000000000E+00  0.00000000000E+00  0.91188000000E+02  0.91188000000E+02 0.  0.
    9900012    2    3    3    0    0 -0.12871743523E+02 -0.41221910579E+02 -0.43237970183E+01  0.47787275193E+02  0.20000018913E+02 0.  0.
         12    1    3    3    0    0  0.12871743523E+02  0.41221910579E+02  0.43237970183E+01  0.43400724807E+02  0.00000000000E+00 0. -1.
         11    1    4    4    0    0  0.91864909952E-03  0.91906153896E-01  0.26989715764E+01  0.27005361349E+01  0.51100000000E-03 0. -1.
        -11    1    4    4    0    0 -0.14454877256E+02 -0.32404086050E+02 -0.58769915568E+01  0.35965362493E+02  0.51100000000E-03 0.  1.
        -12    1    4    4    0    0  0.15822150832E+01 -0.89097306829E+01 -0.11457770379E+01  0.91213765645E+01  0.00000000000E+00 0.  1.
</event>
<event>
 8    1  0.4944826E-010  0.9118800E+02  0.7816164E-02  0.1184000E+00
        -11   -1    0    0    0    0  0.00000000000E+00  0.00000000000E+00  0.45593999997E+02  0.45594000000E+02  0.51100000000E-03 0. -1.
         11   -1    0    0    0    0 -0.00000000000E+00 -0.00000000000E+00 -0.45593999997E+02  0.45594000000E+02  0.51100000000E-03 0.  1.
         23    2    1    2    0    0  0.33306690739E-15 -0.88817841970E-15  0.71054273576E-14  0.91188000000E+02  0.91188000000E+02 0.  0.
    9900012    2    3    3    0    0 -0.50740653202E+00  0.73613588610E+01  0.42768869778E+02  0.47787270884E+02  0.19999999270E+02 0.  0.
        -12    1    3    3    0    0  0.50740653202E+00 -0.73613588610E+01 -0.42768869778E+02  0.43400729116E+02  0.00000000000E+00 0.  1.
         11    1    4    4    0    0  0.11762128632E+01  0.31188387104E+01  0.36692072214E+02  0.36843164837E+02  0.51100000000E-03 0. -1.
        -11    1    4    4    0    0 -0.35252228070E+01  0.52557767213E+01  0.25183117443E+01  0.68111877882E+01  0.51100000000E-03 0.  1.
        -12    1    4    4    0    0  0.18416034118E+01 -0.10132565707E+01  0.35584858196E+01  0.41329182586E+01  0.00000000000E+00 0.  1.
</event>
<event>
 8    1  0.4798632E-010  0.9118800E+02  0.7816164E-02  0.1184000E+00
        -11   -1    0    0    0    0  0.00000000000E+00  0.00000000000E+00  0.45593999997E+02  0.45594000000E+02  0.51100000000E-03 0.  1.
         11   -1    0    0    0    0 -0.00000000000E+00 -0.00000000000E+00 -0.45593999997E+02  0.45594000000E+02  0.51100000000E-03 0. -1.
         23    2    1    2    0    0  0.00000000000E+00  0.71054273576E-14 -0.17763568394E-14  0.91188000000E+02  0.91188000000E+02 0.  0.
    9900012    2    3    3    0    0  0.54930319603E+01  0.41411169132E+02 -0.11771376777E+02  0.47787266824E+02  0.19999980759E+02 0.  0.
         12    1    3    3    0    0 -0.54930319603E+01 -0.41411169132E+02  0.11771376777E+02  0.43400733176E+02  0.00000000000E+00 0. -1.
         11    1    4    4    0    0 -0.56075763883E+00  0.28167477484E+01  0.43285973798E+01  0.51947350794E+01  0.51100000000E-03 0. -1.
        -11    1    4    4    0    0  0.54687972359E+01  0.29833883552E+02 -0.10141371361E+02  0.31981490965E+02  0.51100000000E-03 0.  1.
         12    1    4    4    0    0  0.58499236321E+00  0.87605378312E+01 -0.59586027952E+01  0.10611040780E+02  0.00000000000E+00 0. -1.
</event>
<event>
 8    1  0.4798632E-010  0.9118800E+02  0.7816164E-02  0.1184000E+00
        -11   -1    0    0    0    0  0.00000000000E+00  0.00000000000E+00  0.45593999997E+02  0.45594000000E+02  0.51100000000E-03 0. -1.
         11   -1    0    0    0    0 -0.00000000000E+00 -0.00000000000E+00 -0.45593999997E+02  0.45594000000E+02  0.51100000000E-03 0.  1.
         23    2    1    2    0    0  0.00000000000E+00  0.00000000000E+00  0.35527136788E-14  0.91188000000E+02  0.91188000000E+02 0.  0.
    9900012    2    3    3    0    0 -0.23276348474E+02  0.28040680385E+02 -0.23570187092E+02  0.47787287169E+02  0.20000073517E+02 0.  0.
         12    1    3    3    0    0  0.23276348474E+02 -0.28040680385E+02  0.23570187092E+02  0.43400712831E+02  0.00000000000E+00 0. -1.
         11    1    4    4    0    0 -0.10964305856E+01 -0.36777339255E+00 -0.28178189671E+01  0.30459023769E+01  0.51100000000E-03 0.  1.
        -11    1    4    4    0    0 -0.35046469113E+01 -0.16290320444E+01 -0.41437386047E+01  0.56662920203E+01  0.51100000000E-03 0. -1.
        -12    1    4    4    0    0 -0.18675270978E+02  0.30037485822E+02 -0.16608629520E+02  0.39075092771E+02  0.00000000000E+00 0.  1.
</event>
<event>
 8    1  0.4798632E-010  0.9118800E+02  0.7816164E-02  0.1184000E+00
        -11   -1    0    0    0    0  0.00000000000E+00  0.00000000000E+00  0.45593999997E+02  0.45594000000E+02  0.51100000000E-03 0. -1.
         11   -1    0    0    0    0 -0.00000000000E+00 -0.00000000000E+00 -0.45593999997E+02  0.45594000000E+02  0.51100000000E-03 0.  1.
         23    2    1    2    0    0  0.00000000000E+00  0.00000000000E+00  0.00000000000E+00  0.91188000000E+02  0.91188000000E+02 0.  0.
    9900012    2    3    3    0    0  0.15862992601E+02 -0.35382694810E+02 -0.19494967208E+02  0.47787269905E+02  0.19999994807E+02 0.  0.
         12    1    3    3    0    0 -0.15862992601E+02  0.35382694810E+02  0.19494967208E+02  0.43400730095E+02  0.00000000000E+00 0. -1.
         11    1    4    4    0    0  0.89674106462E+01 -0.36132394608E+01  0.42528148101E-01  0.96680795406E+01  0.51100000000E-03 0. -1.
        -11    1    4    4    0    0  0.28695635808E+01 -0.16841679086E+02 -0.82235606893E+01  0.18960577530E+02  0.51100000000E-03 0.  1.
         12    1    4    4    0    0  0.40260183736E+01 -0.14927776263E+02 -0.11313934667E+02  0.19158612835E+02  0.00000000000E+00 0. -1.
</event>
<event>
 8    1  0.4798632E-010  0.9118800E+02  0.7816164E-02  0.1184000E+00
        -11   -1    0    0    0    0  0.00000000000E+00  0.00000000000E+00  0.45593999997E+02  0.45594000000E+02  0.51100000000E-03 0. -1.
         11   -1    0    0    0    0 -0.00000000000E+00 -0.00000000000E+00 -0.45593999997E+02  0.45594000000E+02  0.51100000000E-03 0.  1.
         23    2    1    2    0    0 -0.88817841970E-15  0.00000000000E+00  0.00000000000E+00  0.91188000000E+02  0.91188000000E+02 0.  0.
    9900012    2    3    3    0    0 -0.77037597444E+01 -0.39057853234E+02  0.17284663665E+02  0.47787269459E+02  0.19999992773E+02 0.  0.
        -12    1    3    3    0    0  0.77037597444E+01  0.39057853234E+02 -0.17284663665E+02  0.43400730541E+02  0.00000000000E+00 0.  1.
         11    1    4    4    0    0 -0.63456273374E+01 -0.25770469525E+02  0.74474651439E+01  0.27565355488E+02  0.51100000000E-03 0. -1.
        -11    1    4    4    0    0  0.13910652991E+01  0.18076481412E+01  0.81287088208E+00  0.24214486988E+01  0.51100000000E-03 0.  1.
         12    1    4    4    0    0 -0.27491977061E+01 -0.15095031850E+02  0.90243276386E+01  0.17800465273E+02  0.00000000000E+00 0. -1.
</event>
<event>
 8    1  0.4798632E-010  0.9118800E+02  0.7816164E-02  0.1184000E+00
        -11   -1    0    0    0    0  0.00000000000E+00  0.00000000000E+00  0.45593999997E+02  0.45594000000E+02  0.51100000000E-03 0. -1.
         11   -1    0    0    0    0 -0.00000000000E+00 -0.00000000000E+00 -0.45593999997E+02  0.45594000000E+02  0.51100000000E-03 0.  1.
         23    2    1    2    0    0  0.00000000000E+00  0.00000000000E+00 -0.35527136788E-14  0.91188000000E+02  0.91188000000E+02 0.  0.
    9900012    2    3    3    0    0  0.34015208094E+02 -0.93321726519E+01 -0.25288320398E+02  0.47787274469E+02  0.20000015612E+02 0.  0.
         12    1    3    3    0    0 -0.34015208094E+02  0.93321726519E+01  0.25288320398E+02  0.43400725531E+02  0.00000000000E+00 0. -1.
         11    1    4    4    0    0  0.24823005528E+02 -0.11264649469E+02 -0.10007829069E+02  0.29038432706E+02  0.51100000000E-03 0. -1.
        -11    1    4    4    0    0  0.71414079300E+01 -0.44642057716E+00 -0.13095158749E+02  0.14922539378E+02  0.51100000000E-03 0.  1.
        -12    1    4    4    0    0  0.20507946363E+01  0.23788973943E+01 -0.21853325805E+01  0.38263023848E+01  0.00000000000E+00 0.  1.
</event>
<event>
 8    1  0.4798632E-010  0.9118800E+02  0.7816164E-02  0.1184000E+00
        -11   -1    0    0    0    0  0.00000000000E+00  0.00000000000E+00  0.45593999997E+02  0.45594000000E+02  0.51100000000E-03 0.  1.
         11   -1    0    0    0    0 -0.00000000000E+00 -0.00000000000E+00 -0.45593999997E+02  0.45594000000E+02  0.51100000000E-03 0. -1.
         23    2    1    2    0    0  0.00000000000E+00  0.00000000000E+00  0.00000000000E+00  0.91188000000E+02  0.91188000000E+02 0.  0.
    9900012    2    3    3    0    0 -0.16171125761E+02 -0.15953653922E+02 -0.36981040242E+02  0.47787288955E+02  0.20000081663E+02 0.  0.
         12    1    3    3    0    0  0.16171125761E+02  0.15953653922E+02  0.36981040242E+02  0.43400711045E+02  0.00000000000E+00 0. -1.
         11    1    4    4    0    0  0.41854142636E+01 -0.64309527600E+00 -0.25317008375E+01  0.49336369429E+01  0.51100000000E-03 0. -1.
        -11    1    4    4    0    0 -0.10313019097E+02 -0.71804202981E+01 -0.16843490991E+02  0.21014756424E+02  0.51100000000E-03 0.  1.
         12    1    4    4    0    0 -0.10043520927E+02 -0.81301383476E+01 -0.17605848413E+02  0.21838895588E+02  0.00000000000E+00 0. -1.
</event>
<event>
 8    1  0.4798632E-010  0.9118800E+02  0.7816164E-02  0.1184000E+00
        -11   -1    0    0    0    0  0.00000000000E+00  0.00000000000E+00  0.45593999997E+02  0.45594000000E+02  0.51100000000E-03 0. -1.
         11   -1    0    0    0    0 -0.00000000000E+00 -0.00000000000E+00 -0.45593999997E+02  0.45594000000E+02  0.51100000000E-03 0.  1.
         23    2    1    2    0    0  0.00000000000E+00  0.71054273576E-14  0.00000000000E+00  0.91188000000E+02  0.91188000000E+02 0.  0.
    9900012    2    3    3    0    0 -0.87131323592E+01  0.28811409025E+02  0.31266710570E+02  0.47787272410E+02  0.20000006224E+02 0.  0.
        -12    1    3    3    0    0  0.87131323592E+01 -0.28811409025E+02 -0.31266710570E+02  0.43400727590E+02  0.00000000000E+00 0.  1.
         11    1    4    4    0    0  0.86329927624E-01  0.17396092954E+02  0.27716443943E+02  0.32723581222E+02  0.51100000000E-03 0. -1.
        -11    1    4    4    0    0 -0.51436101609E+00 -0.20607135509E-01  0.18023716396E+00  0.54541507616E+00  0.51100000000E-03 0.  1.
         12    1    4    4    0    0 -0.82851012708E+01  0.11435923207E+02  0.33700294630E+01  0.14518276111E+02  0.00000000000E+00 0. -1.
</event>
<event>
 8    1  0.4798632E-010  0.9118800E+02  0.7816164E-02  0.1184000E+00
        -11   -1    0    0    0    0  0.00000000000E+00  0.00000000000E+00  0.45593999997E+02  0.45594000000E+02  0.51100000000E-03 0. -1.
         11   -1    0    0    0    0 -0.00000000000E+00 -0.00000000000E+00 -0.45593999997E+02  0.45594000000E+02  0.51100000000E-03 0.  1.
         23    2    1    2    0    0  0.00000000000E+00  0.00000000000E+00 -0.44408920985E-15  0.91188000000E+02  0.91188000000E+02 0.  0.
    9900012    2    3    3    0    0 -0.29718335621E+02  0.31622498760E+02 -0.67939992011E+00  0.47787268622E+02  0.19999988954E+02 0.  0.
         12    1    3    3    0    0  0.29718335621E+02 -0.31622498760E+02  0.67939992011E+00  0.43400731378E+02  0.00000000000E+00 0. -1.
         11    1    4    4    0    0 -0.99338711344E+01  0.10229681588E+01  0.15888462565E+01  0.10112007331E+02  0.51100000000E-03 0.  1.
        -11    1    4    4    0    0 -0.16520684490E+02  0.23193778744E+02 -0.54252860494E+01  0.28988241020E+02  0.51100000000E-03 0. -1.
        -12    1    4    4    0    0 -0.32637799967E+01  0.74057518568E+01  0.31570398727E+01  0.86870202710E+01  0.00000000000E+00 0.  1.
</event>
<event>
 8    1  0.4798632E-010  0.9118800E+02  0.7816164E-02  0.1184000E+00
        -11   -1    0    0    0    0  0.00000000000E+00  0.00000000000E+00  0.45593999997E+02  0.45594000000E+02  0.51100000000E-03 0. -1.
         11   -1    0    0    0    0 -0.00000000000E+00 -0.00000000000E+00 -0.45593999997E+02  0.45594000000E+02  0.51100000000E-03 0.  1.
         23    2    1    2    0    0 -0.17763568394E-14  0.17763568394E-14  0.00000000000E+00  0.91188000000E+02  0.91188000000E+02 0.  0.
    9900012    2    3    3    0    0 -0.93256270705E+01  0.15930664284E+02 -0.39279387425E+02  0.47787266581E+02  0.19999979651E+02 0.  0.
         12    1    3    3    0    0  0.93256270705E+01 -0.15930664284E+02  0.39279387425E+02  0.43400733419E+02  0.00000000000E+00 0. -1.
         11    1    4    4    0    0 -0.11779407460E+02  0.70869743731E+01 -0.18098821902E+02  0.22727670369E+02  0.51100000000E-03 0. -1.
        -11    1    4    4    0    0 -0.31408107610E+01  0.28770487085E+01 -0.32701229314E+01  0.53698981140E+01  0.51100000000E-03 0.  1.
         12    1    4    4    0    0  0.55945911509E+01  0.59666412026E+01 -0.17910442592E+02  0.19689698099E+02  0.00000000000E+00 0. -1.
</event>
<event>
 8    1  0.4798632E-010  0.9118800E+02  0.7816164E-02  0.1184000E+00
        -11   -1    0    0    0    0  0.00000000000E+00  0.00000000000E+00  0.45593999997E+02  0.45594000000E+02  0.51100000000E-03 0. -1.
         11   -1    0    0    0    0 -0.00000000000E+00 -0.00000000000E+00 -0.45593999997E+02  0.45594000000E+02  0.51100000000E-03 0.  1.
         23    2    1    2    0    0  0.00000000000E+00  0.00000000000E+00  0.00000000000E+00  0.91188000000E+02  0.91188000000E+02 0.  0.
    9900012    2    3    3    0    0  0.30922834022E+02  0.29856067599E+02  0.60013986450E+01  0.47787271640E+02  0.20000002717E+02 0.  0.
        -12    1    3    3    0    0 -0.30922834022E+02 -0.29856067599E+02 -0.60013986450E+01  0.43400728360E+02  0.00000000000E+00 0.  1.
         11    1    4    4    0    0  0.15048162202E+02  0.15364055017E+02  0.57536773570E+01  0.22262214077E+02  0.51100000000E-03 0. -1.
        -11    1    4    4    0    0  0.40635424988E+01  0.93382587881E+01 -0.53167715815E+01  0.11488407859E+02  0.51100000000E-03 0.  1.
        -12    1    4    4    0    0  0.11811129321E+02  0.51537537941E+01  0.55644928694E+01  0.14036649704E+02  0.00000000000E+00 0.  1.
</event>
<event>
 8    1  0.4798632E-010  0.9118800E+02  0.7816164E-02  0.1184000E+00
        -11   -1    0    0    0    0  0.00000000000E+00  0.00000000000E+00  0.45593999997E+02  0.45594000000E+02  0.51100000000E-03 0. -1.
         11   -1    0    0    0    0 -0.00000000000E+00 -0.00000000000E+00 -0.45593999997E+02  0.45594000000E+02  0.51100000000E-03 0.  1.
         23    2    1    2    0    0 -0.88817841970E-15  0.00000000000E+00  0.00000000000E+00  0.91188000000E+02  0.91188000000E+02 0.  0.
    9900012    2    3    3    0    0 -0.73662094498E+01  0.35194311596E+02 -0.24304788320E+02  0.47787270217E+02  0.19999996227E+02 0.  0.
         12    1    3    3    0    0  0.73662094498E+01 -0.35194311596E+02  0.24304788320E+02  0.43400729783E+02  0.00000000000E+00 0. -1.
         11    1    4    4    0    0 -0.75899297286E+01  0.20438143383E+02 -0.21169960594E+02  0.30389010679E+02  0.51100000000E-03 0.  1.
        -11    1    4    4    0    0  0.27459212697E+01  0.11729081180E+02 -0.49953961833E+01  0.13040913014E+02  0.51100000000E-03 0. -1.
         12    1    4    4    0    0 -0.25222009909E+01  0.30270870329E+01  0.18605684572E+01  0.43573465237E+01  0.00000000000E+00 0. -1.
</event>
<event>
 8    1  0.4798632E-010  0.9118800E+02  0.7816164E-02  0.1184000E+00
        -11   -1    0    0    0    0  0.00000000000E+00  0.00000000000E+00  0.45593999997E+02  0.45594000000E+02  0.51100000000E-03 0. -1.
         11   -1    0    0    0    0 -0.00000000000E+00 -0.00000000000E+00 -0.45593999997E+02  0.45594000000E+02  0.51100000000E-03 0.  1.
         23    2    1    2    0    0  0.17763568394E-14  0.44408920985E-15 -0.71054273576E-14  0.91188000000E+02  0.91188000000E+02 0.  0.
    9900012    2    3    3    0    0  0.10816452737E+02  0.24718064869E+01 -0.41958521626E+02  0.47787274037E+02  0.20000013643E+02 0.  0.
         12    1    3    3    0    0 -0.10816452737E+02 -0.24718064869E+01  0.41958521626E+02  0.43400725963E+02  0.00000000000E+00 0. -1.
         11    1    4    4    0    0  0.91138667368E+01 -0.14097539373E+01 -0.12122031936E+02  0.15231337157E+02  0.51100000000E-03 0. -1.
        -11    1    4    4    0    0 -0.46029672476E+01 -0.13514694032E+01 -0.98966669599E+01  0.10998081388E+02  0.51100000000E-03 0.  1.
        -12    1    4    4    0    0  0.63055532480E+01  0.52330298273E+01 -0.19939822730E+02  0.21557855492E+02  0.00000000000E+00 0.  1.
</event>
<event>
 8    1  0.4798632E-010  0.9118800E+02  0.7816164E-02  0.1184000E+00
        -11   -1    0    0    0    0  0.00000000000E+00  0.00000000000E+00  0.45593999997E+02  0.45594000000E+02  0.51100000000E-03 0. -1.
         11   -1    0    0    0    0 -0.00000000000E+00 -0.00000000000E+00 -0.45593999997E+02  0.45594000000E+02  0.51100000000E-03 0.  1.
         23    2    1    2    0    0  0.00000000000E+00 -0.11102230246E-15  0.00000000000E+00  0.91188000000E+02  0.91188000000E+02 0.  0.
    9900012    2    3    3    0    0 -0.12181967235E+02 -0.19861085004E+00  0.41655512045E+02  0.47787291990E+02  0.20000095501E+02 0.  0.
        -12    1    3    3    0    0  0.12181967235E+02  0.19861085004E+00 -0.41655512045E+02  0.43400708010E+02  0.00000000000E+00 0.  1.
         11    1    4    4    0    0 -0.11002628075E+02 -0.79413457548E+01  0.34319862215E+02  0.36904955489E+02  0.51100000000E-03 0. -1.
        -11    1    4    4    0    0  0.29202203988E+00  0.39491230653E+01  0.33552042689E+01  0.51902067207E+01  0.51100000000E-03 0.  1.
         12    1    4    4    0    0 -0.14713611998E+01  0.37936118394E+01  0.39804455615E+01  0.56921297804E+01  0.00000000000E+00 0. -1.
</event>
<event>
 8    1  0.6186824E-010  0.9118800E+02  0.7816164E-02  0.1184000E+00
        -11   -1    0    0    0    0  0.00000000000E+00  0.00000000000E+00  0.45593999997E+02  0.45594000000E+02  0.51100000000E-03 0. -1.
         11   -1    0    0    0    0 -0.00000000000E+00 -0.00000000000E+00 -0.45593999997E+02  0.45594000000E+02  0.51100000000E-03 0.  1.
         23    2    1    2    0    0  0.88817841970E-15  0.00000000000E+00  0.00000000000E+00  0.91188000000E+02  0.91188000000E+02 0.  0.
    9900012    2    3    3    0    0  0.66074670445E+01 -0.27965279361E+01 -0.42803550035E+02  0.47787273222E+02  0.20000009927E+02 0.  0.
         12    1    3    3    0    0 -0.66074670445E+01  0.27965279361E+01  0.42803550035E+02  0.43400726778E+02  0.00000000000E+00 0. -1.
         11    1    4    4    0    0  0.40945688764E+01  0.76120294562E+00 -0.10535751264E+01  0.42959219053E+01  0.51100000000E-03 0. -1.
        -11    1    4    4    0    0  0.24727772874E+01  0.12354266140E+01 -0.35536532571E+02  0.35643878210E+02  0.51100000000E-03 0.  1.
        -12    1    4    4    0    0  0.40120880669E-01 -0.47931574958E+01 -0.62134423382E+01  0.78474731063E+01  0.00000000000E+00 0.  1.
</event>
<event>
 8    1  0.4798632E-010  0.9118800E+02  0.7816164E-02  0.1184000E+00
        -11   -1    0    0    0    0  0.00000000000E+00  0.00000000000E+00  0.45593999997E+02  0.45594000000E+02  0.51100000000E-03 0. -1.
         11   -1    0    0    0    0 -0.00000000000E+00 -0.00000000000E+00 -0.45593999997E+02  0.45594000000E+02  0.51100000000E-03 0.  1.
         23    2    1    2    0    0  0.00000000000E+00  0.00000000000E+00  0.26645352591E-14  0.91188000000E+02  0.91188000000E+02 0.  0.
    9900012    2    3    3    0    0  0.13994112715E+02  0.40834148863E+02  0.45122501212E+01  0.47787270684E+02  0.19999998355E+02 0.  0.
        -12    1    3    3    0    0 -0.13994112715E+02 -0.40834148863E+02 -0.45122501212E+01  0.43400729316E+02  0.00000000000E+00 0.  1.
         11    1    4    4    0    0  0.12612823440E+01  0.11510582323E+02  0.58239413282E+01  0.12961582905E+02  0.51100000000E-03 0. -1.
        -11    1    4    4    0    0  0.11624652576E+01  0.53460216131E+01 -0.56347411321E+01  0.78537621844E+01  0.51100000000E-03 0.  1.
        -12    1    4    4    0    0  0.11570365113E+02  0.23977544927E+02  0.43230499251E+01  0.26971925594E+02  0.00000000000E+00 0.  1.
</event>
<event>
 8    1  0.4798632E-010  0.9118800E+02  0.7816164E-02  0.1184000E+00
        -11   -1    0    0    0    0  0.00000000000E+00  0.00000000000E+00  0.45593999997E+02  0.45594000000E+02  0.51100000000E-03 0. -1.
         11   -1    0    0    0    0 -0.00000000000E+00 -0.00000000000E+00 -0.45593999997E+02  0.45594000000E+02  0.51100000000E-03 0.  1.
         23    2    1    2    0    0  0.00000000000E+00  0.00000000000E+00  0.00000000000E+00  0.91188000000E+02  0.91188000000E+02 0.  0.
    9900012    2    3    3    0    0  0.49770024421E+01 -0.27987938954E+02  0.32795246696E+02  0.47787268600E+02  0.19999988853E+02 0.  0.
        -12    1    3    3    0    0 -0.49770024421E+01  0.27987938954E+02 -0.32795246696E+02  0.43400731400E+02  0.00000000000E+00 0.  1.
         11    1    4    4    0    0  0.57360022147E+00  0.21942857248E+01  0.88483368298E+00  0.24345097995E+01  0.51100000000E-03 0. -1.
        -11    1    4    4    0    0  0.47772753007E+01 -0.29528752096E+02  0.26722852239E+02  0.40110851296E+02  0.51100000000E-03 0.  1.
        -12    1    4    4    0    0 -0.37387308005E+00 -0.65347258331E+00  0.51875607743E+01  0.52419075044E+01  0.00000000000E+00 0.  1.
</event>
<event>
 8    1  0.4798632E-010  0.9118800E+02  0.7816164E-02  0.1184000E+00
        -11   -1    0    0    0    0  0.00000000000E+00  0.00000000000E+00  0.45593999997E+02  0.45594000000E+02  0.51100000000E-03 0. -1.
         11   -1    0    0    0    0 -0.00000000000E+00 -0.00000000000E+00 -0.45593999997E+02  0.45594000000E+02  0.51100000000E-03 0.  1.
         23    2    1    2    0    0 -0.35527136788E-14  0.00000000000E+00  0.00000000000E+00  0.91188000000E+02  0.91188000000E+02 0.  0.
    9900012    2    3    3    0    0 -0.22241411903E+02 -0.17091758040E+02 -0.33118195399E+02  0.47787268868E+02  0.19999990075E+02 0.  0.
         12    1    3    3    0    0  0.22241411903E+02  0.17091758040E+02  0.33118195399E+02  0.43400731132E+02  0.00000000000E+00 0. -1.
         11    1    4    4    0    0 -0.74855311496E+01  0.20788762298E+01 -0.25576247132E+01  0.81790187312E+01  0.51100000000E-03 0. -1.
        -11    1    4    4    0    0 -0.57028678428E+01 -0.12195095288E+02 -0.19561740679E+02  0.23746678702E+02  0.51100000000E-03 0.  1.
        -12    1    4    4    0    0 -0.90530129110E+01 -0.69755389819E+01 -0.10998830006E+02  0.15861571434E+02  0.00000000000E+00 0.  1.
</event>
<event>
 8    1  0.4798632E-010  0.9118800E+02  0.7816164E-02  0.1184000E+00
        -11   -1    0    0    0    0  0.00000000000E+00  0.00000000000E+00  0.45593999997E+02  0.45594000000E+02  0.51100000000E-03 0. -1.
         11   -1    0    0    0    0 -0.00000000000E+00 -0.00000000000E+00 -0.45593999997E+02  0.45594000000E+02  0.51100000000E-03 0.  1.
         23    2    1    2    0    0  0.00000000000E+00 -0.71054273576E-14  0.35527136788E-14  0.91188000000E+02  0.91188000000E+02 0.  0.
    9900012    2    3    3    0    0  0.90333458062E+01  0.35545666287E+02  0.23206206229E+02  0.47787265723E+02  0.19999975737E+02 0.  0.
        -12    1    3    3    0    0 -0.90333458062E+01 -0.35545666287E+02 -0.23206206229E+02  0.43400734277E+02  0.00000000000E+00 0.  1.
         11    1    4    4    0    0  0.91516261761E+01  0.17995746948E+02  0.11282680798E+02  0.23127863199E+02  0.51100000000E-03 0. -1.
        -11    1    4    4    0    0 -0.41331510262E+01  0.13560625152E+01  0.49137276183E+01  0.65625118909E+01  0.51100000000E-03 0.  1.
        -12    1    4    4    0    0  0.40148706563E+01  0.16193856824E+02  0.70097978133E+01  0.18096890633E+02  0.00000000000E+00 0.  1.
</event>
<event>
 8    1  0.4798632E-010  0.9118800E+02  0.7816164E-02  0.1184000E+00
        -11   -1    0    0    0    0  0.00000000000E+00  0.00000000000E+00  0.45593999997E+02  0.45594000000E+02  0.51100000000E-03 0.  1.
         11   -1    0    0    0    0 -0.00000000000E+00 -0.00000000000E+00 -0.45593999997E+02  0.45594000000E+02  0.51100000000E-03 0. -1.
         23    2    1    2    0    0 -0.88817841970E-15  0.00000000000E+00  0.88817841970E-15  0.91188000000E+02  0.91188000000E+02 0.  0.
    9900012    2    3    3    0    0  0.61598412871E+01 -0.42321839416E+02  0.73852172528E+01  0.47787272240E+02  0.20000005450E+02 0.  0.
         12    1    3    3    0    0 -0.61598412871E+01  0.42321839416E+02 -0.73852172528E+01  0.43400727760E+02  0.00000000000E+00 0. -1.
         11    1    4    4    0    0  0.28598762983E+01 -0.18226187329E+02 -0.55581918615E+01  0.19268271693E+02  0.51100000000E-03 0. -1.
        -11    1    4    4    0    0  0.20871687412E+01 -0.57745127483E+01  0.15305368770E+00  0.61420433512E+01  0.51100000000E-03 0.  1.
         12    1    4    4    0    0  0.12127962476E+01 -0.18321139339E+02  0.12790355427E+02  0.22376957196E+02  0.00000000000E+00 0. -1.
</event>
<event>
 8    1  0.4798632E-010  0.9118800E+02  0.7816164E-02  0.1184000E+00
        -11   -1    0    0    0    0  0.00000000000E+00  0.00000000000E+00  0.45593999997E+02  0.45594000000E+02  0.51100000000E-03 0. -1.
         11   -1    0    0    0    0 -0.00000000000E+00 -0.00000000000E+00 -0.45593999997E+02  0.45594000000E+02  0.51100000000E-03 0.  1.
         23    2    1    2    0    0  0.35527136788E-14  0.00000000000E+00  0.00000000000E+00  0.91188000000E+02  0.91188000000E+02 0.  0.
    9900012    2    3    3    0    0  0.29742247916E+02 -0.31586422969E+02 -0.11489635986E+01  0.47787267927E+02  0.19999985787E+02 0.  0.
         12    1    3    3    0    0 -0.29742247916E+02  0.31586422969E+02  0.11489635986E+01  0.43400732073E+02  0.00000000000E+00 0. -1.
         11    1    4    4    0    0  0.27210318673E+02 -0.20756118104E+02 -0.13382852615E+01  0.34249217344E+02  0.51100000000E-03 0. -1.
        -11    1    4    4    0    0 -0.50586167633E+00 -0.75278873085E+01  0.31351977786E+01  0.81703395729E+01  0.51100000000E-03 0.  1.
         12    1    4    4    0    0  0.30377909201E+01 -0.33024175571E+01 -0.29458761157E+01  0.53677110097E+01  0.00000000000E+00 0. -1.
</event>
<event>
 8    1  0.4798632E-010  0.9118800E+02  0.7816164E-02  0.1184000E+00
        -11   -1    0    0    0    0  0.00000000000E+00  0.00000000000E+00  0.45593999997E+02  0.45594000000E+02  0.51100000000E-03 0. -1.
         11   -1    0    0    0    0 -0.00000000000E+00 -0.00000000000E+00 -0.45593999997E+02  0.45594000000E+02  0.51100000000E-03 0.  1.
         23    2    1    2    0    0  0.00000000000E+00  0.00000000000E+00  0.00000000000E+00  0.91188000000E+02  0.91188000000E+02 0.  0.
    9900012    2    3    3    0    0 -0.50308922672E+01  0.49306550133E+01  0.42825214152E+02  0.47787306422E+02  0.20000161300E+02 0.  0.
        -12    1    3    3    0    0  0.50308922672E+01 -0.49306550133E+01 -0.42825214152E+02  0.43400693578E+02  0.00000000000E+00 0.  1.
         11    1    4    4    0    0 -0.10867498399E+02  0.34276731549E+00  0.17269093409E+02  0.20406900752E+02  0.51100000000E-03 0. -1.
        -11    1    4    4    0    0  0.56563793255E+01  0.52280916568E+01  0.15558795018E+02  0.17360981312E+02  0.51100000000E-03 0.  1.
         12    1    4    4    0    0  0.18022680592E+00 -0.64020395898E+00  0.99973257249E+01  0.10019424358E+02  0.00000000000E+00 0. -1.
</event>
<event>
 8    1  0.4798632E-010  0.9118800E+02  0.7816164E-02  0.1184000E+00
        -11   -1    0    0    0    0  0.00000000000E+00  0.00000000000E+00  0.45593999997E+02  0.45594000000E+02  0.51100000000E-03 0. -1.
         11   -1    0    0    0    0 -0.00000000000E+00 -0.00000000000E+00 -0.45593999997E+02  0.45594000000E+02  0.51100000000E-03 0.  1.
         23    2    1    2    0    0  0.35527136788E-14  0.00000000000E+00  0.00000000000E+00  0.91188000000E+02  0.91188000000E+02 0.  0.
    9900012    2    3    3    0    0  0.21589569411E+02  0.14673177957E+02 -0.34672919072E+02  0.47787274480E+02  0.20000015662E+02 0.  0.
         12    1    3    3    0    0 -0.21589569411E+02 -0.14673177957E+02  0.34672919072E+02  0.43400725520E+02  0.00000000000E+00 0. -1.
         11    1    4    4    0    0  0.86067574320E+00  0.32281928952E+01 -0.26900934758E+00  0.33517694422E+01  0.51100000000E-03 0. -1.
        -11    1    4    4    0    0  0.22132707304E+02  0.89119092860E+01 -0.24840169099E+02  0.34442892748E+02  0.51100000000E-03 0.  1.
        -12    1    4    4    0    0 -0.14038136361E+01  0.25330757763E+01 -0.95637406255E+01  0.99926122893E+01  0.00000000000E+00 0.  1.
</event>
<event>
 8    1  0.4798632E-010  0.9118800E+02  0.7816164E-02  0.1184000E+00
        -11   -1    0    0    0    0  0.00000000000E+00  0.00000000000E+00  0.45593999997E+02  0.45594000000E+02  0.51100000000E-03 0. -1.
         11   -1    0    0    0    0 -0.00000000000E+00 -0.00000000000E+00 -0.45593999997E+02  0.45594000000E+02  0.51100000000E-03 0.  1.
         23    2    1    2    0    0  0.00000000000E+00 -0.44408920985E-15 -0.35527136788E-14  0.91188000000E+02  0.91188000000E+02 0.  0.
    9900012    2    3    3    0    0 -0.37953328321E+02 -0.13960573173E+01 -0.21005212056E+02  0.47787273736E+02  0.20000012273E+02 0.  0.
         12    1    3    3    0    0  0.37953328321E+02  0.13960573173E+01  0.21005212056E+02  0.43400726264E+02  0.00000000000E+00 0. -1.
         11    1    4    4    0    0 -0.29679219003E+01  0.54966782136E+01 -0.20173581456E+01  0.65644318824E+01  0.51100000000E-03 0. -1.
        -11    1    4    4    0    0 -0.25368116504E+02 -0.86214387081E+01 -0.14580179642E+02  0.30503314230E+02  0.51100000000E-03 0.  1.
        -12    1    4    4    0    0 -0.96172899169E+01  0.17287031771E+01 -0.44076742683E+01  0.10719527624E+02  0.00000000000E+00 0.  1.
</event>
<event>
 8    1  0.4798632E-010  0.9118800E+02  0.7816164E-02  0.1184000E+00
        -11   -1    0    0    0    0  0.00000000000E+00  0.00000000000E+00  0.45593999997E+02  0.45594000000E+02  0.51100000000E-03 0. -1.
         11   -1    0    0    0    0 -0.00000000000E+00 -0.00000000000E+00 -0.45593999997E+02  0.45594000000E+02  0.51100000000E-03 0.  1.
         23    2    1    2    0    0  0.00000000000E+00  0.00000000000E+00  0.00000000000E+00  0.91188000000E+02  0.91188000000E+02 0.  0.
    9900012    2    3    3    0    0 -0.28068053297E+02 -0.18013060991E+02 -0.27772959531E+02  0.47787271166E+02  0.20000000556E+02 0.  0.
         12    1    3    3    0    0  0.28068053297E+02  0.18013060991E+02  0.27772959531E+02  0.43400728834E+02  0.00000000000E+00 0. -1.
         11    1    4    4    0    0 -0.39027673522E+01  0.34969119655E+01 -0.54677106972E+01  0.75733643006E+01  0.51100000000E-03 0. -1.
        -11    1    4    4    0    0 -0.16022638851E+02 -0.96121390776E+01 -0.96468531222E+01  0.21028075252E+02  0.51100000000E-03 0.  1.
         12    1    4    4    0    0 -0.81426470946E+01 -0.11897833879E+02 -0.12658395712E+02  0.19185831614E+02  0.00000000000E+00 0. -1.
</event>
<event>
 8    1  0.4798632E-010  0.9118800E+02  0.7816164E-02  0.1184000E+00
        -11   -1    0    0    0    0  0.00000000000E+00  0.00000000000E+00  0.45593999997E+02  0.45594000000E+02  0.51100000000E-03 0. -1.
         11   -1    0    0    0    0 -0.00000000000E+00 -0.00000000000E+00 -0.45593999997E+02  0.45594000000E+02  0.51100000000E-03 0.  1.
         23    2    1    2    0    0  0.17763568394E-14  0.00000000000E+00  0.00000000000E+00  0.91188000000E+02  0.91188000000E+02 0.  0.
    9900012    2    3    3    0    0 -0.83085033569E+01  0.16414683705E+02  0.39308391180E+02  0.47787277814E+02  0.20000030864E+02 0.  0.
        -12    1    3    3    0    0  0.83085033569E+01 -0.16414683705E+02 -0.39308391180E+02  0.43400722186E+02  0.00000000000E+00 0.  1.
         11    1    4    4    0    0 -0.48593294324E+01  0.63888262669E+01  0.73631046246E+01  0.10892451220E+02  0.51100000000E-03 0. -1.
        -11    1    4    4    0    0 -0.73340664389E+01  0.47336435174E+01  0.27781809546E+02  0.29120866288E+02  0.51100000000E-03 0.  1.
        -12    1    4    4    0    0  0.38848925145E+01  0.52922139205E+01  0.41634770092E+01  0.77739603058E+01  0.00000000000E+00 0.  1.
</event>
<event>
 8    1  0.4798632E-010  0.9118800E+02  0.7816164E-02  0.1184000E+00
        -11   -1    0    0    0    0  0.00000000000E+00  0.00000000000E+00  0.45593999997E+02  0.45594000000E+02  0.51100000000E-03 0. -1.
         11   -1    0    0    0    0 -0.00000000000E+00 -0.00000000000E+00 -0.45593999997E+02  0.45594000000E+02  0.51100000000E-03 0.  1.
         23    2    1    2    0    0  0.35527136788E-14 -0.35527136788E-14 -0.35527136788E-14  0.91188000000E+02  0.91188000000E+02 0.  0.
    9900012    2    3    3    0    0 -0.31066385721E+02  0.67860176063E+01 -0.29537317627E+02  0.47787268563E+02  0.19999988684E+02 0.  0.
         12    1    3    3    0    0  0.31066385721E+02 -0.67860176063E+01  0.29537317627E+02  0.43400731437E+02  0.00000000000E+00 0. -1.
         11    1    4    4    0    0 -0.12735077991E+02 -0.31101319801E+01 -0.12542668693E+02  0.18143143900E+02  0.51100000000E-03 0. -1.
        -11    1    4    4    0    0 -0.13018385311E+02  0.11027305499E+02 -0.17175596439E+02  0.24209108533E+02  0.51100000000E-03 0.  1.
         12    1    4    4    0    0 -0.53129224186E+01 -0.11311559125E+01  0.18094750515E+00  0.54350161291E+01  0.00000000000E+00 0. -1.
</event>
<event>
 8    1  0.4798632E-010  0.9118800E+02  0.7816164E-02  0.1184000E+00
        -11   -1    0    0    0    0  0.00000000000E+00  0.00000000000E+00  0.45593999997E+02  0.45594000000E+02  0.51100000000E-03 0. -1.
         11   -1    0    0    0    0 -0.00000000000E+00 -0.00000000000E+00 -0.45593999997E+02  0.45594000000E+02  0.51100000000E-03 0.  1.
         23    2    1    2    0    0 -0.71054273576E-14  0.00000000000E+00  0.00000000000E+00  0.91188000000E+02  0.91188000000E+02 0.  0.
    9900012    2    3    3    0    0  0.26517535745E+02  0.24514895120E+02 -0.24072046264E+02  0.47787271941E+02  0.20000004088E+02 0.  0.
         12    1    3    3    0    0 -0.26517535745E+02 -0.24514895120E+02  0.24072046264E+02  0.43400728059E+02  0.00000000000E+00 0. -1.
         11    1    4    4    0    0  0.49407101776E+01  0.15554107913E+02 -0.79171967602E+01  0.18138988253E+02  0.51100000000E-03 0. -1.
        -11    1    4    4    0    0  0.14454327695E+02  0.75374149721E+01 -0.15260909031E+02  0.22330149088E+02  0.51100000000E-03 0.  1.
         12    1    4    4    0    0  0.71224978723E+01  0.14233722352E+01 -0.89394047241E+00  0.73181346004E+01  0.00000000000E+00 0. -1.
</event>
<event>
 8    1  0.4798632E-010  0.9118800E+02  0.7816164E-02  0.1184000E+00
        -11   -1    0    0    0    0  0.00000000000E+00  0.00000000000E+00  0.45593999997E+02  0.45594000000E+02  0.51100000000E-03 0. -1.
         11   -1    0    0    0    0 -0.00000000000E+00 -0.00000000000E+00 -0.45593999997E+02  0.45594000000E+02  0.51100000000E-03 0.  1.
         23    2    1    2    0    0 -0.71054273576E-14 -0.17763568394E-14  0.00000000000E+00  0.91188000000E+02  0.91188000000E+02 0.  0.
    9900012    2    3    3    0    0  0.36236010748E+02  0.13057811064E+02  0.20001705499E+02  0.47787272730E+02  0.20000007684E+02 0.  0.
        -12    1    3    3    0    0 -0.36236010748E+02 -0.13057811064E+02 -0.20001705499E+02  0.43400727270E+02  0.00000000000E+00 0.  1.
         11    1    4    4    0    0  0.80570851299E+01  0.24336668478E+01  0.12359810732E+02  0.14953403516E+02  0.51100000000E-03 0. -1.
        -11    1    4    4    0    0  0.17398209224E+02  0.11616568288E+02  0.33431348634E+01  0.21185346208E+02  0.51100000000E-03 0.  1.
        -12    1    4    4    0    0  0.10780716394E+02 -0.99242407124E+00  0.42987599041E+01  0.11648523006E+02  0.00000000000E+00 0.  1.
</event>
<event>
 8    1  0.4798632E-010  0.9118800E+02  0.7816164E-02  0.1184000E+00
        -11   -1    0    0    0    0  0.00000000000E+00  0.00000000000E+00  0.45593999997E+02  0.45594000000E+02  0.51100000000E-03 0.  1.
         11   -1    0    0    0    0 -0.00000000000E+00 -0.00000000000E+00 -0.45593999997E+02  0.45594000000E+02  0.51100000000E-03 0. -1.
         23    2    1    2    0    0  0.00000000000E+00  0.00000000000E+00 -0.88817841970E-15  0.91188000000E+02  0.91188000000E+02 0.  0.
    9900012    2    3    3    0    0 -0.41303464901E+02 -0.11964806301E+02 -0.58728591788E+01  0.47787271002E+02  0.19999999806E+02 0.  0.
        -12    1    3    3    0    0  0.41303464901E+02  0.11964806301E+02  0.58728591788E+01  0.43400728998E+02  0.00000000000E+00 0.  1.
         11    1    4    4    0    0 -0.84192734100E+01 -0.60305515150E+01 -0.72825451900E+01  0.12660457378E+02  0.51100000000E-03 0. -1.
        -11    1    4    4    0    0 -0.30737909056E+02 -0.65889837319E+01  0.40114153458E+01  0.31691090437E+02  0.51100000000E-03 0.  1.
         12    1    4    4    0    0 -0.21462824345E+01  0.65472894547E+00 -0.26017293346E+01  0.34357231861E+01  0.00000000000E+00 0. -1.
</event>
<event>
 8    1  0.4798632E-010  0.9118800E+02  0.7816164E-02  0.1184000E+00
        -11   -1    0    0    0    0  0.00000000000E+00  0.00000000000E+00  0.45593999997E+02  0.45594000000E+02  0.51100000000E-03 0. -1.
         11   -1    0    0    0    0 -0.00000000000E+00 -0.00000000000E+00 -0.45593999997E+02  0.45594000000E+02  0.51100000000E-03 0.  1.
         23    2    1    2    0    0  0.35527136788E-14  0.17763568394E-14  0.00000000000E+00  0.91188000000E+02  0.91188000000E+02 0.  0.
    9900012    2    3    3    0    0 -0.21555122770E+02  0.13637916640E+02  0.35114201843E+02  0.47787271216E+02  0.20000000784E+02 0.  0.
        -12    1    3    3    0    0  0.21555122770E+02 -0.13637916640E+02 -0.35114201843E+02  0.43400728784E+02  0.00000000000E+00 0.  1.
         11    1    4    4    0    0 -0.50309458077E+01  0.34587942151E+01  0.10287246952E+02  0.11962488171E+02  0.51100000000E-03 0. -1.
        -11    1    4    4    0    0 -0.18996767408E+02  0.49723547739E+01  0.16237372990E+02  0.25480458509E+02  0.51100000000E-03 0.  1.
        -12    1    4    4    0    0  0.24725904455E+01  0.52067676505E+01  0.85895819012E+01  0.10344324536E+02  0.00000000000E+00 0.  1.
</event>
<event>
 8    1  0.4798632E-010  0.9118800E+02  0.7816164E-02  0.1184000E+00
        -11   -1    0    0    0    0  0.00000000000E+00  0.00000000000E+00  0.45593999997E+02  0.45594000000E+02  0.51100000000E-03 0. -1.
         11   -1    0    0    0    0 -0.00000000000E+00 -0.00000000000E+00 -0.45593999997E+02  0.45594000000E+02  0.51100000000E-03 0.  1.
         23    2    1    2    0    0 -0.71054273576E-14 -0.35527136788E-14 -0.17763568394E-14  0.91188000000E+02  0.91188000000E+02 0.  0.
    9900012    2    3    3    0    0  0.36682319453E+02 -0.21326324816E+02 -0.91224245726E+01  0.47787270505E+02  0.19999997539E+02 0.  0.
         12    1    3    3    0    0 -0.36682319453E+02  0.21326324816E+02  0.91224245726E+01  0.43400729495E+02  0.00000000000E+00 0. -1.
         11    1    4    4    0    0  0.63296954368E+01 -0.83500605706E+01 -0.41495781263E+01  0.11269762852E+02  0.51100000000E-03 0. -1.
        -11    1    4    4    0    0  0.14910478955E+02 -0.14107990654E+01  0.36029992325E+01  0.15404361084E+02  0.51100000000E-03 0.  1.
        -12    1    4    4    0    0  0.15442145062E+02 -0.11565465180E+02 -0.85758456788E+01  0.21113146569E+02  0.00000000000E+00 0.  1.
</event>
<event>
 8    1  0.4798632E-010  0.9118800E+02  0.7816164E-02  0.1184000E+00
        -11   -1    0    0    0    0  0.00000000000E+00  0.00000000000E+00  0.45593999997E+02  0.45594000000E+02  0.51100000000E-03 0. -1.
         11   -1    0    0    0    0 -0.00000000000E+00 -0.00000000000E+00 -0.45593999997E+02  0.45594000000E+02  0.51100000000E-03 0.  1.
         23    2    1    2    0    0  0.35527136788E-14  0.00000000000E+00  0.44408920985E-15  0.91188000000E+02  0.91188000000E+02 0.  0.
    9900012    2    3    3    0    0  0.28334340443E+02  0.32701147488E+02 -0.33798503784E+01  0.47787270928E+02  0.19999999469E+02 0.  0.
         12    1    3    3    0    0 -0.28334340443E+02 -0.32701147488E+02  0.33798503784E+01  0.43400729072E+02  0.00000000000E+00 0. -1.
         11    1    4    4    0    0  0.73067374760E+01  0.58055338960E+01  0.91034184203E+00  0.93766389976E+01  0.51100000000E-03 0. -1.
        -11    1    4    4    0    0  0.17345858617E+02  0.12420074990E+02 -0.83857898922E+01  0.22922882592E+02  0.51100000000E-03 0.  1.
        -12    1    4    4    0    0  0.36817443499E+01  0.14475538603E+02  0.40955976718E+01  0.15487749339E+02  0.00000000000E+00 0.  1.
</event>
<event>
 8    1  0.4798632E-010  0.9118800E+02  0.7816164E-02  0.1184000E+00
        -11   -1    0    0    0    0  0.00000000000E+00  0.00000000000E+00  0.45593999997E+02  0.45594000000E+02  0.51100000000E-03 0.  1.
         11   -1    0    0    0    0 -0.00000000000E+00 -0.00000000000E+00 -0.45593999997E+02  0.45594000000E+02  0.51100000000E-03 0. -1.
         23    2    1    2    0    0  0.00000000000E+00  0.00000000000E+00 -0.88817841970E-15  0.91188000000E+02  0.91188000000E+02 0.  0.
    9900012    2    3    3    0    0 -0.17802394503E+02  0.39346274199E+02  0.43091486421E+01  0.47787270681E+02  0.19999998342E+02 0.  0.
         12    1    3    3    0    0  0.17802394503E+02 -0.39346274199E+02 -0.43091486421E+01  0.43400729319E+02  0.00000000000E+00 0. -1.
         11    1    4    4    0    0 -0.13078909196E+02  0.17375738330E+02 -0.12542585614E+01  0.21784106892E+02  0.51100000000E-03 0. -1.
        -11    1    4    4    0    0 -0.18080060346E+01  0.55807108821E+01 -0.37162675590E+01  0.69443404728E+01  0.51100000000E-03 0.  1.
        -12    1    4    4    0    0 -0.29154792731E+01  0.16389824987E+02  0.92796747626E+01  0.19058823316E+02  0.00000000000E+00 0.  1.
</event>
<event>
 8    1  0.4798632E-010  0.9118800E+02  0.7816164E-02  0.1184000E+00
        -11   -1    0    0    0    0  0.00000000000E+00  0.00000000000E+00  0.45593999997E+02  0.45594000000E+02  0.51100000000E-03 0. -1.
         11   -1    0    0    0    0 -0.00000000000E+00 -0.00000000000E+00 -0.45593999997E+02  0.45594000000E+02  0.51100000000E-03 0.  1.
         23    2    1    2    0    0 -0.22204460493E-15  0.00000000000E+00  0.00000000000E+00  0.91188000000E+02  0.91188000000E+02 0.  0.
    9900012    2    3    3    0    0 -0.81509839754E+00  0.12320625769E+02  0.41607219479E+02  0.47787275150E+02  0.20000018717E+02 0.  0.
        -12    1    3    3    0    0  0.81509839754E+00 -0.12320625769E+02 -0.41607219479E+02  0.43400724850E+02  0.00000000000E+00 0.  1.
         11    1    4    4    0    0  0.52006353568E+01  0.36893124407E+01  0.26516556405E+02  0.27272429269E+02  0.51100000000E-03 0. -1.
        -11    1    4    4    0    0  0.16082952251E+01  0.23024981535E+01  0.75735121696E+01  0.80775118769E+01  0.51100000000E-03 0.  1.
         12    1    4    4    0    0 -0.76240289794E+01  0.63288151746E+01  0.75171509052E+01  0.12437334004E+02  0.00000000000E+00 0. -1.
</event>
<event>
 8    1  0.4798632E-010  0.9118800E+02  0.7816164E-02  0.1184000E+00
        -11   -1    0    0    0    0  0.00000000000E+00  0.00000000000E+00  0.45593999997E+02  0.45594000000E+02  0.51100000000E-03 0. -1.
         11   -1    0    0    0    0 -0.00000000000E+00 -0.00000000000E+00 -0.45593999997E+02  0.45594000000E+02  0.51100000000E-03 0.  1.
         23    2    1    2    0    0  0.00000000000E+00 -0.88817841970E-15  0.00000000000E+00  0.91188000000E+02  0.91188000000E+02 0.  0.
    9900012    2    3    3    0    0  0.96106677997E+01 -0.61063140064E+01  0.41880439339E+02  0.47787271832E+02  0.20000003590E+02 0.  0.
        -12    1    3    3    0    0 -0.96106677997E+01  0.61063140064E+01 -0.41880439339E+02  0.43400728168E+02  0.00000000000E+00 0.  1.
         11    1    4    4    0    0  0.88336228487E+00 -0.45140348383E+00  0.81825428711E+01  0.82424572872E+01  0.51100000000E-03 0. -1.
        -11    1    4    4    0    0  0.77740710943E+01 -0.43494597339E+01  0.35800809853E+02  0.36892437813E+02  0.51100000000E-03 0.  1.
        -12    1    4    4    0    0  0.95323442059E+00 -0.13054507887E+01 -0.21029133853E+01  0.26523767320E+01  0.00000000000E+00 0.  1.
</event>
<event>
 8    1  0.4798632E-010  0.9118800E+02  0.7816164E-02  0.1184000E+00
        -11   -1    0    0    0    0  0.00000000000E+00  0.00000000000E+00  0.45593999997E+02  0.45594000000E+02  0.51100000000E-03 0. -1.
         11   -1    0    0    0    0 -0.00000000000E+00 -0.00000000000E+00 -0.45593999997E+02  0.45594000000E+02  0.51100000000E-03 0.  1.
         23    2    1    2    0    0  0.00000000000E+00 -0.88817841970E-15  0.00000000000E+00  0.91188000000E+02  0.91188000000E+02 0.  0.
    9900012    2    3    3    0    0 -0.37905567616E+02 -0.35040907337E+01  0.20844964674E+02  0.47787271199E+02  0.20000000706E+02 0.  0.
        -12    1    3    3    0    0  0.37905567616E+02  0.35040907337E+01 -0.20844964674E+02  0.43400728801E+02  0.00000000000E+00 0.  1.
         11    1    4    4    0    0 -0.10756963518E+02  0.55814347629E+01  0.92198584543E+01  0.15227293532E+02  0.51100000000E-03 0. -1.
        -11    1    4    4    0    0 -0.24029437040E+02 -0.10408259120E+02  0.12563227112E+02  0.29044455204E+02  0.51100000000E-03 0.  1.
        -12    1    4    4    0    0 -0.31191670588E+01  0.13227336235E+01 -0.93812089289E+00  0.35155224632E+01  0.00000000000E+00 0.  1.
</event>
<event>
 8    1  0.4939758E-010  0.9118800E+02  0.7816164E-02  0.1184000E+00
        -11   -1    0    0    0    0  0.00000000000E+00  0.00000000000E+00  0.45593999997E+02  0.45594000000E+02  0.51100000000E-03 0. -1.
         11   -1    0    0    0    0 -0.00000000000E+00 -0.00000000000E+00 -0.45593999997E+02  0.45594000000E+02  0.51100000000E-03 0.  1.
         23    2    1    2    0    0  0.35527136788E-14  0.00000000000E+00  0.00000000000E+00  0.91188000000E+02  0.91188000000E+02 0.  0.
    9900012    2    3    3    0    0 -0.23247591925E+02  0.20958082329E+02 -0.30065456447E+02  0.47787269401E+02  0.19999992505E+02 0.  0.
         12    1    3    3    0    0  0.23247591925E+02 -0.20958082329E+02  0.30065456447E+02  0.43400730599E+02  0.00000000000E+00 0. -1.
         11    1    4    4    0    0 -0.72847453815E+01  0.13371516402E+02 -0.66089999771E+01  0.16599513460E+02  0.51100000000E-03 0. -1.
        -11    1    4    4    0    0 -0.11794863265E+02  0.12097248536E+01 -0.91404736519E+01  0.14970988361E+02  0.51100000000E-03 0.  1.
        -12    1    4    4    0    0 -0.41679832783E+01  0.63768410737E+01 -0.14315982818E+02  0.16216767579E+02  0.00000000000E+00 0.  1.
</event>
<event>
 8    1  0.4798632E-010  0.9118800E+02  0.7816164E-02  0.1184000E+00
        -11   -1    0    0    0    0  0.00000000000E+00  0.00000000000E+00  0.45593999997E+02  0.45594000000E+02  0.51100000000E-03 0. -1.
         11   -1    0    0    0    0 -0.00000000000E+00 -0.00000000000E+00 -0.45593999997E+02  0.45594000000E+02  0.51100000000E-03 0.  1.
         23    2    1    2    0    0  0.00000000000E+00  0.00000000000E+00  0.00000000000E+00  0.91188000000E+02  0.91188000000E+02 0.  0.
    9900012    2    3    3    0    0 -0.52907983305E+01  0.38096141559E+02 -0.20107575620E+02  0.47787272518E+02  0.20000006719E+02 0.  0.
         12    1    3    3    0    0  0.52907983305E+01 -0.38096141559E+02  0.20107575620E+02  0.43400727482E+02  0.00000000000E+00 0. -1.
         11    1    4    4    0    0  0.29750693461E+01  0.17733533163E+02 -0.16698340880E+01  0.18058725930E+02  0.51100000000E-03 0. -1.
        -11    1    4    4    0    0 -0.63876582515E+01  0.16465244740E+02 -0.10124950606E+02  0.20357334976E+02  0.51100000000E-03 0.  1.
         12    1    4    4    0    0 -0.18782094251E+01  0.38973636559E+01 -0.83127909259E+01  0.93712116126E+01  0.00000000000E+00 0. -1.
</event>
<event>
 8    1  0.4798632E-010  0.9118800E+02  0.7816164E-02  0.1184000E+00
        -11   -1    0    0    0    0  0.00000000000E+00  0.00000000000E+00  0.45593999997E+02  0.45594000000E+02  0.51100000000E-03 0. -1.
         11   -1    0    0    0    0 -0.00000000000E+00 -0.00000000000E+00 -0.45593999997E+02  0.45594000000E+02  0.51100000000E-03 0.  1.
         23    2    1    2    0    0  0.00000000000E+00  0.00000000000E+00 -0.71054273576E-14  0.91188000000E+02  0.91188000000E+02 0.  0.
    9900012    2    3    3    0    0 -0.76510252301E+01  0.99482676434E+01 -0.41546571332E+02  0.47787264918E+02  0.19999972068E+02 0.  0.
         12    1    3    3    0    0  0.76510252301E+01 -0.99482676434E+01  0.41546571332E+02  0.43400735082E+02  0.00000000000E+00 0. -1.
         11    1    4    4    0    0  0.52117304390E+01  0.66039250153E+00 -0.57137638575E+01  0.77617878163E+01  0.51100000000E-03 0. -1.
        -11    1    4    4    0    0 -0.23671349497E+01  0.50599169491E+01 -0.64138407527E+01  0.85054947454E+01  0.51100000000E-03 0.  1.
         12    1    4    4    0    0 -0.10495620719E+02  0.42279581928E+01 -0.29418966722E+02  0.31519982357E+02  0.00000000000E+00 0. -1.
</event>
<event>
 8    1  0.4798632E-010  0.9118800E+02  0.7816164E-02  0.1184000E+00
        -11   -1    0    0    0    0  0.00000000000E+00  0.00000000000E+00  0.45593999997E+02  0.45594000000E+02  0.51100000000E-03 0. -1.
         11   -1    0    0    0    0 -0.00000000000E+00 -0.00000000000E+00 -0.45593999997E+02  0.45594000000E+02  0.51100000000E-03 0.  1.
         23    2    1    2    0    0  0.00000000000E+00  0.55511151231E-15  0.00000000000E+00  0.91188000000E+02  0.91188000000E+02 0.  0.
    9900012    2    3    3    0    0  0.32246459161E+02 -0.71793626457E+00  0.29039177359E+02  0.47787269792E+02  0.19999994291E+02 0.  0.
        -12    1    3    3    0    0 -0.32246459161E+02  0.71793626457E+00 -0.29039177359E+02  0.43400730208E+02  0.00000000000E+00 0.  1.
         11    1    4    4    0    0 -0.13872821269E+00  0.43046432076E+01  0.10831292698E+01  0.44409872706E+01  0.51100000000E-03 0.  1.
        -11    1    4    4    0    0  0.27587059507E+02 -0.57242831580E+01  0.25000027887E+02  0.37667156311E+02  0.51100000000E-03 0. -1.
        -12    1    4    4    0    0  0.47981278662E+01  0.70170368588E+00  0.29560202017E+01  0.56791262106E+01  0.00000000000E+00 0.  1.
</event>
<event>
 8    1  0.6454083E-010  0.9118800E+02  0.7816164E-02  0.1184000E+00
        -11   -1    0    0    0    0  0.00000000000E+00  0.00000000000E+00  0.45593999997E+02  0.45594000000E+02  0.51100000000E-03 0. -1.
         11   -1    0    0    0    0 -0.00000000000E+00 -0.00000000000E+00 -0.45593999997E+02  0.45594000000E+02  0.51100000000E-03 0.  1.
         23    2    1    2    0    0 -0.17763568394E-14  0.00000000000E+00  0.00000000000E+00  0.91188000000E+02  0.91188000000E+02 0.  0.
    9900012    2    3    3    0    0  0.97609896316E+01 -0.10029421239E+02 -0.41082318549E+02  0.47787272974E+02  0.20000008799E+02 0.  0.
         12    1    3    3    0    0 -0.97609896316E+01  0.10029421239E+02  0.41082318549E+02  0.43400727026E+02  0.00000000000E+00 0. -1.
         11    1    4    4    0    0 -0.96951195004E+00  0.17869234522E+01 -0.57881717215E-01  0.20338140032E+01  0.51100000000E-03 0. -1.
        -11    1    4    4    0    0  0.14956495411E+01 -0.94889689002E+01 -0.28118228725E+02  0.29713839961E+02  0.51100000000E-03 0.  1.
        -12    1    4    4    0    0  0.92348520406E+01 -0.23273757908E+01 -0.12906208107E+02  0.16039619010E+02  0.00000000000E+00 0.  1.
</event>
<event>
 8    1  0.4798632E-010  0.9118800E+02  0.7816164E-02  0.1184000E+00
        -11   -1    0    0    0    0  0.00000000000E+00  0.00000000000E+00  0.45593999997E+02  0.45594000000E+02  0.51100000000E-03 0. -1.
         11   -1    0    0    0    0 -0.00000000000E+00 -0.00000000000E+00 -0.45593999997E+02  0.45594000000E+02  0.51100000000E-03 0.  1.
         23    2    1    2    0    0  0.88817841970E-15  0.00000000000E+00 -0.71054273576E-14  0.91188000000E+02  0.91188000000E+02 0.  0.
    9900012    2    3    3    0    0 -0.51421173218E+01 -0.23888082330E+02  0.35868393768E+02  0.47787268216E+02  0.19999987102E+02 0.  0.
        -12    1    3    3    0    0  0.51421173218E+01  0.23888082330E+02 -0.35868393768E+02  0.43400731784E+02  0.00000000000E+00 0.  1.
         11    1    4    4    0    0 -0.47532228234E+01 -0.39324506795E+01  0.59357090156E+01  0.85609542303E+01  0.51100000000E-03 0. -1.
        -11    1    4    4    0    0 -0.17143509390E+00 -0.15274304354E+02  0.89022196731E+01  0.17680024855E+02  0.51100000000E-03 0.  1.
        -12    1    4    4    0    0 -0.21745940452E+00 -0.46813272956E+01  0.21030465079E+02  0.21546289130E+02  0.00000000000E+00 0.  1.
</event>
<event>
 8    1  0.4798632E-010  0.9118800E+02  0.7816164E-02  0.1184000E+00
        -11   -1    0    0    0    0  0.00000000000E+00  0.00000000000E+00  0.45593999997E+02  0.45594000000E+02  0.51100000000E-03 0. -1.
         11   -1    0    0    0    0 -0.00000000000E+00 -0.00000000000E+00 -0.45593999997E+02  0.45594000000E+02  0.51100000000E-03 0.  1.
         23    2    1    2    0    0  0.00000000000E+00  0.00000000000E+00 -0.88817841970E-15  0.91188000000E+02  0.91188000000E+02 0.  0.
    9900012    2    3    3    0    0  0.41420331508E+02  0.12379582304E+02 -0.38373004267E+01  0.47787276564E+02  0.20000025166E+02 0.  0.
         12    1    3    3    0    0 -0.41420331508E+02 -0.12379582304E+02  0.38373004267E+01  0.43400723436E+02  0.00000000000E+00 0. -1.
         11    1    4    4    0    0  0.20680395439E+02 -0.28139474475E+01  0.18773304123E+01  0.20955224300E+02  0.51100000000E-03 0. -1.
        -11    1    4    4    0    0  0.96665346309E+01  0.94360567873E+01 -0.12074525880E+01  0.13562411344E+02  0.51100000000E-03 0.  1.
        -12    1    4    4    0    0  0.11073401438E+02  0.57574729642E+01 -0.45071782510E+01  0.13269640919E+02  0.00000000000E+00 0.  1.
</event>
<event>
 8    1  0.4798632E-010  0.9118800E+02  0.7816164E-02  0.1184000E+00
        -11   -1    0    0    0    0  0.00000000000E+00  0.00000000000E+00  0.45593999997E+02  0.45594000000E+02  0.51100000000E-03 0. -1.
         11   -1    0    0    0    0 -0.00000000000E+00 -0.00000000000E+00 -0.45593999997E+02  0.45594000000E+02  0.51100000000E-03 0.  1.
         23    2    1    2    0    0  0.00000000000E+00 -0.17763568394E-14  0.00000000000E+00  0.91188000000E+02  0.91188000000E+02 0.  0.
    9900012    2    3    3    0    0 -0.69340923914E+01  0.15497606414E+02 -0.39942031554E+02  0.47787270438E+02  0.19999997233E+02 0.  0.
         12    1    3    3    0    0  0.69340923914E+01 -0.15497606414E+02  0.39942031554E+02  0.43400729562E+02  0.00000000000E+00 0. -1.
         11    1    4    4    0    0 -0.50450967965E+01  0.11057601091E+02 -0.31450036044E+02  0.33716884657E+02  0.51100000000E-03 0.  1.
        -11    1    4    4    0    0  0.75039382583E+00  0.25603710576E+01  0.18407795464E+01  0.32414596165E+01  0.51100000000E-03 0. -1.
         12    1    4    4    0    0 -0.26393894207E+01  0.18796342659E+01 -0.10332775057E+02  0.10828926164E+02  0.00000000000E+00 0. -1.
</event>
<event>
 8    1  0.4798632E-010  0.9118800E+02  0.7816164E-02  0.1184000E+00
        -11   -1    0    0    0    0  0.00000000000E+00  0.00000000000E+00  0.45593999997E+02  0.45594000000E+02  0.51100000000E-03 0. -1.
         11   -1    0    0    0    0 -0.00000000000E+00 -0.00000000000E+00 -0.45593999997E+02  0.45594000000E+02  0.51100000000E-03 0.  1.
         23    2    1    2    0    0  0.00000000000E+00  0.00000000000E+00  0.00000000000E+00  0.91188000000E+02  0.91188000000E+02 0.  0.
    9900012    2    3    3    0    0 -0.20134486451E+02 -0.27504133497E+02  0.26865378591E+02  0.47787268775E+02  0.19999989651E+02 0.  0.
        -12    1    3    3    0    0  0.20134486451E+02  0.27504133497E+02 -0.26865378591E+02  0.43400731225E+02  0.00000000000E+00 0.  1.
         11    1    4    4    0    0 -0.63865198540E+01 -0.14591397148E+02  0.37845822776E+01  0.16371303242E+02  0.51100000000E-03 0. -1.
        -11    1    4    4    0    0 -0.63538826017E+01 -0.84871494153E+01  0.19269189881E+02  0.21993299167E+02  0.51100000000E-03 0.  1.
         12    1    4    4    0    0 -0.73940839953E+01 -0.44255869335E+01  0.38116064326E+01  0.94226663653E+01  0.00000000000E+00 0. -1.
</event>
<event>
 8    1  0.4798632E-010  0.9118800E+02  0.7816164E-02  0.1184000E+00
        -11   -1    0    0    0    0  0.00000000000E+00  0.00000000000E+00  0.45593999997E+02  0.45594000000E+02  0.51100000000E-03 0.  1.
         11   -1    0    0    0    0 -0.00000000000E+00 -0.00000000000E+00 -0.45593999997E+02  0.45594000000E+02  0.51100000000E-03 0. -1.
         23    2    1    2    0    0  0.00000000000E+00  0.00000000000E+00 -0.17763568394E-14  0.91188000000E+02  0.91188000000E+02 0.  0.
    9900012    2    3    3    0    0 -0.42555774079E+02 -0.26969072077E+01  0.80842952675E+01  0.47787273670E+02  0.20000011972E+02 0.  0.
         12    1    3    3    0    0  0.42555774079E+02  0.26969072077E+01 -0.80842952675E+01  0.43400726330E+02  0.00000000000E+00 0. -1.
         11    1    4    4    0    0 -0.73708642624E+01 -0.39453748810E+01 -0.43117020418E+01  0.94067208785E+01  0.51100000000E-03 0. -1.
        -11    1    4    4    0    0 -0.27412965245E+02  0.20645271942E+01  0.56683632990E+01  0.28068902344E+02  0.51100000000E-03 0.  1.
         12    1    4    4    0    0 -0.77719445721E+01 -0.81605952086E+00  0.67276340104E+01  0.10311650447E+02  0.00000000000E+00 0. -1.
</event>
<event>
 8    1  0.4798632E-010  0.9118800E+02  0.7816164E-02  0.1184000E+00
        -11   -1    0    0    0    0  0.00000000000E+00  0.00000000000E+00  0.45593999997E+02  0.45594000000E+02  0.51100000000E-03 0. -1.
         11   -1    0    0    0    0 -0.00000000000E+00 -0.00000000000E+00 -0.45593999997E+02  0.45594000000E+02  0.51100000000E-03 0.  1.
         23    2    1    2    0    0  0.00000000000E+00  0.00000000000E+00 -0.71054273576E-14  0.91188000000E+02  0.91188000000E+02 0.  0.
    9900012    2    3    3    0    0 -0.20513830729E+02 -0.18718096610E+02 -0.33353242408E+02  0.47787272230E+02  0.20000005404E+02 0.  0.
         12    1    3    3    0    0  0.20513830729E+02  0.18718096610E+02  0.33353242408E+02  0.43400727770E+02  0.00000000000E+00 0. -1.
         11    1    4    4    0    0 -0.42131132683E+01  0.33446657194E+01 -0.26453150076E+01  0.59945645327E+01  0.51100000000E-03 0. -1.
        -11    1    4    4    0    0 -0.25241231982E+01 -0.55865893844E+00 -0.45627189479E+01  0.52442065355E+01  0.51100000000E-03 0.  1.
         12    1    4    4    0    0 -0.13776594263E+02 -0.21504103391E+02 -0.26145208452E+02  0.36548501161E+02  0.00000000000E+00 0. -1.
</event>
<event>
 8    1  0.4798632E-010  0.9118800E+02  0.7816164E-02  0.1184000E+00
        -11   -1    0    0    0    0  0.00000000000E+00  0.00000000000E+00  0.45593999997E+02  0.45594000000E+02  0.51100000000E-03 0. -1.
         11   -1    0    0    0    0 -0.00000000000E+00 -0.00000000000E+00 -0.45593999997E+02  0.45594000000E+02  0.51100000000E-03 0.  1.
         23    2    1    2    0    0  0.00000000000E+00  0.35527136788E-14 -0.35527136788E-14  0.91188000000E+02  0.91188000000E+02 0.  0.
    9900012    2    3    3    0    0  0.22812945116E+02 -0.20728888443E+02  0.30553328636E+02  0.47787272222E+02  0.20000005367E+02 0.  0.
        -12    1    3    3    0    0 -0.22812945116E+02  0.20728888443E+02 -0.30553328636E+02  0.43400727778E+02  0.00000000000E+00 0.  1.
         11    1    4    4    0    0  0.25168641536E+02 -0.16234907743E+02  0.29433969005E+02  0.41992752682E+02  0.51100000000E-03 0. -1.
        -11    1    4    4    0    0 -0.21601635683E+01 -0.40098814816E+01  0.18334804624E+01  0.49098988794E+01  0.51100000000E-03 0.  1.
        -12    1    4    4    0    0 -0.19553285198E+00 -0.48409921906E+00 -0.71412083128E+00  0.88462065981E+00  0.00000000000E+00 0.  1.
</event>
<event>
 8    1  0.4798632E-010  0.9118800E+02  0.7816164E-02  0.1184000E+00
        -11   -1    0    0    0    0  0.00000000000E+00  0.00000000000E+00  0.45593999997E+02  0.45594000000E+02  0.51100000000E-03 0. -1.
         11   -1    0    0    0    0 -0.00000000000E+00 -0.00000000000E+00 -0.45593999997E+02  0.45594000000E+02  0.51100000000E-03 0.  1.
         23    2    1    2    0    0  0.35527136788E-14  0.00000000000E+00  0.44408920985E-15  0.91188000000E+02  0.91188000000E+02 0.  0.
    9900012    2    3    3    0    0 -0.19471703431E+02  0.38782110370E+02 -0.65180841834E+00  0.47787260680E+02  0.19999952745E+02 0.  0.
        -12    1    3    3    0    0  0.19471703431E+02 -0.38782110370E+02  0.65180841834E+00  0.43400739320E+02  0.00000000000E+00 0.  1.
         11    1    4    4    0    0  0.24900630668E+01  0.11472687688E+01  0.69906099679E+00  0.28293685237E+01  0.51100000000E-03 0. -1.
        -11    1    4    4    0    0 -0.12937763557E+02  0.31016320755E+02 -0.25486602544E+01  0.33703019871E+02  0.51100000000E-03 0.  1.
         12    1    4    4    0    0 -0.90240029411E+01  0.66185208464E+01  0.11977908393E+01  0.11254872286E+02  0.00000000000E+00 0. -1.
</event>
<event>
 8    1  0.4798632E-010  0.9118800E+02  0.7816164E-02  0.1184000E+00
        -11   -1    0    0    0    0  0.00000000000E+00  0.00000000000E+00  0.45593999997E+02  0.45594000000E+02  0.51100000000E-03 0. -1.
         11   -1    0    0    0    0 -0.00000000000E+00 -0.00000000000E+00 -0.45593999997E+02  0.45594000000E+02  0.51100000000E-03 0.  1.
         23    2    1    2    0    0  0.00000000000E+00  0.88817841970E-15  0.00000000000E+00  0.91188000000E+02  0.91188000000E+02 0.  0.
    9900012    2    3    3    0    0 -0.47693568901E+01  0.22024234231E+00 -0.43137315434E+02  0.47787271266E+02  0.20000001010E+02 0.  0.
         12    1    3    3    0    0  0.47693568901E+01 -0.22024234231E+00  0.43137315434E+02  0.43400728734E+02  0.00000000000E+00 0. -1.
         11    1    4    4    0    0  0.32357518406E+01 -0.67989372321E+01 -0.19874627455E+02  0.21253151630E+02  0.51100000000E-03 0. -1.
        -11    1    4    4    0    0 -0.24956912576E+01  0.26273510357E+01 -0.16039350687E+02  0.16443607239E+02  0.51100000000E-03 0.  1.
         12    1    4    4    0    0 -0.55094174730E+01  0.43918285388E+01 -0.72233372916E+01  0.10090512397E+02  0.00000000000E+00 0. -1.
</event>
<event>
 8    1  0.4798632E-010  0.9118800E+02  0.7816164E-02  0.1184000E+00
        -11   -1    0    0    0    0  0.00000000000E+00  0.00000000000E+00  0.45593999997E+02  0.45594000000E+02  0.51100000000E-03 0. -1.
         11   -1    0    0    0    0 -0.00000000000E+00 -0.00000000000E+00 -0.45593999997E+02  0.45594000000E+02  0.51100000000E-03 0.  1.
         23    2    1    2    0    0 -0.16653345369E-15 -0.17763568394E-14  0.00000000000E+00  0.91188000000E+02  0.91188000000E+02 0.  0.
    9900012    2    3    3    0    0  0.48393806056E+00 -0.85806630904E+01 -0.42541285257E+02  0.47787275047E+02  0.20000018249E+02 0.  0.
         12    1    3    3    0    0 -0.48393806056E+00  0.85806630904E+01  0.42541285257E+02  0.43400724953E+02  0.00000000000E+00 0. -1.
         11    1    4    4    0    0 -0.50800459674E+00  0.47187400929E+01 -0.57606703213E+01  0.74639064535E+01  0.51100000000E-03 0. -1.
        -11    1    4    4    0    0 -0.27258069358E+01 -0.11332350885E+00 -0.46051241955E+01  0.53525727259E+01  0.51100000000E-03 0.  1.
         12    1    4    4    0    0  0.37177495931E+01 -0.13186079674E+02 -0.32175490740E+02  0.34970795868E+02  0.00000000000E+00 0. -1.
</event>
<event>
 8    1  0.4798632E-010  0.9118800E+02  0.7816164E-02  0.1184000E+00
        -11   -1    0    0    0    0  0.00000000000E+00  0.00000000000E+00  0.45593999997E+02  0.45594000000E+02  0.51100000000E-03 0. -1.
         11   -1    0    0    0    0 -0.00000000000E+00 -0.00000000000E+00 -0.45593999997E+02  0.45594000000E+02  0.51100000000E-03 0.  1.
         23    2    1    2    0    0  0.35527136788E-14  0.00000000000E+00  0.00000000000E+00  0.91188000000E+02  0.91188000000E+02 0.  0.
    9900012    2    3    3    0    0 -0.19627982092E+02 -0.14230056443E+01  0.38682562361E+02  0.47787271240E+02  0.20000000893E+02 0.  0.
        -12    1    3    3    0    0  0.19627982092E+02  0.14230056443E+01 -0.38682562361E+02  0.43400728760E+02  0.00000000000E+00 0.  1.
         11    1    4    4    0    0  0.29142361865E+01  0.16033917678E+01  0.10619711064E+02  0.11128427609E+02  0.51100000000E-03 0. -1.
        -11    1    4    4    0    0 -0.49288892992E+01 -0.16490970088E+01  0.30194463445E+01  0.60108674213E+01  0.51100000000E-03 0.  1.
         12    1    4    4    0    0 -0.17613328979E+02 -0.13773004034E+01  0.25043404953E+02  0.30647976210E+02  0.00000000000E+00 0. -1.
</event>
<event>
 8    1  0.4798632E-010  0.9118800E+02  0.7816164E-02  0.1184000E+00
        -11   -1    0    0    0    0  0.00000000000E+00  0.00000000000E+00  0.45593999997E+02  0.45594000000E+02  0.51100000000E-03 0. -1.
         11   -1    0    0    0    0 -0.00000000000E+00 -0.00000000000E+00 -0.45593999997E+02  0.45594000000E+02  0.51100000000E-03 0.  1.
         23    2    1    2    0    0  0.35527136788E-14  0.35527136788E-14  0.35527136788E-14  0.91188000000E+02  0.91188000000E+02 0.  0.
    9900012    2    3    3    0    0  0.30613745350E+02  0.15577605898E+02 -0.26528471694E+02  0.47787273966E+02  0.20000013319E+02 0.  0.
         12    1    3    3    0    0 -0.30613745350E+02 -0.15577605898E+02  0.26528471694E+02  0.43400726034E+02  0.00000000000E+00 0. -1.
         11    1    4    4    0    0 -0.24344358387E+01  0.31623659002E+01 -0.16250053195E+01  0.43090229158E+01  0.51100000000E-03 0. -1.
        -11    1    4    4    0    0  0.16991774199E+02  0.37917662098E+01 -0.11832376518E+02  0.21050012250E+02  0.51100000000E-03 0.  1.
         12    1    4    4    0    0  0.16056406990E+02  0.86234737882E+01 -0.13071089857E+02  0.22428238800E+02  0.00000000000E+00 0. -1.
</event>
<event>
 8    1  0.4798632E-010  0.9118800E+02  0.7816164E-02  0.1184000E+00
        -11   -1    0    0    0    0  0.00000000000E+00  0.00000000000E+00  0.45593999997E+02  0.45594000000E+02  0.51100000000E-03 0. -1.
         11   -1    0    0    0    0 -0.00000000000E+00 -0.00000000000E+00 -0.45593999997E+02  0.45594000000E+02  0.51100000000E-03 0.  1.
         23    2    1    2    0    0  0.00000000000E+00  0.00000000000E+00  0.00000000000E+00  0.91188000000E+02  0.91188000000E+02 0.  0.
    9900012    2    3    3    0    0 -0.50768959352E+01  0.14327839656E+02 -0.40651705915E+02  0.47787273562E+02  0.20000011480E+02 0.  0.
         12    1    3    3    0    0  0.50768959352E+01 -0.14327839656E+02  0.40651705915E+02  0.43400726438E+02  0.00000000000E+00 0. -1.
         11    1    4    4    0    0 -0.10287532598E+02  0.75212373824E+01 -0.23973486034E+02  0.27150144965E+02  0.51100000000E-03 0. -1.
        -11    1    4    4    0    0  0.14777483829E+01  0.47628161639E+01 -0.15409431656E+02  0.16196257046E+02  0.51100000000E-03 0.  1.
         12    1    4    4    0    0  0.37328882803E+01  0.20437861100E+01 -0.12687882253E+01  0.44408715515E+01  0.00000000000E+00 0. -1.
</event>
<event>
 8    1  0.4798632E-010  0.9118800E+02  0.7816164E-02  0.1184000E+00
        -11   -1    0    0    0    0  0.00000000000E+00  0.00000000000E+00  0.45593999997E+02  0.45594000000E+02  0.51100000000E-03 0. -1.
         11   -1    0    0    0    0 -0.00000000000E+00 -0.00000000000E+00 -0.45593999997E+02  0.45594000000E+02  0.51100000000E-03 0.  1.
         23    2    1    2    0    0  0.88817841970E-15  0.88817841970E-15 -0.71054273576E-14  0.91188000000E+02  0.91188000000E+02 0.  0.
    9900012    2    3    3    0    0  0.53726188293E+01  0.74087683224E+01  0.42424848339E+02  0.47787278373E+02  0.20000033416E+02 0.  0.
        -12    1    3    3    0    0 -0.53726188293E+01 -0.74087683224E+01 -0.42424848339E+02  0.43400721627E+02  0.00000000000E+00 0.  1.
         11    1    4    4    0    0  0.99144391270E+01  0.40416046528E+01  0.36093415962E+02  0.37647912923E+02  0.51100000000E-03 0. -1.
        -11    1    4    4    0    0 -0.36246760621E+01  0.44271011412E+01  0.28620947572E+01  0.63975845231E+01  0.51100000000E-03 0.  1.
         12    1    4    4    0    0 -0.91714423560E+00 -0.10599374716E+01  0.34693376194E+01  0.37417809276E+01  0.00000000000E+00 0. -1.
</event>
<event>
 8    1  0.4798632E-010  0.9118800E+02  0.7816164E-02  0.1184000E+00
        -11   -1    0    0    0    0  0.00000000000E+00  0.00000000000E+00  0.45593999997E+02  0.45594000000E+02  0.51100000000E-03 0. -1.
         11   -1    0    0    0    0 -0.00000000000E+00 -0.00000000000E+00 -0.45593999997E+02  0.45594000000E+02  0.51100000000E-03 0.  1.
         23    2    1    2    0    0  0.00000000000E+00 -0.44408920985E-15  0.00000000000E+00  0.91188000000E+02  0.91188000000E+02 0.  0.
    9900012    2    3    3    0    0  0.89473043822E+01 -0.35181640901E+01 -0.42322469633E+02  0.47787272240E+02  0.20000005451E+02 0.  0.
         12    1    3    3    0    0 -0.89473043822E+01  0.35181640901E+01  0.42322469633E+02  0.43400727760E+02  0.00000000000E+00 0. -1.
         11    1    4    4    0    0  0.49653846659E+01  0.13504307626E-02 -0.83398164071E+01  0.97060591730E+01  0.51100000000E-03 0. -1.
        -11    1    4    4    0    0  0.84314428922E+01 -0.43169956571E+01 -0.31563416827E+02  0.32954134229E+02  0.51100000000E-03 0.  1.
        -12    1    4    4    0    0 -0.44495231759E+01  0.79748113620E+00 -0.24192363987E+01  0.51270788377E+01  0.00000000000E+00 0.  1.
</event>
<event>
 8    1  0.4798632E-010  0.9118800E+02  0.7816164E-02  0.1184000E+00
        -11   -1    0    0    0    0  0.00000000000E+00  0.00000000000E+00  0.45593999997E+02  0.45594000000E+02  0.51100000000E-03 0.  1.
         11   -1    0    0    0    0 -0.00000000000E+00 -0.00000000000E+00 -0.45593999997E+02  0.45594000000E+02  0.51100000000E-03 0. -1.
         23    2    1    2    0    0  0.35527136788E-14  0.00000000000E+00 -0.88817841970E-15  0.91188000000E+02  0.91188000000E+02 0.  0.
    9900012    2    3    3    0    0 -0.23606486201E+02  0.35690935531E+02  0.72467113233E+01  0.47787263891E+02  0.19999967384E+02 0.  0.
         12    1    3    3    0    0  0.23606486201E+02 -0.35690935531E+02 -0.72467113233E+01  0.43400736109E+02  0.00000000000E+00 0. -1.
         11    1    4    4    0    0 -0.34507213897E+01  0.15513871365E+02  0.24464931681E+01  0.16080205594E+02  0.51100000000E-03 0. -1.
        -11    1    4    4    0    0 -0.67443653044E+01  0.15885481045E+02  0.24487415965E+01  0.17430757501E+02  0.51100000000E-03 0.  1.
         12    1    4    4    0    0 -0.13411399507E+02  0.42915831198E+01  0.23514765587E+01  0.14276300796E+02  0.00000000000E+00 0. -1.
</event>
<event>
 8    1  0.4798632E-010  0.9118800E+02  0.7816164E-02  0.1184000E+00
        -11   -1    0    0    0    0  0.00000000000E+00  0.00000000000E+00  0.45593999997E+02  0.45594000000E+02  0.51100000000E-03 0. -1.
         11   -1    0    0    0    0 -0.00000000000E+00 -0.00000000000E+00 -0.45593999997E+02  0.45594000000E+02  0.51100000000E-03 0.  1.
         23    2    1    2    0    0  0.00000000000E+00 -0.17763568394E-14  0.00000000000E+00  0.91188000000E+02  0.91188000000E+02 0.  0.
    9900012    2    3    3    0    0  0.49337529209E+01 -0.11058859495E+02 -0.41677111591E+02  0.47787286621E+02  0.20000071020E+02 0.  0.
         12    1    3    3    0    0 -0.49337529209E+01  0.11058859495E+02  0.41677111591E+02  0.43400713379E+02  0.00000000000E+00 0. -1.
         11    1    4    4    0    0  0.80219339563E+00 -0.20604851659E+01 -0.28692822765E+02  0.28777894153E+02  0.51100000000E-03 0. -1.
        -11    1    4    4    0    0  0.70506526047E+01 -0.42128732807E+01 -0.86084584650E+01  0.11898132662E+02  0.51100000000E-03 0.  1.
         12    1    4    4    0    0 -0.29190930794E+01 -0.47855010481E+01 -0.43758303610E+01  0.71112598066E+01  0.00000000000E+00 0. -1.
</event>
<event>
 8    1  0.4798632E-010  0.9118800E+02  0.7816164E-02  0.1184000E+00
        -11   -1    0    0    0    0  0.00000000000E+00  0.00000000000E+00  0.45593999997E+02  0.45594000000E+02  0.51100000000E-03 0.  1.
         11   -1    0    0    0    0 -0.00000000000E+00 -0.00000000000E+00 -0.45593999997E+02  0.45594000000E+02  0.51100000000E-03 0. -1.
         23    2    1    2    0    0  0.00000000000E+00 -0.35527136788E-14  0.17763568394E-14  0.91188000000E+02  0.91188000000E+02 0.  0.
    9900012    2    3    3    0    0  0.30532623786E+02  0.26578375389E+02 -0.15651558946E+02  0.47787280524E+02  0.20000043222E+02 0.  0.
         12    1    3    3    0    0 -0.30532623786E+02 -0.26578375389E+02  0.15651558946E+02  0.43400719476E+02  0.00000000000E+00 0. -1.
         11    1    4    4    0    0  0.16720304371E+02  0.22885897641E+02 -0.11733891641E+02  0.30676002061E+02  0.51100000000E-03 0. -1.
        -11    1    4    4    0    0  0.77606822313E+01  0.23958936448E+01  0.21940265533E+01  0.84132186368E+01  0.51100000000E-03 0.  1.
        -12    1    4    4    0    0  0.60516371832E+01  0.12965841028E+01 -0.61116938584E+01  0.86980598269E+01  0.00000000000E+00 0.  1.
</event>
<event>
 8    1  0.4798632E-010  0.9118800E+02  0.7816164E-02  0.1184000E+00
        -11   -1    0    0    0    0  0.00000000000E+00  0.00000000000E+00  0.45593999997E+02  0.45594000000E+02  0.51100000000E-03 0. -1.
         11   -1    0    0    0    0 -0.00000000000E+00 -0.00000000000E+00 -0.45593999997E+02  0.45594000000E+02  0.51100000000E-03 0.  1.
         23    2    1    2    0    0  0.88817841970E-15 -0.17763568394E-14 -0.71054273576E-14  0.91188000000E+02  0.91188000000E+02 0.  0.
    9900012    2    3    3    0    0  0.45219909013E+01 -0.11011257612E+02  0.41736400651E+02  0.47787270338E+02  0.19999996780E+02 0.  0.
        -12    1    3    3    0    0 -0.45219909013E+01  0.11011257612E+02 -0.41736400651E+02  0.43400729662E+02  0.00000000000E+00 0.  1.
         11    1    4    4    0    0 -0.54603864970E+01 -0.80305204644E+01  0.15335253331E+02  0.18151448279E+02  0.51100000000E-03 0. -1.
        -11    1    4    4    0    0  0.89199515533E+01  0.91056915318E+00  0.14284652556E+02  0.16865526105E+02  0.51100000000E-03 0.  1.
        -12    1    4    4    0    0  0.10624258449E+01 -0.38913063005E+01  0.12116494764E+02  0.12770295954E+02  0.00000000000E+00 0.  1.
</event>
<event>
 8    1  0.4798632E-010  0.9118800E+02  0.7816164E-02  0.1184000E+00
        -11   -1    0    0    0    0  0.00000000000E+00  0.00000000000E+00  0.45593999997E+02  0.45594000000E+02  0.51100000000E-03 0. -1.
         11   -1    0    0    0    0 -0.00000000000E+00 -0.00000000000E+00 -0.45593999997E+02  0.45594000000E+02  0.51100000000E-03 0.  1.
         23    2    1    2    0    0  0.17763568394E-14  0.17763568394E-14 -0.71054273576E-14  0.91188000000E+02  0.91188000000E+02 0.  0.
    9900012    2    3    3    0    0 -0.94759727706E+01  0.13146805000E+02  0.40261528947E+02  0.47787271265E+02  0.20000001004E+02 0.  0.
        -12    1    3    3    0    0  0.94759727706E+01 -0.13146805000E+02 -0.40261528947E+02  0.43400728735E+02  0.00000000000E+00 0.  1.
         11    1    4    4    0    0 -0.60362857002E+01  0.12172825114E+02  0.28781032198E+02  0.31827067583E+02  0.51100000000E-03 0. -1.
        -11    1    4    4    0    0  0.37184367340E+01  0.10559813198E+01  0.32328741005E+01  0.50391808365E+01  0.51100000000E-03 0.  1.
        -12    1    4    4    0    0 -0.71581238044E+01 -0.82001434103E-01  0.82476226478E+01  0.10921022845E+02  0.00000000000E+00 0.  1.
</event>
<event>
 8    1  0.4798632E-010  0.9118800E+02  0.7816164E-02  0.1184000E+00
        -11   -1    0    0    0    0  0.00000000000E+00  0.00000000000E+00  0.45593999997E+02  0.45594000000E+02  0.51100000000E-03 0. -1.
         11   -1    0    0    0    0 -0.00000000000E+00 -0.00000000000E+00 -0.45593999997E+02  0.45594000000E+02  0.51100000000E-03 0.  1.
         23    2    1    2    0    0  0.17763568394E-14  0.00000000000E+00  0.00000000000E+00  0.91188000000E+02  0.91188000000E+02 0.  0.
    9900012    2    3    3    0    0  0.70239321210E+01 -0.36755347647E+02  0.21984818270E+02  0.47787269160E+02  0.19999991409E+02 0.  0.
        -12    1    3    3    0    0 -0.70239321210E+01  0.36755347647E+02 -0.21984818270E+02  0.43400730840E+02  0.00000000000E+00 0.  1.
         11    1    4    4    0    0 -0.54281565370E+01 -0.16280667027E+02  0.11450014521E+02  0.20630749745E+02  0.51100000000E-03 0. -1.
        -11    1    4    4    0    0  0.10066501771E+02 -0.16617320024E+02  0.11418809565E+02  0.22535727076E+02  0.51100000000E-03 0.  1.
         12    1    4    4    0    0  0.23855868866E+01 -0.38573605958E+01 -0.88400581688E+00  0.46207923394E+01  0.00000000000E+00 0. -1.
</event>
<event>
 8    1  0.4798632E-010  0.9118800E+02  0.7816164E-02  0.1184000E+00
        -11   -1    0    0    0    0  0.00000000000E+00  0.00000000000E+00  0.45593999997E+02  0.45594000000E+02  0.51100000000E-03 0. -1.
         11   -1    0    0    0    0 -0.00000000000E+00 -0.00000000000E+00 -0.45593999997E+02  0.45594000000E+02  0.51100000000E-03 0.  1.
         23    2    1    2    0    0  0.00000000000E+00  0.88817841970E-15  0.00000000000E+00  0.91188000000E+02  0.91188000000E+02 0.  0.
    9900012    2    3    3    0    0 -0.28328304028E+00  0.52676404824E+01  0.43078944704E+02  0.47787265417E+02  0.19999974341E+02 0.  0.
        -12    1    3    3    0    0  0.28328304028E+00 -0.52676404824E+01 -0.43078944704E+02  0.43400734583E+02  0.00000000000E+00 0.  1.
         11    1    4    4    0    0 -0.35947720790E+01 -0.22504927293E-01  0.12154475386E+02  0.12674942403E+02  0.51100000000E-03 0. -1.
        -11    1    4    4    0    0  0.13900159382E+01  0.68625125244E+01  0.31736784710E+02  0.32499995791E+02  0.51100000000E-03 0.  1.
        -12    1    4    4    0    0  0.19214731005E+01 -0.15723671147E+01 -0.81231539101E+00  0.26123272218E+01  0.00000000000E+00 0.  1.
</event>
<event>
 8    1  0.4798632E-010  0.9118800E+02  0.7816164E-02  0.1184000E+00
        -11   -1    0    0    0    0  0.00000000000E+00  0.00000000000E+00  0.45593999997E+02  0.45594000000E+02  0.51100000000E-03 0.  1.
         11   -1    0    0    0    0 -0.00000000000E+00 -0.00000000000E+00 -0.45593999997E+02  0.45594000000E+02  0.51100000000E-03 0. -1.
         23    2    1    2    0    0 -0.71054273576E-14  0.00000000000E+00  0.44408920985E-15  0.91188000000E+02  0.91188000000E+02 0.  0.
    9900012    2    3    3    0    0  0.40763004537E+02  0.14518449166E+02 -0.33489261571E+01  0.47787271763E+02  0.20000003276E+02 0.  0.
         12    1    3    3    0    0 -0.40763004537E+02 -0.14518449166E+02  0.33489261571E+01  0.43400728237E+02  0.00000000000E+00 0. -1.
         11    1    4    4    0    0  0.34341776837E+02  0.11794591460E+02  0.28694326226E+01  0.36423943606E+02  0.51100000000E-03 0. -1.
        -11    1    4    4    0    0  0.76896235326E+01  0.16916055317E+01 -0.52373003177E+01  0.94562759174E+01  0.51100000000E-03 0.  1.
         12    1    4    4    0    0 -0.12683958319E+01  0.10322521740E+01 -0.98105846199E+00  0.19070522391E+01  0.00000000000E+00 0. -1.
</event>
<event>
 8    1  0.7200969E-010  0.9118800E+02  0.7816164E-02  0.1184000E+00
        -11   -1    0    0    0    0  0.00000000000E+00  0.00000000000E+00  0.45593999997E+02  0.45594000000E+02  0.51100000000E-03 0. -1.
         11   -1    0    0    0    0 -0.00000000000E+00 -0.00000000000E+00 -0.45593999997E+02  0.45594000000E+02  0.51100000000E-03 0.  1.
         23    2    1    2    0    0 -0.17763568394E-14  0.00000000000E+00  0.00000000000E+00  0.91188000000E+02  0.91188000000E+02 0.  0.
    9900012    2    3    3    0    0  0.15853821640E+02  0.73420787101E+01 -0.39728750716E+02  0.47787269432E+02  0.19999992648E+02 0.  0.
         12    1    3    3    0    0 -0.15853821640E+02 -0.73420787101E+01  0.39728750716E+02  0.43400730568E+02  0.00000000000E+00 0. -1.
         11    1    4    4    0    0  0.32629714694E+01  0.38355582624E-01 -0.11335767030E+01  0.34544826478E+01  0.51100000000E-03 0. -1.
        -11    1    4    4    0    0  0.46752554111E+00  0.61994525792E+01 -0.33877153794E+01  0.70801418182E+01  0.51100000000E-03 0.  1.
        -12    1    4    4    0    0  0.12123324629E+02  0.11042705483E+01 -0.35207458634E+02  0.37252644966E+02  0.00000000000E+00 0.  1.
</event>
<event>
 8    1  0.4798632E-010  0.9118800E+02  0.7816164E-02  0.1184000E+00
        -11   -1    0    0    0    0  0.00000000000E+00  0.00000000000E+00  0.45593999997E+02  0.45594000000E+02  0.51100000000E-03 0. -1.
         11   -1    0    0    0    0 -0.00000000000E+00 -0.00000000000E+00 -0.45593999997E+02  0.45594000000E+02  0.51100000000E-03 0.  1.
         23    2    1    2    0    0  0.35527136788E-14  0.71054273576E-14  0.00000000000E+00  0.91188000000E+02  0.91188000000E+02 0.  0.
    9900012    2    3    3    0    0  0.19347641491E+02  0.34872417126E+02 -0.17123280034E+02  0.47787269285E+02  0.19999991977E+02 0.  0.
         12    1    3    3    0    0 -0.19347641491E+02 -0.34872417126E+02  0.17123280034E+02  0.43400730715E+02  0.00000000000E+00 0. -1.
         11    1    4    4    0    0  0.47919659074E+01 -0.77150870807E+00 -0.53717089876E+01  0.72397113653E+01  0.51100000000E-03 0. -1.
        -11    1    4    4    0    0  0.12298067166E+02  0.26710158564E+02 -0.10617165722E+02  0.31263384890E+02  0.51100000000E-03 0.  1.
         12    1    4    4    0    0  0.22576084182E+01  0.89337672701E+01 -0.11344053246E+01  0.92841730298E+01  0.00000000000E+00 0. -1.
</event>
<event>
 8    1  0.4798632E-010  0.9118800E+02  0.7816164E-02  0.1184000E+00
        -11   -1    0    0    0    0  0.00000000000E+00  0.00000000000E+00  0.45593999997E+02  0.45594000000E+02  0.51100000000E-03 0. -1.
         11   -1    0    0    0    0 -0.00000000000E+00 -0.00000000000E+00 -0.45593999997E+02  0.45594000000E+02  0.51100000000E-03 0.  1.
         23    2    1    2    0    0  0.17763568394E-14 -0.66613381478E-15 -0.71054273576E-14  0.91188000000E+02  0.91188000000E+02 0.  0.
    9900012    2    3    3    0    0  0.11068302058E+02 -0.16386278219E+01 -0.41933650980E+02  0.47787268484E+02  0.19999988327E+02 0.  0.
         12    1    3    3    0    0 -0.11068302058E+02  0.16386278219E+01  0.41933650980E+02  0.43400731516E+02  0.00000000000E+00 0. -1.
         11    1    4    4    0    0  0.90213697326E+01 -0.57568855644E+01 -0.20485410344E+02  0.23112310150E+02  0.51100000000E-03 0. -1.
        -11    1    4    4    0    0  0.72193606190E+00  0.69594994155E+01 -0.70250775023E+01  0.99150157825E+01  0.51100000000E-03 0.  1.
        -12    1    4    4    0    0  0.13249962636E+01 -0.28412416730E+01 -0.14423163133E+02  0.14759942551E+02  0.00000000000E+00 0.  1.
</event>
<event>
 8    1  0.4798632E-010  0.9118800E+02  0.7816164E-02  0.1184000E+00
        -11   -1    0    0    0    0  0.00000000000E+00  0.00000000000E+00  0.45593999997E+02  0.45594000000E+02  0.51100000000E-03 0. -1.
         11   -1    0    0    0    0 -0.00000000000E+00 -0.00000000000E+00 -0.45593999997E+02  0.45594000000E+02  0.51100000000E-03 0.  1.
         23    2    1    2    0    0 -0.35527136788E-14 -0.17763568394E-14 -0.71054273576E-14  0.91188000000E+02  0.91188000000E+02 0.  0.
    9900012    2    3    3    0    0  0.21048751925E+02 -0.12409113563E+02 -0.35869030553E+02  0.47787269478E+02  0.19999992858E+02 0.  0.
         12    1    3    3    0    0 -0.21048751925E+02  0.12409113563E+02  0.35869030553E+02  0.43400730522E+02  0.00000000000E+00 0. -1.
         11    1    4    4    0    0  0.16601256420E+02 -0.89166654611E+01 -0.20134699746E+02  0.27577432291E+02  0.51100000000E-03 0. -1.
        -11    1    4    4    0    0 -0.32072970830E+01  0.15028558258E+01 -0.45052121547E+01  0.57308173093E+01  0.51100000000E-03 0.  1.
        -12    1    4    4    0    0  0.76547925880E+01 -0.49953039281E+01 -0.11229118653E+02  0.14479019878E+02  0.00000000000E+00 0.  1.
</event>
<event>
 8    1  0.4798632E-010  0.9118800E+02  0.7816164E-02  0.1184000E+00
        -11   -1    0    0    0    0  0.00000000000E+00  0.00000000000E+00  0.45593999997E+02  0.45594000000E+02  0.51100000000E-03 0.  1.
         11   -1    0    0    0    0 -0.00000000000E+00 -0.00000000000E+00 -0.45593999997E+02  0.45594000000E+02  0.51100000000E-03 0. -1.
         23    2    1    2    0    0  0.00000000000E+00  0.17763568394E-14  0.35527136788E-14  0.91188000000E+02  0.91188000000E+02 0.  0.
    9900012    2    3    3    0    0  0.38284468149E+02 -0.11049651597E+02 -0.17199640763E+02  0.47787274842E+02  0.20000017314E+02 0.  0.
         12    1    3    3    0    0 -0.38284468149E+02  0.11049651597E+02  0.17199640763E+02  0.43400725158E+02  0.00000000000E+00 0. -1.
         11    1    4    4    0    0 -0.47892741230E-01 -0.17375482704E+01 -0.12576009185E+01  0.21454435527E+01  0.51100000000E-03 0. -1.
        -11    1    4    4    0    0  0.80617192024E+01 -0.95343112496E+01 -0.51036807429E+01  0.13488586467E+02  0.51100000000E-03 0.  1.
        -12    1    4    4    0    0  0.30270641688E+02  0.22220792324E+00 -0.10838359102E+02  0.32153244822E+02  0.00000000000E+00 0.  1.
</event>
<event>
 8    1  0.4798632E-010  0.9118800E+02  0.7816164E-02  0.1184000E+00
        -11   -1    0    0    0    0  0.00000000000E+00  0.00000000000E+00  0.45593999997E+02  0.45594000000E+02  0.51100000000E-03 0. -1.
         11   -1    0    0    0    0 -0.00000000000E+00 -0.00000000000E+00 -0.45593999997E+02  0.45594000000E+02  0.51100000000E-03 0.  1.
         23    2    1    2    0    0  0.00000000000E+00  0.00000000000E+00  0.00000000000E+00  0.91188000000E+02  0.91188000000E+02 0.  0.
    9900012    2    3    3    0    0  0.29964473481E+02  0.21037316111E+01 -0.31326144981E+02  0.47787277459E+02  0.20000029248E+02 0.  0.
         12    1    3    3    0    0 -0.29964473481E+02 -0.21037316111E+01  0.31326144981E+02  0.43400722541E+02  0.00000000000E+00 0. -1.
         11    1    4    4    0    0  0.10049447816E+02  0.17102660109E+01 -0.75067070243E-01  0.10194216329E+02  0.51100000000E-03 0. -1.
        -11    1    4    4    0    0  0.18584204170E+02  0.62123897514E+00 -0.24769523599E+02  0.30972372885E+02  0.51100000000E-03 0.  1.
        -12    1    4    4    0    0  0.13308214952E+01 -0.22777337492E+00 -0.64815543110E+01  0.66206882458E+01  0.00000000000E+00 0.  1.
</event>
<event>
 8    1  0.4798632E-010  0.9118800E+02  0.7816164E-02  0.1184000E+00
        -11   -1    0    0    0    0  0.00000000000E+00  0.00000000000E+00  0.45593999997E+02  0.45594000000E+02  0.51100000000E-03 0. -1.
         11   -1    0    0    0    0 -0.00000000000E+00 -0.00000000000E+00 -0.45593999997E+02  0.45594000000E+02  0.51100000000E-03 0.  1.
         23    2    1    2    0    0  0.35527136788E-14 -0.88817841970E-15  0.00000000000E+00  0.91188000000E+02  0.91188000000E+02 0.  0.
    9900012    2    3    3    0    0 -0.28444746885E+02  0.66877007017E+01  0.32090412978E+02  0.47787267620E+02  0.19999984388E+02 0.  0.
        -12    1    3    3    0    0  0.28444746885E+02 -0.66877007017E+01 -0.32090412978E+02  0.43400732380E+02  0.00000000000E+00 0.  1.
         11    1    4    4    0    0 -0.70880912290E+01 -0.42666184600E+01  0.34624299806E+01  0.89684721098E+01  0.51100000000E-03 0. -1.
        -11    1    4    4    0    0 -0.10385011402E+02  0.10746258794E+02  0.19347640496E+02  0.24447121158E+02  0.51100000000E-03 0.  1.
        -12    1    4    4    0    0 -0.10971644254E+02  0.20806036732E+00  0.92803425013E+01  0.14371674352E+02  0.00000000000E+00 0.  1.
</event>
<event>
 8    1  0.4798632E-010  0.9118800E+02  0.7816164E-02  0.1184000E+00
        -11   -1    0    0    0    0  0.00000000000E+00  0.00000000000E+00  0.45593999997E+02  0.45594000000E+02  0.51100000000E-03 0. -1.
         11   -1    0    0    0    0 -0.00000000000E+00 -0.00000000000E+00 -0.45593999997E+02  0.45594000000E+02  0.51100000000E-03 0.  1.
         23    2    1    2    0    0 -0.71054273576E-14  0.17763568394E-14 -0.35527136788E-14  0.91188000000E+02  0.91188000000E+02 0.  0.
    9900012    2    3    3    0    0  0.33820504525E+02  0.13482275036E+02 -0.23622549643E+02  0.47787272839E+02  0.20000008183E+02 0.  0.
         12    1    3    3    0    0 -0.33820504525E+02 -0.13482275036E+02  0.23622549643E+02  0.43400727161E+02  0.00000000000E+00 0. -1.
         11    1    4    4    0    0  0.16100897519E+02  0.78370954230E+01 -0.42033542575E+01  0.18393671544E+02  0.51100000000E-03 0. -1.
        -11    1    4    4    0    0  0.14389046768E+02 -0.10247965670E+01 -0.14550826857E+02  0.20489544587E+02  0.51100000000E-03 0.  1.
        -12    1    4    4    0    0  0.33305602374E+01  0.66699761800E+01 -0.48683685284E+01  0.89040567083E+01  0.00000000000E+00 0.  1.
</event>
<event>
 8    1  0.4798632E-010  0.9118800E+02  0.7816164E-02  0.1184000E+00
        -11   -1    0    0    0    0  0.00000000000E+00  0.00000000000E+00  0.45593999997E+02  0.45594000000E+02  0.51100000000E-03 0. -1.
         11   -1    0    0    0    0 -0.00000000000E+00 -0.00000000000E+00 -0.45593999997E+02  0.45594000000E+02  0.51100000000E-03 0.  1.
         23    2    1    2    0    0  0.00000000000E+00 -0.24980018054E-15  0.00000000000E+00  0.91188000000E+02  0.91188000000E+02 0.  0.
    9900012    2    3    3    0    0 -0.41874488198E+02  0.21429974477E+00  0.11406345496E+02  0.47787269548E+02  0.19999993175E+02 0.  0.
        -12    1    3    3    0    0  0.41874488198E+02 -0.21429974477E+00 -0.11406345496E+02  0.43400730452E+02  0.00000000000E+00 0.  1.
         11    1    4    4    0    0 -0.86866334419E+01  0.45107938655E+01  0.87371862436E+01  0.13120338622E+02  0.51100000000E-03 0. -1.
        -11    1    4    4    0    0 -0.10869471704E+02 -0.53727997038E+00 -0.30899976839E+01  0.11312920526E+02  0.51100000000E-03 0.  1.
         12    1    4    4    0    0 -0.22318383052E+02 -0.37592141503E+01  0.57591569367E+01  0.23354010399E+02  0.00000000000E+00 0. -1.
</event>
<event>
 8    1  0.4798632E-010  0.9118800E+02  0.7816164E-02  0.1184000E+00
        -11   -1    0    0    0    0  0.00000000000E+00  0.00000000000E+00  0.45593999997E+02  0.45594000000E+02  0.51100000000E-03 0.  1.
         11   -1    0    0    0    0 -0.00000000000E+00 -0.00000000000E+00 -0.45593999997E+02  0.45594000000E+02  0.51100000000E-03 0. -1.
         23    2    1    2    0    0  0.00000000000E+00  0.00000000000E+00  0.35527136788E-14  0.91188000000E+02  0.91188000000E+02 0.  0.
    9900012    2    3    3    0    0 -0.99443582266E+01 -0.36174713280E+02 -0.21820249525E+02  0.47787269237E+02  0.19999991758E+02 0.  0.
         12    1    3    3    0    0  0.99443582266E+01  0.36174713280E+02  0.21820249525E+02  0.43400730763E+02  0.00000000000E+00 0. -1.
         11    1    4    4    0    0  0.21487316147E+01  0.15284270044E+01 -0.82583461832E+00  0.27631756617E+01  0.51100000000E-03 0. -1.
        -11    1    4    4    0    0 -0.90612255720E+01 -0.24255808881E+02 -0.15546530904E+02  0.30201733340E+02  0.51100000000E-03 0.  1.
         12    1    4    4    0    0 -0.30318642693E+01 -0.13447331404E+02 -0.54478840032E+01  0.14822360235E+02  0.00000000000E+00 0. -1.
</event>
<event>
 8    1  0.4798632E-010  0.9118800E+02  0.7816164E-02  0.1184000E+00
        -11   -1    0    0    0    0  0.00000000000E+00  0.00000000000E+00  0.45593999997E+02  0.45594000000E+02  0.51100000000E-03 0. -1.
         11   -1    0    0    0    0 -0.00000000000E+00 -0.00000000000E+00 -0.45593999997E+02  0.45594000000E+02  0.51100000000E-03 0.  1.
         23    2    1    2    0    0  0.00000000000E+00  0.00000000000E+00  0.00000000000E+00  0.91188000000E+02  0.91188000000E+02 0.  0.
    9900012    2    3    3    0    0 -0.42174768576E+02 -0.71626315775E+01  0.73217789836E+01  0.47787276008E+02  0.20000022630E+02 0.  0.
        -12    1    3    3    0    0  0.42174768576E+02  0.71626315775E+01 -0.73217789836E+01  0.43400723992E+02  0.00000000000E+00 0.  1.
         11    1    4    4    0    0 -0.11657532659E+02 -0.54749901195E+01  0.97512982389E+01  0.16154299803E+02  0.51100000000E-03 0. -1.
        -11    1    4    4    0    0 -0.19118416526E+02 -0.17198310618E+01 -0.52295992194E+01  0.19895235048E+02  0.51100000000E-03 0.  1.
         12    1    4    4    0    0 -0.11398819391E+02  0.32189603763E-01  0.28000799642E+01  0.11737741157E+02  0.00000000000E+00 0. -1.
</event>
<event>
 8    1  0.4798632E-010  0.9118800E+02  0.7816164E-02  0.1184000E+00
        -11   -1    0    0    0    0  0.00000000000E+00  0.00000000000E+00  0.45593999997E+02  0.45594000000E+02  0.51100000000E-03 0. -1.
         11   -1    0    0    0    0 -0.00000000000E+00 -0.00000000000E+00 -0.45593999997E+02  0.45594000000E+02  0.51100000000E-03 0.  1.
         23    2    1    2    0    0  0.00000000000E+00  0.35527136788E-14  0.00000000000E+00  0.91188000000E+02  0.91188000000E+02 0.  0.
    9900012    2    3    3    0    0  0.33926449605E+01  0.27336028020E+02 -0.33538863160E+02  0.47787264871E+02  0.19999971851E+02 0.  0.
         12    1    3    3    0    0 -0.33926449605E+01 -0.27336028020E+02  0.33538863160E+02  0.43400735129E+02  0.00000000000E+00 0. -1.
         11    1    4    4    0    0 -0.12918857868E-01  0.28343713921E+02 -0.28422839989E+02  0.40140056291E+02  0.51100000000E-03 0. -1.
        -11    1    4    4    0    0  0.34378251080E+01 -0.11365867060E+01 -0.58616660899E+01  0.68898186060E+01  0.51100000000E-03 0.  1.
         12    1    4    4    0    0 -0.32261289595E-01  0.12890080459E+00  0.74564291950E+00  0.75738997329E+00  0.00000000000E+00 0. -1.
</event>
<event>
 8    1  0.4798632E-010  0.9118800E+02  0.7816164E-02  0.1184000E+00
        -11   -1    0    0    0    0  0.00000000000E+00  0.00000000000E+00  0.45593999997E+02  0.45594000000E+02  0.51100000000E-03 0. -1.
         11   -1    0    0    0    0 -0.00000000000E+00 -0.00000000000E+00 -0.45593999997E+02  0.45594000000E+02  0.51100000000E-03 0.  1.
         23    2    1    2    0    0  0.88817841970E-15 -0.44408920985E-15  0.00000000000E+00  0.91188000000E+02  0.91188000000E+02 0.  0.
    9900012    2    3    3    0    0 -0.73102026835E+01  0.15332204332E+01  0.42753157102E+02  0.47787282605E+02  0.20000052711E+02 0.  0.
        -12    1    3    3    0    0  0.73102026835E+01 -0.15332204332E+01 -0.42753157102E+02  0.43400717395E+02  0.00000000000E+00 0.  1.
         11    1    4    4    0    0 -0.21926144054E+01  0.59619614229E+00  0.19545593702E+01  0.29972171032E+01  0.51100000000E-03 0.  1.
        -11    1    4    4    0    0 -0.97428966176E+01  0.52657266612E+01  0.18057788600E+02  0.21183381249E+02  0.51100000000E-03 0. -1.
        -12    1    4    4    0    0  0.46253083395E+01 -0.43287023702E+01  0.22740809132E+02  0.23606684253E+02  0.00000000000E+00 0.  1.
</event>
<event>
 8    1  0.4798632E-010  0.9118800E+02  0.7816164E-02  0.1184000E+00
        -11   -1    0    0    0    0  0.00000000000E+00  0.00000000000E+00  0.45593999997E+02  0.45594000000E+02  0.51100000000E-03 0. -1.
         11   -1    0    0    0    0 -0.00000000000E+00 -0.00000000000E+00 -0.45593999997E+02  0.45594000000E+02  0.51100000000E-03 0.  1.
         23    2    1    2    0    0  0.00000000000E+00 -0.17763568394E-14  0.00000000000E+00  0.91188000000E+02  0.91188000000E+02 0.  0.
    9900012    2    3    3    0    0  0.22908384767E+02 -0.14352810331E+02 -0.33953300721E+02  0.47787263982E+02  0.19999967800E+02 0.  0.
         12    1    3    3    0    0 -0.22908384767E+02  0.14352810331E+02  0.33953300721E+02  0.43400736018E+02  0.00000000000E+00 0. -1.
         11    1    4    4    0    0  0.25698308079E+01 -0.17499179992E+00 -0.26417916834E+01  0.36896769602E+01  0.51100000000E-03 0. -1.
        -11    1    4    4    0    0  0.22437480421E+02 -0.15711901185E+02 -0.24289970531E+02  0.36610203976E+02  0.51100000000E-03 0.  1.
        -12    1    4    4    0    0 -0.20989264622E+01  0.15340826532E+01 -0.70215385068E+01  0.74873830463E+01  0.00000000000E+00 0.  1.
</event>
<event>
 8    1  0.4798632E-010  0.9118800E+02  0.7816164E-02  0.1184000E+00
        -11   -1    0    0    0    0  0.00000000000E+00  0.00000000000E+00  0.45593999997E+02  0.45594000000E+02  0.51100000000E-03 0. -1.
         11   -1    0    0    0    0 -0.00000000000E+00 -0.00000000000E+00 -0.45593999997E+02  0.45594000000E+02  0.51100000000E-03 0.  1.
         23    2    1    2    0    0 -0.88817841970E-15  0.00000000000E+00  0.00000000000E+00  0.91188000000E+02  0.91188000000E+02 0.  0.
    9900012    2    3    3    0    0  0.55207847779E+01  0.40716070785E+02  0.13976623044E+02  0.47787268711E+02  0.19999989359E+02 0.  0.
        -12    1    3    3    0    0 -0.55207847779E+01 -0.40716070785E+02 -0.13976623044E+02  0.43400731289E+02  0.00000000000E+00 0.  1.
         11    1    4    4    0    0 -0.57227764365E+01  0.82625833883E+01  0.39060092901E+01  0.10783198191E+02  0.51100000000E-03 0. -1.
        -11    1    4    4    0    0  0.96459937270E+01  0.13529423067E+02  0.46856813550E+01  0.17264011513E+02  0.51100000000E-03 0.  1.
        -12    1    4    4    0    0  0.15975674875E+01  0.18924064330E+02  0.53849323986E+01  0.19740059006E+02  0.00000000000E+00 0.  1.
</event>
<event>
 8    1  0.4798632E-010  0.9118800E+02  0.7816164E-02  0.1184000E+00
        -11   -1    0    0    0    0  0.00000000000E+00  0.00000000000E+00  0.45593999997E+02  0.45594000000E+02  0.51100000000E-03 0. -1.
         11   -1    0    0    0    0 -0.00000000000E+00 -0.00000000000E+00 -0.45593999997E+02  0.45594000000E+02  0.51100000000E-03 0.  1.
         23    2    1    2    0    0  0.35527136788E-14  0.00000000000E+00  0.00000000000E+00  0.91188000000E+02  0.91188000000E+02 0.  0.
    9900012    2    3    3    0    0  0.26460508615E+02 -0.28716527106E+02  0.18942707929E+02  0.47787266954E+02  0.19999981351E+02 0.  0.
        -12    1    3    3    0    0 -0.26460508615E+02  0.28716527106E+02 -0.18942707929E+02  0.43400733046E+02  0.00000000000E+00 0.  1.
         11    1    4    4    0    0  0.29782109971E+00 -0.55091344448E+01 -0.21597815549E+01  0.59248558095E+01  0.51100000000E-03 0. -1.
        -11    1    4    4    0    0  0.83588984169E+01 -0.64154351062E+01  0.17925678901E+01  0.10688418510E+02  0.51100000000E-03 0.  1.
         12    1    4    4    0    0  0.17803789098E+02 -0.16791957555E+02  0.19309921594E+02  0.31173992635E+02  0.00000000000E+00 0. -1.
</event>
<event>
 8    1  0.4798632E-010  0.9118800E+02  0.7816164E-02  0.1184000E+00
        -11   -1    0    0    0    0  0.00000000000E+00  0.00000000000E+00  0.45593999997E+02  0.45594000000E+02  0.51100000000E-03 0. -1.
         11   -1    0    0    0    0 -0.00000000000E+00 -0.00000000000E+00 -0.45593999997E+02  0.45594000000E+02  0.51100000000E-03 0.  1.
         23    2    1    2    0    0 -0.35527136788E-14  0.00000000000E+00  0.71054273576E-14  0.91188000000E+02  0.91188000000E+02 0.  0.
    9900012    2    3    3    0    0 -0.25186151856E+02 -0.58520166769E+01  0.34857352903E+02  0.47787269639E+02  0.19999993590E+02 0.  0.
        -12    1    3    3    0    0  0.25186151856E+02  0.58520166769E+01 -0.34857352903E+02  0.43400730361E+02  0.00000000000E+00 0.  1.
         11    1    4    4    0    0 -0.13078953821E+02  0.47253946331E+01  0.14283749440E+02  0.19935242306E+02  0.51100000000E-03 0. -1.
        -11    1    4    4    0    0 -0.13771636610E+02 -0.99308896912E+01  0.18346363661E+02  0.24997391960E+02  0.51100000000E-03 0.  1.
        -12    1    4    4    0    0  0.16644385745E+01 -0.64652161888E+00  0.22272398023E+01  0.28546353724E+01  0.00000000000E+00 0.  1.
</event>
<event>
 8    1  0.4798632E-010  0.9118800E+02  0.7816164E-02  0.1184000E+00
        -11   -1    0    0    0    0  0.00000000000E+00  0.00000000000E+00  0.45593999997E+02  0.45594000000E+02  0.51100000000E-03 0. -1.
         11   -1    0    0    0    0 -0.00000000000E+00 -0.00000000000E+00 -0.45593999997E+02  0.45594000000E+02  0.51100000000E-03 0.  1.
         23    2    1    2    0    0  0.00000000000E+00  0.00000000000E+00  0.00000000000E+00  0.91188000000E+02  0.91188000000E+02 0.  0.
    9900012    2    3    3    0    0 -0.34774261431E+02 -0.21215548475E+02  0.14975771446E+02  0.47787280126E+02  0.20000041407E+02 0.  0.
        -12    1    3    3    0    0  0.34774261431E+02  0.21215548475E+02 -0.14975771446E+02  0.43400719874E+02  0.00000000000E+00 0.  1.
         11    1    4    4    0    0 -0.19900029392E+02 -0.13930855000E+02  0.47167157898E+01  0.24745248008E+02  0.51100000000E-03 0. -1.
        -11    1    4    4    0    0 -0.14591897768E+01  0.91677260786E+00  0.67036426289E+01  0.69215989176E+01  0.51100000000E-03 0.  1.
        -12    1    4    4    0    0 -0.13415042262E+02 -0.82014660829E+01  0.35554130272E+01  0.16120433201E+02  0.00000000000E+00 0.  1.
</event>
<event>
 8    1  0.4798632E-010  0.9118800E+02  0.7816164E-02  0.1184000E+00
        -11   -1    0    0    0    0  0.00000000000E+00  0.00000000000E+00  0.45593999997E+02  0.45594000000E+02  0.51100000000E-03 0. -1.
         11   -1    0    0    0    0 -0.00000000000E+00 -0.00000000000E+00 -0.45593999997E+02  0.45594000000E+02  0.51100000000E-03 0.  1.
         23    2    1    2    0    0  0.00000000000E+00  0.00000000000E+00  0.00000000000E+00  0.91188000000E+02  0.91188000000E+02 0.  0.
    9900012    2    3    3    0    0 -0.19764830289E+02  0.98510453275E+01 -0.37362172309E+02  0.47787268093E+02  0.19999986545E+02 0.  0.
         12    1    3    3    0    0  0.19764830289E+02 -0.98510453275E+01  0.37362172309E+02  0.43400731907E+02  0.00000000000E+00 0. -1.
         11    1    4    4    0    0 -0.24451872472E+01 -0.29373539781E+01 -0.79949824431E+00  0.39046365734E+01  0.51100000000E-03 0. -1.
        -11    1    4    4    0    0 -0.18261912899E+02  0.13608128219E+02 -0.32905875998E+02  0.40018436898E+02  0.51100000000E-03 0.  1.
         12    1    4    4    0    0  0.94226985673E+00 -0.81972891356E+00 -0.36567980668E+01  0.38641946219E+01  0.00000000000E+00 0. -1.
</event>
<event>
 8    1  0.4798632E-010  0.9118800E+02  0.7816164E-02  0.1184000E+00
        -11   -1    0    0    0    0  0.00000000000E+00  0.00000000000E+00  0.45593999997E+02  0.45594000000E+02  0.51100000000E-03 0.  1.
         11   -1    0    0    0    0 -0.00000000000E+00 -0.00000000000E+00 -0.45593999997E+02  0.45594000000E+02  0.51100000000E-03 0. -1.
         23    2    1    2    0    0 -0.35527136788E-14  0.00000000000E+00  0.00000000000E+00  0.91188000000E+02  0.91188000000E+02 0.  0.
    9900012    2    3    3    0    0 -0.24596196226E+02 -0.33036511615E+02 -0.13683537054E+02  0.47787272416E+02  0.20000006254E+02 0.  0.
         12    1    3    3    0    0  0.24596196226E+02  0.33036511615E+02  0.13683537054E+02  0.43400727584E+02  0.00000000000E+00 0. -1.
         11    1    4    4    0    0  0.20072344519E+01 -0.81456347988E+01 -0.60725440469E+01  0.10356454407E+02  0.51100000000E-03 0. -1.
        -11    1    4    4    0    0 -0.21356183257E+02 -0.21916815507E+02 -0.59428897306E+01  0.31172925815E+02  0.51100000000E-03 0.  1.
         12    1    4    4    0    0 -0.52472474207E+01 -0.29740613093E+01 -0.16681032769E+01  0.62578921937E+01  0.00000000000E+00 0. -1.
</event>
<event>
 8    1  0.4798632E-010  0.9118800E+02  0.7816164E-02  0.1184000E+00
        -11   -1    0    0    0    0  0.00000000000E+00  0.00000000000E+00  0.45593999997E+02  0.45594000000E+02  0.51100000000E-03 0.  1.
         11   -1    0    0    0    0 -0.00000000000E+00 -0.00000000000E+00 -0.45593999997E+02  0.45594000000E+02  0.51100000000E-03 0. -1.
         23    2    1    2    0    0  0.00000000000E+00  0.00000000000E+00  0.35527136788E-14  0.91188000000E+02  0.91188000000E+02 0.  0.
    9900012    2    3    3    0    0  0.13461661864E+02 -0.33953807327E+02 -0.23442391576E+02  0.47787273105E+02  0.20000009397E+02 0.  0.
         12    1    3    3    0    0 -0.13461661864E+02  0.33953807327E+02  0.23442391576E+02  0.43400726895E+02  0.00000000000E+00 0. -1.
         11    1    4    4    0    0  0.78152144748E+01 -0.89814327151E+01 -0.17433219094E+02  0.21110680689E+02  0.51100000000E-03 0. -1.
        -11    1    4    4    0    0  0.12922113060E+01 -0.10058369377E+02 -0.36857670154E+00  0.10147731452E+02  0.51100000000E-03 0.  1.
         12    1    4    4    0    0  0.43542360834E+01 -0.14914005235E+02 -0.56405957812E+01  0.16528860965E+02  0.00000000000E+00 0. -1.
</event>
<event>
 8    1  0.4798632E-010  0.9118800E+02  0.7816164E-02  0.1184000E+00
        -11   -1    0    0    0    0  0.00000000000E+00  0.00000000000E+00  0.45593999997E+02  0.45594000000E+02  0.51100000000E-03 0. -1.
         11   -1    0    0    0    0 -0.00000000000E+00 -0.00000000000E+00 -0.45593999997E+02  0.45594000000E+02  0.51100000000E-03 0.  1.
         23    2    1    2    0    0  0.00000000000E+00  0.00000000000E+00  0.00000000000E+00  0.91188000000E+02  0.91188000000E+02 0.  0.
    9900012    2    3    3    0    0  0.50539934139E+01  0.29739307388E+02 -0.31203424979E+02  0.47787274387E+02  0.20000015240E+02 0.  0.
         12    1    3    3    0    0 -0.50539934139E+01 -0.29739307388E+02  0.31203424979E+02  0.43400725613E+02  0.00000000000E+00 0. -1.
         11    1    4    4    0    0  0.67698574833E+01  0.30434848687E+02 -0.24958512662E+02  0.39937931087E+02  0.51100000000E-03 0. -1.
        -11    1    4    4    0    0 -0.19975816359E+01  0.97910690320E+00 -0.56123573288E+01  0.60371796202E+01  0.51100000000E-03 0.  1.
         12    1    4    4    0    0  0.28171756650E+00 -0.16746482025E+01 -0.63255498764E+00  0.18121636796E+01  0.00000000000E+00 0. -1.
</event>
<event>
 8    1  0.4798632E-010  0.9118800E+02  0.7816164E-02  0.1184000E+00
        -11   -1    0    0    0    0  0.00000000000E+00  0.00000000000E+00  0.45593999997E+02  0.45594000000E+02  0.51100000000E-03 0. -1.
         11   -1    0    0    0    0 -0.00000000000E+00 -0.00000000000E+00 -0.45593999997E+02  0.45594000000E+02  0.51100000000E-03 0.  1.
         23    2    1    2    0    0  0.00000000000E+00  0.35527136788E-14 -0.71054273576E-14  0.91188000000E+02  0.91188000000E+02 0.  0.
    9900012    2    3    3    0    0  0.16423711020E+02  0.25154487406E+02 -0.31323097202E+02  0.47787274907E+02  0.20000017609E+02 0.  0.
         12    1    3    3    0    0 -0.16423711020E+02 -0.25154487406E+02  0.31323097202E+02  0.43400725093E+02  0.00000000000E+00 0. -1.
         11    1    4    4    0    0  0.13544352058E+02  0.24353666207E+02 -0.29572084317E+02  0.40633221648E+02  0.51100000000E-03 0.  1.
        -11    1    4    4    0    0  0.33738713519E+01 -0.18693345022E+01  0.11554807884E+00  0.38588561777E+01  0.51100000000E-03 0. -1.
         12    1    4    4    0    0 -0.49451238996E+00  0.26701557008E+01 -0.18665609639E+01  0.32951970810E+01  0.00000000000E+00 0. -1.
</event>
<event>
 8    1  0.4798632E-010  0.9118800E+02  0.7816164E-02  0.1184000E+00
        -11   -1    0    0    0    0  0.00000000000E+00  0.00000000000E+00  0.45593999997E+02  0.45594000000E+02  0.51100000000E-03 0. -1.
         11   -1    0    0    0    0 -0.00000000000E+00 -0.00000000000E+00 -0.45593999997E+02  0.45594000000E+02  0.51100000000E-03 0.  1.
         23    2    1    2    0    0 -0.71054273576E-14  0.88817841970E-15  0.35527136788E-14  0.91188000000E+02  0.91188000000E+02 0.  0.
    9900012    2    3    3    0    0  0.29421284577E+02 -0.57311146857E+01 -0.31387327930E+02  0.47787285532E+02  0.20000066055E+02 0.  0.
         12    1    3    3    0    0 -0.29421284577E+02  0.57311146857E+01  0.31387327930E+02  0.43400714468E+02  0.00000000000E+00 0. -1.
         11    1    4    4    0    0  0.18415648435E+02 -0.58046710201E+01 -0.13502707205E+02  0.23561693807E+02  0.51100000000E-03 0. -1.
        -11    1    4    4    0    0  0.23187134439E+01  0.22680137497E+01 -0.14152741172E+02  0.14519655690E+02  0.51100000000E-03 0.  1.
        -12    1    4    4    0    0  0.86869226988E+01 -0.21944574153E+01 -0.37318795533E+01  0.97059360353E+01  0.00000000000E+00 0.  1.
</event>
<event>
 8    1  0.4798632E-010  0.9118800E+02  0.7816164E-02  0.1184000E+00
        -11   -1    0    0    0    0  0.00000000000E+00  0.00000000000E+00  0.45593999997E+02  0.45594000000E+02  0.51100000000E-03 0.  1.
         11   -1    0    0    0    0 -0.00000000000E+00 -0.00000000000E+00 -0.45593999997E+02  0.45594000000E+02  0.51100000000E-03 0. -1.
         23    2    1    2    0    0  0.00000000000E+00  0.35527136788E-14  0.00000000000E+00  0.91188000000E+02  0.91188000000E+02 0.  0.
    9900012    2    3    3    0    0 -0.27738689078E+02  0.28540920071E+02  0.17309088679E+02  0.47787267966E+02  0.19999985963E+02 0.  0.
        -12    1    3    3    0    0  0.27738689078E+02 -0.28540920071E+02 -0.17309088679E+02  0.43400732034E+02  0.00000000000E+00 0.  1.
         11    1    4    4    0    0 -0.15737686953E+02  0.23865818320E+02  0.42321391828E+01  0.28899188172E+02  0.51100000000E-03 0. -1.
        -11    1    4    4    0    0 -0.12150369656E+02  0.49715443323E+01  0.12090774377E+02  0.17847536556E+02  0.51100000000E-03 0.  1.
        -12    1    4    4    0    0  0.14936753105E+00 -0.29644258147E+00  0.98617511889E+00  0.10405432372E+01  0.00000000000E+00 0.  1.
</event>
<event>
 8    1  0.4798632E-010  0.9118800E+02  0.7816164E-02  0.1184000E+00
        -11   -1    0    0    0    0  0.00000000000E+00  0.00000000000E+00  0.45593999997E+02  0.45594000000E+02  0.51100000000E-03 0. -1.
         11   -1    0    0    0    0 -0.00000000000E+00 -0.00000000000E+00 -0.45593999997E+02  0.45594000000E+02  0.51100000000E-03 0.  1.
         23    2    1    2    0    0  0.00000000000E+00  0.00000000000E+00  0.00000000000E+00  0.91188000000E+02  0.91188000000E+02 0.  0.
    9900012    2    3    3    0    0 -0.12915766326E+02 -0.81345441753E+01 -0.40628012317E+02  0.47787271739E+02  0.20000003166E+02 0.  0.
         12    1    3    3    0    0  0.12915766326E+02  0.81345441753E+01  0.40628012317E+02  0.43400728261E+02  0.00000000000E+00 0. -1.
         11    1    4    4    0    0 -0.12599361835E+02 -0.11286939833E+02 -0.19182261082E+02  0.25575341052E+02  0.51100000000E-03 0. -1.
        -11    1    4    4    0    0  0.69809366499E+00 -0.93756831994E+00 -0.89220634950E+01  0.89983101963E+01  0.51100000000E-03 0.  1.
         12    1    4    4    0    0 -0.10144981564E+01  0.40899639779E+01 -0.12523687740E+02  0.13213620491E+02  0.00000000000E+00 0. -1.
</event>
<event>
 8    1  0.4798632E-010  0.9118800E+02  0.7816164E-02  0.1184000E+00
        -11   -1    0    0    0    0  0.00000000000E+00  0.00000000000E+00  0.45593999997E+02  0.45594000000E+02  0.51100000000E-03 0. -1.
         11   -1    0    0    0    0 -0.00000000000E+00 -0.00000000000E+00 -0.45593999997E+02  0.45594000000E+02  0.51100000000E-03 0.  1.
         23    2    1    2    0    0  0.00000000000E+00  0.00000000000E+00  0.00000000000E+00  0.91188000000E+02  0.91188000000E+02 0.  0.
    9900012    2    3    3    0    0 -0.26620632348E+01  0.26231342707E+02  0.34473952625E+02  0.47787270392E+02  0.19999997027E+02 0.  0.
        -12    1    3    3    0    0  0.26620632348E+01 -0.26231342707E+02 -0.34473952625E+02  0.43400729608E+02  0.00000000000E+00 0.  1.
         11    1    4    4    0    0 -0.23030767454E+00  0.13541095805E+02  0.22787594492E+02  0.26508277579E+02  0.51100000000E-03 0. -1.
        -11    1    4    4    0    0 -0.98552651559E-01  0.12675235433E+02  0.40696210206E+01  0.13312893053E+02  0.51100000000E-03 0.  1.
        -12    1    4    4    0    0 -0.23332029087E+01  0.15011468508E-01  0.76167371123E+01  0.79660997605E+01  0.00000000000E+00 0.  1.
</event>
<event>
 8    1  0.4798632E-010  0.9118800E+02  0.7816164E-02  0.1184000E+00
        -11   -1    0    0    0    0  0.00000000000E+00  0.00000000000E+00  0.45593999997E+02  0.45594000000E+02  0.51100000000E-03 0. -1.
         11   -1    0    0    0    0 -0.00000000000E+00 -0.00000000000E+00 -0.45593999997E+02  0.45594000000E+02  0.51100000000E-03 0.  1.
         23    2    1    2    0    0  0.35527136788E-14  0.22204460493E-15 -0.71054273576E-14  0.91188000000E+02  0.91188000000E+02 0.  0.
    9900012    2    3    3    0    0  0.21499740302E+02  0.15856469825E+01 -0.37667897327E+02  0.47787267305E+02  0.19999982950E+02 0.  0.
         12    1    3    3    0    0 -0.21499740302E+02 -0.15856469825E+01  0.37667897327E+02  0.43400732695E+02  0.00000000000E+00 0. -1.
         11    1    4    4    0    0  0.77572038533E+01 -0.38913134828E+01 -0.16870703625E+01  0.88409693423E+01  0.51100000000E-03 0. -1.
        -11    1    4    4    0    0  0.10267584009E+02  0.45950836827E+01 -0.25553727294E+02  0.27920083351E+02  0.51100000000E-03 0.  1.
         12    1    4    4    0    0  0.34749524396E+01  0.88187678264E+00 -0.10427099671E+02  0.11026214612E+02  0.00000000000E+00 0. -1.
</event>
<event>
 8    1  0.4798632E-010  0.9118800E+02  0.7816164E-02  0.1184000E+00
        -11   -1    0    0    0    0  0.00000000000E+00  0.00000000000E+00  0.45593999997E+02  0.45594000000E+02  0.51100000000E-03 0. -1.
         11   -1    0    0    0    0 -0.00000000000E+00 -0.00000000000E+00 -0.45593999997E+02  0.45594000000E+02  0.51100000000E-03 0.  1.
         23    2    1    2    0    0  0.00000000000E+00  0.00000000000E+00  0.00000000000E+00  0.91188000000E+02  0.91188000000E+02 0.  0.
    9900012    2    3    3    0    0 -0.26817657958E+02  0.82871917617E+01  0.33102252882E+02  0.47787268768E+02  0.19999989620E+02 0.  0.
        -12    1    3    3    0    0  0.26817657958E+02 -0.82871917617E+01 -0.33102252882E+02  0.43400731232E+02  0.00000000000E+00 0.  1.
         11    1    4    4    0    0 -0.14237821266E+02  0.10167326773E+02  0.85097948784E+01  0.19455248578E+02  0.51100000000E-03 0. -1.
        -11    1    4    4    0    0 -0.10976165452E+02 -0.37435396279E+01  0.20734846657E+02  0.23757612741E+02  0.51100000000E-03 0.  1.
         12    1    4    4    0    0 -0.16036712405E+01  0.18634046167E+01  0.38576113460E+01  0.45744074491E+01  0.00000000000E+00 0. -1.
</event>
<event>
 8    1  0.4798632E-010  0.9118800E+02  0.7816164E-02  0.1184000E+00
        -11   -1    0    0    0    0  0.00000000000E+00  0.00000000000E+00  0.45593999997E+02  0.45594000000E+02  0.51100000000E-03 0. -1.
         11   -1    0    0    0    0 -0.00000000000E+00 -0.00000000000E+00 -0.45593999997E+02  0.45594000000E+02  0.51100000000E-03 0.  1.
         23    2    1    2    0    0  0.00000000000E+00  0.00000000000E+00 -0.35527136788E-14  0.91188000000E+02  0.91188000000E+02 0.  0.
    9900012    2    3    3    0    0 -0.32157522225E+02  0.22704442078E+02 -0.18276361113E+02  0.47787270729E+02  0.19999998563E+02 0.  0.
         12    1    3    3    0    0  0.32157522225E+02 -0.22704442078E+02  0.18276361113E+02  0.43400729271E+02  0.00000000000E+00 0. -1.
         11    1    4    4    0    0  0.46208404289E+00  0.98017888898E+00  0.52548115961E+00  0.12043267942E+01  0.51100000000E-03 0. -1.
        -11    1    4    4    0    0 -0.17482967260E+02  0.79658972203E+01 -0.63102354750E+00  0.19222587071E+02  0.51100000000E-03 0.  1.
        -12    1    4    4    0    0 -0.15136639008E+02  0.13758365969E+02 -0.18170818725E+02  0.27360356864E+02  0.00000000000E+00 0.  1.
</event>
<event>
 8    1  0.4798632E-010  0.9118800E+02  0.7816164E-02  0.1184000E+00
        -11   -1    0    0    0    0  0.00000000000E+00  0.00000000000E+00  0.45593999997E+02  0.45594000000E+02  0.51100000000E-03 0.  1.
         11   -1    0    0    0    0 -0.00000000000E+00 -0.00000000000E+00 -0.45593999997E+02  0.45594000000E+02  0.51100000000E-03 0. -1.
         23    2    1    2    0    0  0.00000000000E+00  0.00000000000E+00  0.35527136788E-14  0.91188000000E+02  0.91188000000E+02 0.  0.
    9900012    2    3    3    0    0  0.32958985230E+02  0.17198182382E+02 -0.22395336649E+02  0.47787270879E+02  0.19999999245E+02 0.  0.
         12    1    3    3    0    0 -0.32958985230E+02 -0.17198182382E+02  0.22395336649E+02  0.43400729121E+02  0.00000000000E+00 0. -1.
         11    1    4    4    0    0 -0.19720037964E+01  0.22158995918E+01 -0.26169809998E+01  0.39557047145E+01  0.51100000000E-03 0. -1.
        -11    1    4    4    0    0  0.22502107427E+02  0.14310625854E+02 -0.13317553948E+02  0.29807651609E+02  0.51100000000E-03 0.  1.
        -12    1    4    4    0    0  0.12428881599E+02  0.67165693609E+00 -0.64608017012E+01  0.14023914556E+02  0.00000000000E+00 0.  1.
</event>
<event>
 8    1  0.4798632E-010  0.9118800E+02  0.7816164E-02  0.1184000E+00
        -11   -1    0    0    0    0  0.00000000000E+00  0.00000000000E+00  0.45593999997E+02  0.45594000000E+02  0.51100000000E-03 0. -1.
         11   -1    0    0    0    0 -0.00000000000E+00 -0.00000000000E+00 -0.45593999997E+02  0.45594000000E+02  0.51100000000E-03 0.  1.
         23    2    1    2    0    0 -0.88817841970E-15  0.35527136788E-14  0.00000000000E+00  0.91188000000E+02  0.91188000000E+02 0.  0.
    9900012    2    3    3    0    0  0.67659699822E+01 -0.21009660048E+02 -0.37368942144E+02  0.47787285696E+02  0.20000066802E+02 0.  0.
         12    1    3    3    0    0 -0.67659699822E+01  0.21009660048E+02  0.37368942144E+02  0.43400714304E+02  0.00000000000E+00 0. -1.
         11    1    4    4    0    0  0.10526280747E+02 -0.83113098442E+01 -0.10652155583E+02  0.17127430529E+02  0.51100000000E-03 0. -1.
        -11    1    4    4    0    0 -0.27680079462E+01 -0.11493497236E+02 -0.26582985098E+02  0.29093254264E+02  0.51100000000E-03 0.  1.
         12    1    4    4    0    0 -0.99230281850E+00 -0.12048529677E+01 -0.13380146287E+00  0.15666009028E+01  0.00000000000E+00 0. -1.
</event>
<event>
 8    1  0.4798632E-010  0.9118800E+02  0.7816164E-02  0.1184000E+00
        -11   -1    0    0    0    0  0.00000000000E+00  0.00000000000E+00  0.45593999997E+02  0.45594000000E+02  0.51100000000E-03 0. -1.
         11   -1    0    0    0    0 -0.00000000000E+00 -0.00000000000E+00 -0.45593999997E+02  0.45594000000E+02  0.51100000000E-03 0.  1.
         23    2    1    2    0    0  0.52735593670E-15 -0.44408920985E-15  0.00000000000E+00  0.91188000000E+02  0.91188000000E+02 0.  0.
    9900012    2    3    3    0    0  0.54007143706E-01  0.27362943035E+01 -0.43314355585E+02  0.47787267022E+02  0.19999981662E+02 0.  0.
         12    1    3    3    0    0 -0.54007143706E-01 -0.27362943035E+01  0.43314355585E+02  0.43400732978E+02  0.00000000000E+00 0. -1.
         11    1    4    4    0    0 -0.76460017821E+01  0.56425272081E+01 -0.18134536879E+02  0.20473418977E+02  0.51100000000E-03 0. -1.
        -11    1    4    4    0    0  0.46007789103E+01 -0.76373587964E+00 -0.21664804460E+02  0.22161096805E+02  0.51100000000E-03 0.  1.
         12    1    4    4    0    0  0.30992300155E+01 -0.21424970250E+01 -0.35150142461E+01  0.51527512400E+01  0.00000000000E+00 0. -1.
</event>
<event>
 8    1  0.4798632E-010  0.9118800E+02  0.7816164E-02  0.1184000E+00
        -11   -1    0    0    0    0  0.00000000000E+00  0.00000000000E+00  0.45593999997E+02  0.45594000000E+02  0.51100000000E-03 0. -1.
         11   -1    0    0    0    0 -0.00000000000E+00 -0.00000000000E+00 -0.45593999997E+02  0.45594000000E+02  0.51100000000E-03 0.  1.
         23    2    1    2    0    0 -0.22204460493E-15  0.35527136788E-14  0.00000000000E+00  0.91188000000E+02  0.91188000000E+02 0.  0.
    9900012    2    3    3    0    0 -0.16268095938E+01 -0.26932868538E+02 -0.33994054130E+02  0.47787289945E+02  0.20000086175E+02 0.  0.
         12    1    3    3    0    0  0.16268095938E+01  0.26932868538E+02  0.33994054130E+02  0.43400710055E+02  0.00000000000E+00 0. -1.
         11    1    4    4    0    0 -0.41212929000E+01 -0.15575538366E+02 -0.67359640193E+01  0.17462979760E+02  0.51100000000E-03 0. -1.
        -11    1    4    4    0    0 -0.12523719435E+00 -0.95990957386E+01 -0.16258054792E+02  0.18880748640E+02  0.51100000000E-03 0.  1.
         12    1    4    4    0    0  0.26197205005E+01 -0.17582344334E+01 -0.11000035319E+02  0.11443561545E+02  0.00000000000E+00 0. -1.
</event>
<event>
 8    1  0.4812643E-010  0.9118800E+02  0.7816164E-02  0.1184000E+00
        -11   -1    0    0    0    0  0.00000000000E+00  0.00000000000E+00  0.45593999997E+02  0.45594000000E+02  0.51100000000E-03 0. -1.
         11   -1    0    0    0    0 -0.00000000000E+00 -0.00000000000E+00 -0.45593999997E+02  0.45594000000E+02  0.51100000000E-03 0.  1.
         23    2    1    2    0    0 -0.17763568394E-14 -0.17763568394E-14  0.00000000000E+00  0.91188000000E+02  0.91188000000E+02 0.  0.
    9900012    2    3    3    0    0 -0.15908957726E+02 -0.42919610194E+01 -0.40151056753E+02  0.47787271623E+02  0.20000002636E+02 0.  0.
         12    1    3    3    0    0  0.15908957726E+02  0.42919610194E+01  0.40151056753E+02  0.43400728377E+02  0.00000000000E+00 0. -1.
         11    1    4    4    0    0 -0.59268040369E+01 -0.83221942623E+01 -0.12409835938E+02  0.16074512487E+02  0.51100000000E-03 0. -1.
        -11    1    4    4    0    0 -0.53094059833E+01  0.49536868095E+01 -0.58942773136E+01  0.93526098076E+01  0.51100000000E-03 0.  1.
        -12    1    4    4    0    0 -0.46727477062E+01 -0.92345356660E+00 -0.21846943501E+02  0.22360149328E+02  0.00000000000E+00 0.  1.
</event>
<event>
 8    1  0.4798632E-010  0.9118800E+02  0.7816164E-02  0.1184000E+00
        -11   -1    0    0    0    0  0.00000000000E+00  0.00000000000E+00  0.45593999997E+02  0.45594000000E+02  0.51100000000E-03 0. -1.
         11   -1    0    0    0    0 -0.00000000000E+00 -0.00000000000E+00 -0.45593999997E+02  0.45594000000E+02  0.51100000000E-03 0.  1.
         23    2    1    2    0    0  0.00000000000E+00  0.00000000000E+00  0.00000000000E+00  0.91188000000E+02  0.91188000000E+02 0.  0.
    9900012    2    3    3    0    0  0.40146758330E+01  0.25417845667E+02  0.34949093570E+02  0.47787266806E+02  0.19999980675E+02 0.  0.
        -12    1    3    3    0    0 -0.40146758330E+01 -0.25417845667E+02 -0.34949093570E+02  0.43400733194E+02  0.00000000000E+00 0.  1.
         11    1    4    4    0    0  0.22317286988E+01  0.36063925287E+01  0.19363603050E+02  0.19822608390E+02  0.51100000000E-03 0. -1.
        -11    1    4    4    0    0 -0.13349505079E+01  0.46027184710E+01  0.41056281546E+00  0.48099555371E+01  0.51100000000E-03 0.  1.
         12    1    4    4    0    0  0.31178976421E+01  0.17208734667E+02  0.15174927705E+02  0.23154702879E+02  0.00000000000E+00 0. -1.
</event>
<event>
 8    1  0.4798632E-010  0.9118800E+02  0.7816164E-02  0.1184000E+00
        -11   -1    0    0    0    0  0.00000000000E+00  0.00000000000E+00  0.45593999997E+02  0.45594000000E+02  0.51100000000E-03 0. -1.
         11   -1    0    0    0    0 -0.00000000000E+00 -0.00000000000E+00 -0.45593999997E+02  0.45594000000E+02  0.51100000000E-03 0.  1.
         23    2    1    2    0    0  0.35527136788E-14  0.00000000000E+00 -0.35527136788E-14  0.91188000000E+02  0.91188000000E+02 0.  0.
    9900012    2    3    3    0    0  0.16691016923E+02  0.27913681843E+02  0.28737780387E+02  0.47787266118E+02  0.19999977537E+02 0.  0.
        -12    1    3    3    0    0 -0.16691016923E+02 -0.27913681843E+02 -0.28737780387E+02  0.43400733882E+02  0.00000000000E+00 0.  1.
         11    1    4    4    0    0  0.18034448975E+02  0.22916837525E+02  0.23456368925E+02  0.37424911962E+02  0.51100000000E-03 0. -1.
        -11    1    4    4    0    0 -0.25830051317E+00  0.42739757810E+01 -0.61302219685E+00  0.43254346147E+01  0.51100000000E-03 0.  1.
         12    1    4    4    0    0 -0.10851315388E+01  0.72286853633E+00  0.58944336593E+01  0.60369195407E+01  0.00000000000E+00 0. -1.
</event>
<event>
 8    1  0.4798632E-010  0.9118800E+02  0.7816164E-02  0.1184000E+00
        -11   -1    0    0    0    0  0.00000000000E+00  0.00000000000E+00  0.45593999997E+02  0.45594000000E+02  0.51100000000E-03 0. -1.
         11   -1    0    0    0    0 -0.00000000000E+00 -0.00000000000E+00 -0.45593999997E+02  0.45594000000E+02  0.51100000000E-03 0.  1.
         23    2    1    2    0    0  0.00000000000E+00  0.00000000000E+00  0.71054273576E-14  0.91188000000E+02  0.91188000000E+02 0.  0.
    9900012    2    3    3    0    0  0.24422030988E+02 -0.70013998844E+01 -0.35187616865E+02  0.47787267535E+02  0.19999983997E+02 0.  0.
         12    1    3    3    0    0 -0.24422030988E+02  0.70013998844E+01  0.35187616865E+02  0.43400732465E+02  0.00000000000E+00 0. -1.
         11    1    4    4    0    0  0.19182602669E+01  0.11210545474E+01  0.10332608154E+01  0.24503293501E+01  0.51100000000E-03 0. -1.
        -11    1    4    4    0    0  0.21676545518E+02 -0.64008602828E+01 -0.23998504348E+02  0.32966222852E+02  0.51100000000E-03 0.  1.
        -12    1    4    4    0    0  0.82722520273E+00 -0.17215941490E+01 -0.12222373333E+02  0.12370715332E+02  0.00000000000E+00 0.  1.
</event>
<event>
 8    1  0.4798632E-010  0.9118800E+02  0.7816164E-02  0.1184000E+00
        -11   -1    0    0    0    0  0.00000000000E+00  0.00000000000E+00  0.45593999997E+02  0.45594000000E+02  0.51100000000E-03 0. -1.
         11   -1    0    0    0    0 -0.00000000000E+00 -0.00000000000E+00 -0.45593999997E+02  0.45594000000E+02  0.51100000000E-03 0.  1.
         23    2    1    2    0    0  0.17763568394E-14 -0.35527136788E-14 -0.35527136788E-14  0.91188000000E+02  0.91188000000E+02 0.  0.
    9900012    2    3    3    0    0  0.12434298728E+02  0.27064669461E+02  0.31567630802E+02  0.47787269218E+02  0.19999991675E+02 0.  0.
        -12    1    3    3    0    0 -0.12434298728E+02 -0.27064669461E+02 -0.31567630802E+02  0.43400730782E+02  0.00000000000E+00 0.  1.
         11    1    4    4    0    0  0.53668169521E+01  0.20451352451E+02  0.14250764527E+02  0.25497937782E+02  0.51100000000E-03 0. -1.
        -11    1    4    4    0    0  0.24192854429E+00 -0.98587116640E+00  0.91641019454E+01  0.92201538004E+01  0.51100000000E-03 0.  1.
        -12    1    4    4    0    0  0.68255532315E+01  0.75991881764E+01  0.81527643298E+01  0.13069177636E+02  0.00000000000E+00 0.  1.
</event>
<event>
 8    1  0.4798632E-010  0.9118800E+02  0.7816164E-02  0.1184000E+00
        -11   -1    0    0    0    0  0.00000000000E+00  0.00000000000E+00  0.45593999997E+02  0.45594000000E+02  0.51100000000E-03 0. -1.
         11   -1    0    0    0    0 -0.00000000000E+00 -0.00000000000E+00 -0.45593999997E+02  0.45594000000E+02  0.51100000000E-03 0.  1.
         23    2    1    2    0    0  0.00000000000E+00 -0.17763568394E-14  0.00000000000E+00  0.91188000000E+02  0.91188000000E+02 0.  0.
    9900012    2    3    3    0    0 -0.17712993490E+02  0.15208371983E+02  0.36586590129E+02  0.47787270812E+02  0.19999998942E+02 0.  0.
        -12    1    3    3    0    0  0.17712993490E+02 -0.15208371983E+02 -0.36586590129E+02  0.43400729188E+02  0.00000000000E+00 0.  1.
         11    1    4    4    0    0 -0.69822284081E+01 -0.15435230778E+01  0.32943252131E+01  0.78731541269E+01  0.51100000000E-03 0. -1.
        -11    1    4    4    0    0 -0.82943299314E+01  0.17579534904E+02  0.29696022475E+02  0.35492107680E+02  0.51100000000E-03 0.  1.
        -12    1    4    4    0    0 -0.24364351509E+01 -0.82763984322E+00  0.35962424402E+01  0.44220090053E+01  0.00000000000E+00 0.  1.
</event>
<event>
 8    1  0.4798632E-010  0.9118800E+02  0.7816164E-02  0.1184000E+00
        -11   -1    0    0    0    0  0.00000000000E+00  0.00000000000E+00  0.45593999997E+02  0.45594000000E+02  0.51100000000E-03 0. -1.
         11   -1    0    0    0    0 -0.00000000000E+00 -0.00000000000E+00 -0.45593999997E+02  0.45594000000E+02  0.51100000000E-03 0.  1.
         23    2    1    2    0    0  0.00000000000E+00 -0.71054273576E-14 -0.35527136788E-14  0.91188000000E+02  0.91188000000E+02 0.  0.
    9900012    2    3    3    0    0 -0.18716664380E+02  0.36836310134E+02  0.13281414233E+02  0.47787271505E+02  0.20000002102E+02 0.  0.
        -12    1    3    3    0    0  0.18716664380E+02 -0.36836310134E+02 -0.13281414233E+02  0.43400728495E+02  0.00000000000E+00 0.  1.
         11    1    4    4    0    0 -0.50520669503E+01  0.10424624747E+02 -0.39736895126E+01  0.12246893083E+02  0.51100000000E-03 0. -1.
        -11    1    4    4    0    0  0.13159813024E+01  0.26813629885E+01  0.20493963058E+01  0.36223665943E+01  0.51100000000E-03 0.  1.
         12    1    4    4    0    0 -0.14980578733E+02  0.23730322398E+02  0.15205707440E+02  0.31918011828E+02  0.00000000000E+00 0. -1.
</event>
<event>
 8    1  0.4798632E-010  0.9118800E+02  0.7816164E-02  0.1184000E+00
        -11   -1    0    0    0    0  0.00000000000E+00  0.00000000000E+00  0.45593999997E+02  0.45594000000E+02  0.51100000000E-03 0. -1.
         11   -1    0    0    0    0 -0.00000000000E+00 -0.00000000000E+00 -0.45593999997E+02  0.45594000000E+02  0.51100000000E-03 0.  1.
         23    2    1    2    0    0  0.88817841970E-15  0.00000000000E+00  0.00000000000E+00  0.91188000000E+02  0.91188000000E+02 0.  0.
    9900012    2    3    3    0    0 -0.59757870424E+01  0.61356725570E+01  0.42547246977E+02  0.47787254225E+02  0.19999923313E+02 0.  0.
        -12    1    3    3    0    0  0.59757870424E+01 -0.61356725570E+01 -0.42547246977E+02  0.43400745775E+02  0.00000000000E+00 0.  1.
         11    1    4    4    0    0 -0.48178817149E+01 -0.34897903245E+00  0.71497761558E+01  0.86286192362E+01  0.51100000000E-03 0. -1.
        -11    1    4    4    0    0 -0.66142164174E+00  0.15945844771E+01  0.34006653678E+02  0.34050443064E+02  0.51100000000E-03 0.  1.
        -12    1    4    4    0    0 -0.49648368573E+00  0.48900671124E+01  0.13908171436E+01  0.51081919248E+01  0.00000000000E+00 0.  1.
</event>
<event>
 8    1  0.4798632E-010  0.9118800E+02  0.7816164E-02  0.1184000E+00
        -11   -1    0    0    0    0  0.00000000000E+00  0.00000000000E+00  0.45593999997E+02  0.45594000000E+02  0.51100000000E-03 0. -1.
         11   -1    0    0    0    0 -0.00000000000E+00 -0.00000000000E+00 -0.45593999997E+02  0.45594000000E+02  0.51100000000E-03 0.  1.
         23    2    1    2    0    0  0.00000000000E+00 -0.17763568394E-14  0.00000000000E+00  0.91188000000E+02  0.91188000000E+02 0.  0.
    9900012    2    3    3    0    0 -0.31021056316E+02  0.77422455421E+01 -0.29349189737E+02  0.47787271444E+02  0.20000001821E+02 0.  0.
         12    1    3    3    0    0  0.31021056316E+02 -0.77422455421E+01  0.29349189737E+02  0.43400728556E+02  0.00000000000E+00 0. -1.
         11    1    4    4    0    0 -0.10637259471E+02  0.81026083527E+01 -0.57383321837E+01  0.14551013974E+02  0.51100000000E-03 0. -1.
        -11    1    4    4    0    0 -0.19694323384E+02 -0.13414032211E+01 -0.24698247180E+02  0.31617544975E+02  0.51100000000E-03 0.  1.
        -12    1    4    4    0    0 -0.68947346099E+00  0.98104041043E+00  0.10873896272E+01  0.16187124950E+01  0.00000000000E+00 0.  1.
</event>
<event>
 8    1  0.4798632E-010  0.9118800E+02  0.7816164E-02  0.1184000E+00
        -11   -1    0    0    0    0  0.00000000000E+00  0.00000000000E+00  0.45593999997E+02  0.45594000000E+02  0.51100000000E-03 0. -1.
         11   -1    0    0    0    0 -0.00000000000E+00 -0.00000000000E+00 -0.45593999997E+02  0.45594000000E+02  0.51100000000E-03 0.  1.
         23    2    1    2    0    0  0.00000000000E+00  0.35527136788E-14 -0.71054273576E-14  0.91188000000E+02  0.91188000000E+02 0.  0.
    9900012    2    3    3    0    0  0.45138080160E+01 -0.20848229361E+02 -0.37796821808E+02  0.47787275708E+02  0.20000021263E+02 0.  0.
         12    1    3    3    0    0 -0.45138080160E+01  0.20848229361E+02  0.37796821808E+02  0.43400724292E+02  0.00000000000E+00 0. -1.
         11    1    4    4    0    0  0.51081355414E+00 -0.14425983283E+01 -0.13760428724E+02  0.13845267038E+02  0.51100000000E-03 0. -1.
        -11    1    4    4    0    0  0.20500125528E+01 -0.93986241946E+01 -0.22372583435E+01  0.98763360299E+01  0.51100000000E-03 0.  1.
        -12    1    4    4    0    0  0.19529819091E+01 -0.10007006838E+02 -0.21799134740E+02  0.24065672640E+02  0.00000000000E+00 0.  1.
</event>
<event>
 8    1  0.4798632E-010  0.9118800E+02  0.7816164E-02  0.1184000E+00
        -11   -1    0    0    0    0  0.00000000000E+00  0.00000000000E+00  0.45593999997E+02  0.45594000000E+02  0.51100000000E-03 0. -1.
         11   -1    0    0    0    0 -0.00000000000E+00 -0.00000000000E+00 -0.45593999997E+02  0.45594000000E+02  0.51100000000E-03 0.  1.
         23    2    1    2    0    0  0.00000000000E+00  0.44408920985E-15  0.00000000000E+00  0.91188000000E+02  0.91188000000E+02 0.  0.
    9900012    2    3    3    0    0  0.29469191242E+02  0.20866481558E+01 -0.31793648465E+02  0.47787269410E+02  0.19999992550E+02 0.  0.
         12    1    3    3    0    0 -0.29469191242E+02 -0.20866481558E+01  0.31793648465E+02  0.43400730590E+02  0.00000000000E+00 0. -1.
         11    1    4    4    0    0  0.32830208447E+01  0.61845007409E+01 -0.76647906949E+01  0.10381487944E+02  0.51100000000E-03 0. -1.
        -11    1    4    4    0    0  0.11373795077E+02 -0.60940651920E+01 -0.15422690176E+02  0.20108709992E+02  0.51100000000E-03 0.  1.
         12    1    4    4    0    0  0.14812375320E+02  0.19962126069E+01 -0.87061675942E+01  0.17297071474E+02  0.00000000000E+00 0. -1.
</event>
<event>
 8    1  0.4798632E-010  0.9118800E+02  0.7816164E-02  0.1184000E+00
        -11   -1    0    0    0    0  0.00000000000E+00  0.00000000000E+00  0.45593999997E+02  0.45594000000E+02  0.51100000000E-03 0. -1.
         11   -1    0    0    0    0 -0.00000000000E+00 -0.00000000000E+00 -0.45593999997E+02  0.45594000000E+02  0.51100000000E-03 0.  1.
         23    2    1    2    0    0  0.00000000000E+00  0.00000000000E+00  0.00000000000E+00  0.91188000000E+02  0.91188000000E+02 0.  0.
    9900012    2    3    3    0    0 -0.16246306210E+02 -0.17452799997E+02 -0.36264042283E+02  0.47787268947E+02  0.19999990437E+02 0.  0.
         12    1    3    3    0    0  0.16246306210E+02  0.17452799997E+02  0.36264042283E+02  0.43400731053E+02  0.00000000000E+00 0. -1.
         11    1    4    4    0    0 -0.27202643456E+00 -0.43444270139E+01 -0.11338131277E+02  0.12145009904E+02  0.51100000000E-03 0. -1.
        -11    1    4    4    0    0 -0.16857698540E+02 -0.93613393513E+01 -0.25259260719E+02  0.31778088785E+02  0.51100000000E-03 0.  1.
        -12    1    4    4    0    0  0.88341876423E+00 -0.37470336320E+01  0.33334971210E+00  0.38641702580E+01  0.00000000000E+00 0.  1.
</event>
<event>
 8    1  0.4798632E-010  0.9118800E+02  0.7816164E-02  0.1184000E+00
        -11   -1    0    0    0    0  0.00000000000E+00  0.00000000000E+00  0.45593999997E+02  0.45594000000E+02  0.51100000000E-03 0. -1.
         11   -1    0    0    0    0 -0.00000000000E+00 -0.00000000000E+00 -0.45593999997E+02  0.45594000000E+02  0.51100000000E-03 0.  1.
         23    2    1    2    0    0  0.00000000000E+00  0.00000000000E+00  0.00000000000E+00  0.91188000000E+02  0.91188000000E+02 0.  0.
    9900012    2    3    3    0    0 -0.21956204469E+02 -0.10801712157E+02  0.35845095066E+02  0.47787277190E+02  0.20000028018E+02 0.  0.
        -12    1    3    3    0    0  0.21956204469E+02  0.10801712157E+02 -0.35845095066E+02  0.43400722810E+02  0.00000000000E+00 0.  1.
         11    1    4    4    0    0 -0.12992940140E+02 -0.14066749005E+02  0.13805697659E+02  0.23606931380E+02  0.51100000000E-03 0. -1.
        -11    1    4    4    0    0 -0.27219554759E+01  0.12615972394E+01  0.10377596440E+02  0.10802554204E+02  0.51100000000E-03 0.  1.
         12    1    4    4    0    0 -0.62413088522E+01  0.20034396078E+01  0.11661800966E+02  0.13377791605E+02  0.00000000000E+00 0. -1.
</event>
<event>
 8    1  0.4798632E-010  0.9118800E+02  0.7816164E-02  0.1184000E+00
        -11   -1    0    0    0    0  0.00000000000E+00  0.00000000000E+00  0.45593999997E+02  0.45594000000E+02  0.51100000000E-03 0. -1.
         11   -1    0    0    0    0 -0.00000000000E+00 -0.00000000000E+00 -0.45593999997E+02  0.45594000000E+02  0.51100000000E-03 0.  1.
         23    2    1    2    0    0  0.00000000000E+00  0.00000000000E+00  0.35527136788E-14  0.91188000000E+02  0.91188000000E+02 0.  0.
    9900012    2    3    3    0    0 -0.10150642019E+02 -0.35892142573E+02  0.22188780249E+02  0.47787269582E+02  0.19999993332E+02 0.  0.
        -12    1    3    3    0    0  0.10150642019E+02  0.35892142573E+02 -0.22188780249E+02  0.43400730418E+02  0.00000000000E+00 0.  1.
         11    1    4    4    0    0 -0.56438557479E+01 -0.29832085239E+02  0.16297318825E+02  0.34458801758E+02  0.51100000000E-03 0. -1.
        -11    1    4    4    0    0 -0.29526862937E+01  0.17952200252E+01  0.36209835832E+01  0.50052665922E+01  0.51100000000E-03 0.  1.
         12    1    4    4    0    0 -0.15540999772E+01 -0.78552773590E+01  0.22704778405E+01  0.83232012321E+01  0.00000000000E+00 0. -1.
</event>
<event>
 8    1  0.5320213E-010  0.9118800E+02  0.7816164E-02  0.1184000E+00
        -11   -1    0    0    0    0  0.00000000000E+00  0.00000000000E+00  0.45593999997E+02  0.45594000000E+02  0.51100000000E-03 0. -1.
         11   -1    0    0    0    0 -0.00000000000E+00 -0.00000000000E+00 -0.45593999997E+02  0.45594000000E+02  0.51100000000E-03 0.  1.
         23    2    1    2    0    0  0.00000000000E+00  0.17763568394E-14  0.00000000000E+00  0.91188000000E+02  0.91188000000E+02 0.  0.
    9900012    2    3    3    0    0 -0.14431400626E+02 -0.14282290454E+02 -0.38358487531E+02  0.47787277537E+02  0.20000029602E+02 0.  0.
         12    1    3    3    0    0  0.14431400626E+02  0.14282290454E+02  0.38358487531E+02  0.43400722463E+02  0.00000000000E+00 0. -1.
         11    1    4    4    0    0  0.24649946623E+01 -0.40620125991E+01 -0.64731633004E+01  0.80298187038E+01  0.51100000000E-03 0. -1.
        -11    1    4    4    0    0 -0.14799711010E+02 -0.17077813587E+01 -0.18435277314E+02  0.23702476939E+02  0.51100000000E-03 0.  1.
        -12    1    4    4    0    0 -0.20966842785E+01 -0.85124964957E+01 -0.13450046917E+02  0.16054981894E+02  0.00000000000E+00 0.  1.
</event>
<event>
 8    1  0.4798632E-010  0.9118800E+02  0.7816164E-02  0.1184000E+00
        -11   -1    0    0    0    0  0.00000000000E+00  0.00000000000E+00  0.45593999997E+02  0.45594000000E+02  0.51100000000E-03 0. -1.
         11   -1    0    0    0    0 -0.00000000000E+00 -0.00000000000E+00 -0.45593999997E+02  0.45594000000E+02  0.51100000000E-03 0.  1.
         23    2    1    2    0    0  0.00000000000E+00  0.00000000000E+00  0.00000000000E+00  0.91188000000E+02  0.91188000000E+02 0.  0.
    9900012    2    3    3    0    0 -0.51128987327E+01 -0.25556484241E+02  0.34703711755E+02  0.47787271552E+02  0.20000002315E+02 0.  0.
        -12    1    3    3    0    0  0.51128987327E+01  0.25556484241E+02 -0.34703711755E+02  0.43400728448E+02  0.00000000000E+00 0.  1.
         11    1    4    4    0    0 -0.15670888528E+01 -0.15911188806E+02  0.75847039501E+01  0.17696028677E+02  0.51100000000E-03 0. -1.
        -11    1    4    4    0    0 -0.76784983734E-02 -0.91812754540E+01  0.22115713100E+02  0.23945785518E+02  0.51100000000E-03 0.  1.
        -12    1    4    4    0    0 -0.35381313815E+01 -0.46401998190E+00  0.50032947052E+01  0.61454573567E+01  0.00000000000E+00 0.  1.
</event>
<event>
 8    1  0.4798632E-010  0.9118800E+02  0.7816164E-02  0.1184000E+00
        -11   -1    0    0    0    0  0.00000000000E+00  0.00000000000E+00  0.45593999997E+02  0.45594000000E+02  0.51100000000E-03 0. -1.
         11   -1    0    0    0    0 -0.00000000000E+00 -0.00000000000E+00 -0.45593999997E+02  0.45594000000E+02  0.51100000000E-03 0.  1.
         23    2    1    2    0    0  0.00000000000E+00  0.00000000000E+00  0.00000000000E+00  0.91188000000E+02  0.91188000000E+02 0.  0.
    9900012    2    3    3    0    0  0.36378077106E+02  0.22937826566E+02 -0.58407650775E+01  0.47787275142E+02  0.20000018683E+02 0.  0.
        -12    1    3    3    0    0 -0.36378077106E+02 -0.22937826566E+02  0.58407650775E+01  0.43400724858E+02  0.00000000000E+00 0.  1.
         11    1    4    4    0    0  0.72354151656E+01  0.18718295702E+01 -0.25407737459E+01  0.78937006561E+01  0.51100000000E-03 0. -1.
        -11    1    4    4    0    0  0.16606993856E+01  0.72274284399E+00  0.44758005267E+01  0.48283610350E+01  0.51100000000E-03 0.  1.
        -12    1    4    4    0    0  0.27481962555E+02  0.20343254152E+02 -0.77757918584E+01  0.35065213451E+02  0.00000000000E+00 0.  1.
</event>
<event>
 8    1  0.4798632E-010  0.9118800E+02  0.7816164E-02  0.1184000E+00
        -11   -1    0    0    0    0  0.00000000000E+00  0.00000000000E+00  0.45593999997E+02  0.45594000000E+02  0.51100000000E-03 0. -1.
         11   -1    0    0    0    0 -0.00000000000E+00 -0.00000000000E+00 -0.45593999997E+02  0.45594000000E+02  0.51100000000E-03 0.  1.
         23    2    1    2    0    0  0.00000000000E+00  0.00000000000E+00  0.35527136788E-14  0.91188000000E+02  0.91188000000E+02 0.  0.
    9900012    2    3    3    0    0  0.34988553317E+02 -0.12684021428E+02  0.22328001886E+02  0.47787274994E+02  0.20000018008E+02 0.  0.
        -12    1    3    3    0    0 -0.34988553317E+02  0.12684021428E+02 -0.22328001886E+02  0.43400725006E+02  0.00000000000E+00 0.  1.
         11    1    4    4    0    0  0.72972373717E+01 -0.30094920422E+01  0.11811589575E+02  0.14206349431E+02  0.51100000000E-03 0. -1.
        -11    1    4    4    0    0  0.24894354165E+02 -0.61209514034E+01  0.44575689200E+01  0.26020469564E+02  0.51100000000E-03 0.  1.
         12    1    4    4    0    0  0.27969617808E+01 -0.35535779828E+01  0.60588433908E+01  0.75604559993E+01  0.00000000000E+00 0. -1.
</event>
<event>
 8    1  0.4798632E-010  0.9118800E+02  0.7816164E-02  0.1184000E+00
        -11   -1    0    0    0    0  0.00000000000E+00  0.00000000000E+00  0.45593999997E+02  0.45594000000E+02  0.51100000000E-03 0. -1.
         11   -1    0    0    0    0 -0.00000000000E+00 -0.00000000000E+00 -0.45593999997E+02  0.45594000000E+02  0.51100000000E-03 0.  1.
         23    2    1    2    0    0  0.00000000000E+00  0.44408920985E-15 -0.71054273576E-14  0.91188000000E+02  0.91188000000E+02 0.  0.
    9900012    2    3    3    0    0  0.81774478311E+01 -0.19597067615E+01 -0.42578304186E+02  0.47787273151E+02  0.20000009607E+02 0.  0.
         12    1    3    3    0    0 -0.81774478311E+01  0.19597067615E+01  0.42578304186E+02  0.43400726849E+02  0.00000000000E+00 0. -1.
         11    1    4    4    0    0 -0.42355930877E+01  0.48414155914E+01 -0.95815106843E+01  0.11540576285E+02  0.51100000000E-03 0. -1.
        -11    1    4    4    0    0  0.51097546689E+01 -0.54178862972E+01 -0.14219740493E+02  0.16051919033E+02  0.51100000000E-03 0.  1.
         12    1    4    4    0    0  0.73032862499E+01 -0.13832360557E+01 -0.18777053009E+02  0.20194777833E+02  0.00000000000E+00 0. -1.
</event>
<event>
 8    1  0.4798632E-010  0.9118800E+02  0.7816164E-02  0.1184000E+00
        -11   -1    0    0    0    0  0.00000000000E+00  0.00000000000E+00  0.45593999997E+02  0.45594000000E+02  0.51100000000E-03 0.  1.
         11   -1    0    0    0    0 -0.00000000000E+00 -0.00000000000E+00 -0.45593999997E+02  0.45594000000E+02  0.51100000000E-03 0. -1.
         23    2    1    2    0    0  0.00000000000E+00  0.35527136788E-14 -0.44408920985E-15  0.91188000000E+02  0.91188000000E+02 0.  0.
    9900012    2    3    3    0    0 -0.38977213156E+02 -0.18918373099E+02 -0.25486056847E+01  0.47787269855E+02  0.19999994577E+02 0.  0.
         12    1    3    3    0    0  0.38977213156E+02  0.18918373099E+02  0.25486056847E+01  0.43400730145E+02  0.00000000000E+00 0. -1.
         11    1    4    4    0    0 -0.28365884143E+02 -0.14600733567E+02 -0.55645062463E+01  0.32384695983E+02  0.51100000000E-03 0. -1.
        -11    1    4    4    0    0 -0.11545095035E+02 -0.57448548410E+01  0.12634711253E+01  0.12957196304E+02  0.51100000000E-03 0.  1.
         12    1    4    4    0    0  0.93376602129E+00  0.14272153089E+01  0.17524294363E+01  0.24453775679E+01  0.00000000000E+00 0. -1.
</event>
<event>
 8    1  0.4798632E-010  0.9118800E+02  0.7816164E-02  0.1184000E+00
        -11   -1    0    0    0    0  0.00000000000E+00  0.00000000000E+00  0.45593999997E+02  0.45594000000E+02  0.51100000000E-03 0.  1.
         11   -1    0    0    0    0 -0.00000000000E+00 -0.00000000000E+00 -0.45593999997E+02  0.45594000000E+02  0.51100000000E-03 0. -1.
         23    2    1    2    0    0  0.00000000000E+00  0.00000000000E+00 -0.88817841970E-15  0.91188000000E+02  0.91188000000E+02 0.  0.
    9900012    2    3    3    0    0 -0.37153751399E+02 -0.21155680912E+02  0.74604711986E+01  0.47787277559E+02  0.20000029705E+02 0.  0.
        -12    1    3    3    0    0  0.37153751399E+02  0.21155680912E+02 -0.74604711986E+01  0.43400722441E+02  0.00000000000E+00 0.  1.
         11    1    4    4    0    0 -0.19595026048E+02 -0.95137998753E+01 -0.14060999548E+00  0.21782956763E+02  0.51100000000E-03 0. -1.
        -11    1    4    4    0    0 -0.95316424135E+01 -0.89826713129E+01  0.10787364759E+02  0.16967846938E+02  0.51100000000E-03 0.  1.
        -12    1    4    4    0    0 -0.80270829370E+01 -0.26592097236E+01 -0.31862835651E+01  0.90364738581E+01  0.00000000000E+00 0.  1.
</event>
<event>
 8    1  0.4798632E-010  0.9118800E+02  0.7816164E-02  0.1184000E+00
        -11   -1    0    0    0    0  0.00000000000E+00  0.00000000000E+00  0.45593999997E+02  0.45594000000E+02  0.51100000000E-03 0.  1.
         11   -1    0    0    0    0 -0.00000000000E+00 -0.00000000000E+00 -0.45593999997E+02  0.45594000000E+02  0.51100000000E-03 0. -1.
         23    2    1    2    0    0  0.00000000000E+00  0.88817841970E-15  0.35527136788E-14  0.91188000000E+02  0.91188000000E+02 0.  0.
    9900012    2    3    3    0    0 -0.39626274768E+02 -0.32056628177E+01 -0.17409920404E+02  0.47787271267E+02  0.20000001015E+02 0.  0.
        -12    1    3    3    0    0  0.39626274768E+02  0.32056628177E+01  0.17409920404E+02  0.43400728733E+02  0.00000000000E+00 0.  1.
         11    1    4    4    0    0 -0.27927905007E+02 -0.54331178798E+01 -0.17624467403E+02  0.33468022043E+02  0.51100000000E-03 0. -1.
        -11    1    4    4    0    0 -0.26669730032E+00 -0.19022061153E+01 -0.88502036693E+00  0.21148940555E+01  0.51100000000E-03 0.  1.
         12    1    4    4    0    0 -0.11431672461E+02  0.41296611774E+01  0.10995673659E+01  0.12204355168E+02  0.00000000000E+00 0. -1.
</event>
<event>
 8    1  0.4798632E-010  0.9118800E+02  0.7816164E-02  0.1184000E+00
        -11   -1    0    0    0    0  0.00000000000E+00  0.00000000000E+00  0.45593999997E+02  0.45594000000E+02  0.51100000000E-03 0. -1.
         11   -1    0    0    0    0 -0.00000000000E+00 -0.00000000000E+00 -0.45593999997E+02  0.45594000000E+02  0.51100000000E-03 0.  1.
         23    2    1    2    0    0  0.00000000000E+00 -0.71054273576E-14  0.00000000000E+00  0.91188000000E+02  0.91188000000E+02 0.  0.
    9900012    2    3    3    0    0  0.28109703240E+02  0.32899404472E+02 -0.33313305958E+01  0.47787262744E+02  0.19999962153E+02 0.  0.
        -12    1    3    3    0    0 -0.28109703240E+02 -0.32899404472E+02  0.33313305958E+01  0.43400737256E+02  0.00000000000E+00 0.  1.
         11    1    4    4    0    0  0.42693244510E+01  0.91483166478E+01 -0.75043202820E+01  0.12579095831E+02  0.51100000000E-03 0.  1.
        -11    1    4    4    0    0  0.22701422996E+02  0.23231587903E+02  0.18076244410E+01  0.32531965648E+02  0.51100000000E-03 0. -1.
         12    1    4    4    0    0  0.11389557939E+01  0.51949992073E+00  0.23653652453E+01  0.26762012652E+01  0.00000000000E+00 0. -1.
</event>
<event>
 8    1  0.4798632E-010  0.9118800E+02  0.7816164E-02  0.1184000E+00
        -11   -1    0    0    0    0  0.00000000000E+00  0.00000000000E+00  0.45593999997E+02  0.45594000000E+02  0.51100000000E-03 0. -1.
         11   -1    0    0    0    0 -0.00000000000E+00 -0.00000000000E+00 -0.45593999997E+02  0.45594000000E+02  0.51100000000E-03 0.  1.
         23    2    1    2    0    0 -0.35527136788E-14 -0.35527136788E-14  0.35527136788E-14  0.91188000000E+02  0.91188000000E+02 0.  0.
    9900012    2    3    3    0    0  0.20582600488E+02  0.24096214089E+02 -0.29653861912E+02  0.47787279930E+02  0.20000040515E+02 0.  0.
         12    1    3    3    0    0 -0.20582600488E+02 -0.24096214089E+02  0.29653861912E+02  0.43400720070E+02  0.00000000000E+00 0. -1.
         11    1    4    4    0    0  0.60577226438E+00  0.34629670293E+01 -0.16905323734E+01  0.39008974159E+01  0.51100000000E-03 0. -1.
        -11    1    4    4    0    0  0.33211059388E+01  0.15109440715E+02 -0.83901905958E+01  0.17598870471E+02  0.51100000000E-03 0.  1.
        -12    1    4    4    0    0  0.16655722284E+02  0.55238063452E+01 -0.19573138943E+02  0.26287512043E+02  0.00000000000E+00 0.  1.
</event>
<event>
 8    1  0.4798632E-010  0.9118800E+02  0.7816164E-02  0.1184000E+00
        -11   -1    0    0    0    0  0.00000000000E+00  0.00000000000E+00  0.45593999997E+02  0.45594000000E+02  0.51100000000E-03 0. -1.
         11   -1    0    0    0    0 -0.00000000000E+00 -0.00000000000E+00 -0.45593999997E+02  0.45594000000E+02  0.51100000000E-03 0.  1.
         23    2    1    2    0    0  0.00000000000E+00  0.00000000000E+00  0.00000000000E+00  0.91188000000E+02  0.91188000000E+02 0.  0.
    9900012    2    3    3    0    0 -0.11170447491E+02 -0.11421907843E+02 -0.40353244062E+02  0.47787272101E+02  0.20000004815E+02 0.  0.
         12    1    3    3    0    0  0.11170447491E+02  0.11421907843E+02  0.40353244062E+02  0.43400727899E+02  0.00000000000E+00 0. -1.
         11    1    4    4    0    0 -0.10738494539E+02 -0.35564270375E+01 -0.13221437843E+02  0.17400283249E+02  0.51100000000E-03 0. -1.
        -11    1    4    4    0    0  0.87778747575E+00 -0.96899451433E+01 -0.13905788634E+02  0.16971638269E+02  0.51100000000E-03 0.  1.
         12    1    4    4    0    0 -0.13097404268E+01  0.18244643383E+01 -0.13226017584E+02  0.13415350582E+02  0.00000000000E+00 0. -1.
</event>
<event>
 8    1  0.4798632E-010  0.9118800E+02  0.7816164E-02  0.1184000E+00
        -11   -1    0    0    0    0  0.00000000000E+00  0.00000000000E+00  0.45593999997E+02  0.45594000000E+02  0.51100000000E-03 0. -1.
         11   -1    0    0    0    0 -0.00000000000E+00 -0.00000000000E+00 -0.45593999997E+02  0.45594000000E+02  0.51100000000E-03 0.  1.
         23    2    1    2    0    0  0.00000000000E+00 -0.88817841970E-15  0.00000000000E+00  0.91188000000E+02  0.91188000000E+02 0.  0.
    9900012    2    3    3    0    0  0.38543973385E+02  0.62026158288E+01 -0.18960833091E+02  0.47787268221E+02  0.19999987129E+02 0.  0.
         12    1    3    3    0    0 -0.38543973385E+02 -0.62026158288E+01  0.18960833091E+02  0.43400731779E+02  0.00000000000E+00 0. -1.
         11    1    4    4    0    0  0.13229725658E+02  0.50092089687E+01  0.43324516642E+00  0.14152933163E+02  0.51100000000E-03 0. -1.
        -11    1    4    4    0    0  0.18242721737E+02 -0.13721666249E+01 -0.18568501258E+02  0.26066625728E+02  0.51100000000E-03 0.  1.
        -12    1    4    4    0    0  0.70715259899E+01  0.25655734851E+01 -0.82557699994E+00  0.75677093308E+01  0.00000000000E+00 0.  1.
</event>
<event>
 8    1  0.4798632E-010  0.9118800E+02  0.7816164E-02  0.1184000E+00
        -11   -1    0    0    0    0  0.00000000000E+00  0.00000000000E+00  0.45593999997E+02  0.45594000000E+02  0.51100000000E-03 0. -1.
         11   -1    0    0    0    0 -0.00000000000E+00 -0.00000000000E+00 -0.45593999997E+02  0.45594000000E+02  0.51100000000E-03 0.  1.
         23    2    1    2    0    0 -0.35527136788E-14  0.35527136788E-14  0.00000000000E+00  0.91188000000E+02  0.91188000000E+02 0.  0.
    9900012    2    3    3    0    0 -0.25563200434E+02  0.31895593464E+02 -0.14588263196E+02  0.47787268187E+02  0.19999986971E+02 0.  0.
         12    1    3    3    0    0  0.25563200434E+02 -0.31895593464E+02  0.14588263196E+02  0.43400731813E+02  0.00000000000E+00 0. -1.
         11    1    4    4    0    0 -0.38540779739E+00  0.50965288358E+01 -0.69205545773E+01  0.86033261744E+01  0.51100000000E-03 0. -1.
        -11    1    4    4    0    0 -0.14899416884E+02  0.11229923609E+02  0.84706630875E+00  0.18676759070E+02  0.51100000000E-03 0.  1.
         12    1    4    4    0    0 -0.10278375753E+02  0.15569141019E+02 -0.85147749275E+01  0.20507182942E+02  0.00000000000E+00 0. -1.
</event>
<event>
 8    1  0.5238776E-010  0.9118800E+02  0.7816164E-02  0.1184000E+00
        -11   -1    0    0    0    0  0.00000000000E+00  0.00000000000E+00  0.45593999997E+02  0.45594000000E+02  0.51100000000E-03 0. -1.
         11   -1    0    0    0    0 -0.00000000000E+00 -0.00000000000E+00 -0.45593999997E+02  0.45594000000E+02  0.51100000000E-03 0.  1.
         23    2    1    2    0    0  0.00000000000E+00  0.44408920985E-15 -0.71054273576E-14  0.91188000000E+02  0.91188000000E+02 0.  0.
    9900012    2    3    3    0    0  0.13401654740E+02 -0.12495712471E+01 -0.41260846964E+02  0.47787271086E+02  0.20000000191E+02 0.  0.
         12    1    3    3    0    0 -0.13401654740E+02  0.12495712471E+01  0.41260846964E+02  0.43400728914E+02  0.00000000000E+00 0. -1.
         11    1    4    4    0    0 -0.19944683621E+01 -0.38303472236E+00 -0.30605892955E+01  0.36731222063E+01  0.51100000000E-03 0. -1.
        -11    1    4    4    0    0  0.31181886231E+01  0.15431998001E+01  0.43229464795E+00  0.35059156915E+01  0.51100000000E-03 0.  1.
        -12    1    4    4    0    0  0.12277934479E+02 -0.24097363249E+01 -0.38632552316E+02  0.40608233189E+02  0.00000000000E+00 0.  1.
</event>
<event>
 8    1  0.4798632E-010  0.9118800E+02  0.7816164E-02  0.1184000E+00
        -11   -1    0    0    0    0  0.00000000000E+00  0.00000000000E+00  0.45593999997E+02  0.45594000000E+02  0.51100000000E-03 0. -1.
         11   -1    0    0    0    0 -0.00000000000E+00 -0.00000000000E+00 -0.45593999997E+02  0.45594000000E+02  0.51100000000E-03 0.  1.
         23    2    1    2    0    0  0.00000000000E+00 -0.88817841970E-15  0.00000000000E+00  0.91188000000E+02  0.91188000000E+02 0.  0.
    9900012    2    3    3    0    0  0.14698573162E+02  0.44196204966E+01  0.40596081894E+02  0.47787274621E+02  0.20000016305E+02 0.  0.
        -12    1    3    3    0    0 -0.14698573162E+02 -0.44196204966E+01 -0.40596081894E+02  0.43400725379E+02  0.00000000000E+00 0.  1.
         11    1    4    4    0    0 -0.10926257855E+01  0.40841953692E+01  0.25262992713E+02  0.25614317949E+02  0.51100000000E-03 0. -1.
        -11    1    4    4    0    0  0.15009168719E+02  0.92295790427E+00  0.14333776081E+02  0.20774603100E+02  0.51100000000E-03 0.  1.
         12    1    4    4    0    0  0.78203022795E+00 -0.58753277685E+00  0.99931309985E+00  0.13983535722E+01  0.00000000000E+00 0. -1.
</event>
<event>
 8    1  0.4798632E-010  0.9118800E+02  0.7816164E-02  0.1184000E+00
        -11   -1    0    0    0    0  0.00000000000E+00  0.00000000000E+00  0.45593999997E+02  0.45594000000E+02  0.51100000000E-03 0. -1.
         11   -1    0    0    0    0 -0.00000000000E+00 -0.00000000000E+00 -0.45593999997E+02  0.45594000000E+02  0.51100000000E-03 0.  1.
         23    2    1    2    0    0  0.00000000000E+00  0.88817841970E-15  0.00000000000E+00  0.91188000000E+02  0.91188000000E+02 0.  0.
    9900012    2    3    3    0    0 -0.36910205378E+02 -0.45407191074E+01 -0.22375027610E+02  0.47787271301E+02  0.20000001170E+02 0.  0.
         12    1    3    3    0    0  0.36910205378E+02  0.45407191074E+01  0.22375027610E+02  0.43400728699E+02  0.00000000000E+00 0. -1.
         11    1    4    4    0    0 -0.12938994319E+02  0.63246764350E+01 -0.80619737833E+01  0.16504984930E+02  0.51100000000E-03 0. -1.
        -11    1    4    4    0    0 -0.14284946494E+02 -0.21130433633E+01 -0.51438724531E+01  0.15329190215E+02  0.51100000000E-03 0.  1.
         12    1    4    4    0    0 -0.96862645656E+01 -0.87523521790E+01 -0.91691813734E+01  0.15953096156E+02  0.00000000000E+00 0. -1.
</event>
<event>
 8    1  0.4798632E-010  0.9118800E+02  0.7816164E-02  0.1184000E+00
        -11   -1    0    0    0    0  0.00000000000E+00  0.00000000000E+00  0.45593999997E+02  0.45594000000E+02  0.51100000000E-03 0. -1.
         11   -1    0    0    0    0 -0.00000000000E+00 -0.00000000000E+00 -0.45593999997E+02  0.45594000000E+02  0.51100000000E-03 0.  1.
         23    2    1    2    0    0  0.17763568394E-14  0.00000000000E+00 -0.17763568394E-14  0.91188000000E+02  0.91188000000E+02 0.  0.
    9900012    2    3    3    0    0  0.14297617708E+02  0.40801168275E+02 -0.38041145348E+01  0.47787210928E+02  0.19999725901E+02 0.  0.
         12    1    3    3    0    0 -0.14297617708E+02 -0.40801168275E+02  0.38041145348E+01  0.43400789072E+02  0.00000000000E+00 0. -1.
         11    1    4    4    0    0  0.11589379783E+02  0.31965383694E+02  0.44939867485E+01  0.34297163084E+02  0.51100000000E-03 0. -1.
        -11    1    4    4    0    0  0.40135611790E+01  0.82636603672E+01 -0.74793417658E+01  0.11846404919E+02  0.51100000000E-03 0.  1.
         12    1    4    4    0    0 -0.13053232544E+01  0.57212421366E+00 -0.81875951744E+00  0.16436429241E+01  0.00000000000E+00 0. -1.
</event>
<event>
 8    1  0.4798632E-010  0.9118800E+02  0.7816164E-02  0.1184000E+00
        -11   -1    0    0    0    0  0.00000000000E+00  0.00000000000E+00  0.45593999997E+02  0.45594000000E+02  0.51100000000E-03 0.  1.
         11   -1    0    0    0    0 -0.00000000000E+00 -0.00000000000E+00 -0.45593999997E+02  0.45594000000E+02  0.51100000000E-03 0. -1.
         23    2    1    2    0    0  0.00000000000E+00  0.00000000000E+00 -0.88817841970E-15  0.91188000000E+02  0.91188000000E+02 0.  0.
    9900012    2    3    3    0    0 -0.38645307412E+02  0.18885252739E+02  0.57888257268E+01  0.47787273517E+02  0.20000011271E+02 0.  0.
        -12    1    3    3    0    0  0.38645307412E+02 -0.18885252739E+02 -0.57888257268E+01  0.43400726483E+02  0.00000000000E+00 0.  1.
         11    1    4    4    0    0 -0.12263557761E+02  0.16728042015E+01 -0.59334205551E+01  0.13725837046E+02  0.51100000000E-03 0. -1.
        -11    1    4    4    0    0 -0.16240610742E+02  0.12819384207E+02  0.95942387645E+01  0.22806653995E+02  0.51100000000E-03 0.  1.
         12    1    4    4    0    0 -0.10141138909E+02  0.43930643301E+01  0.21280075174E+01  0.11254782476E+02  0.00000000000E+00 0. -1.
</event>
<event>
 8    1  0.4798632E-010  0.9118800E+02  0.7816164E-02  0.1184000E+00
        -11   -1    0    0    0    0  0.00000000000E+00  0.00000000000E+00  0.45593999997E+02  0.45594000000E+02  0.51100000000E-03 0. -1.
         11   -1    0    0    0    0 -0.00000000000E+00 -0.00000000000E+00 -0.45593999997E+02  0.45594000000E+02  0.51100000000E-03 0.  1.
         23    2    1    2    0    0  0.35527136788E-14  0.35527136788E-14 -0.35527136788E-14  0.91188000000E+02  0.91188000000E+02 0.  0.
    9900012    2    3    3    0    0 -0.29520582775E+02 -0.22058856754E+02  0.22925227964E+02  0.47787262150E+02  0.19999959449E+02 0.  0.
        -12    1    3    3    0    0  0.29520582775E+02  0.22058856754E+02 -0.22925227964E+02  0.43400737850E+02  0.00000000000E+00 0.  1.
         11    1    4    4    0    0 -0.11019001149E+02 -0.80825720526E+01  0.99006912326E+01  0.16875130946E+02  0.51100000000E-03 0. -1.
        -11    1    4    4    0    0 -0.16461062718E+02 -0.51971623050E+01  0.31579171236E+01  0.17548490609E+02  0.51100000000E-03 0.  1.
        -12    1    4    4    0    0 -0.20405189078E+01 -0.87791223967E+01  0.98666196083E+01  0.13363640595E+02  0.00000000000E+00 0.  1.
</event>
<event>
 8    1  0.4798632E-010  0.9118800E+02  0.7816164E-02  0.1184000E+00
        -11   -1    0    0    0    0  0.00000000000E+00  0.00000000000E+00  0.45593999997E+02  0.45594000000E+02  0.51100000000E-03 0.  1.
         11   -1    0    0    0    0 -0.00000000000E+00 -0.00000000000E+00 -0.45593999997E+02  0.45594000000E+02  0.51100000000E-03 0. -1.
         23    2    1    2    0    0  0.10658141036E-13  0.17763568394E-14 -0.71054273576E-14  0.91188000000E+02  0.91188000000E+02 0.  0.
    9900012    2    3    3    0    0 -0.23370973410E+02 -0.11692744711E+02  0.34651148047E+02  0.47787254177E+02  0.19999923095E+02 0.  0.
        -12    1    3    3    0    0  0.23370973410E+02  0.11692744711E+02 -0.34651148047E+02  0.43400745823E+02  0.00000000000E+00 0.  1.
         11    1    4    4    0    0 -0.17169124208E+02 -0.74102678262E+01  0.21913659006E+02  0.28807973664E+02  0.51100000000E-03 0. -1.
        -11    1    4    4    0    0  0.15734747307E+01  0.16226935587E+01 -0.70275692052E+00  0.23670286572E+01  0.51100000000E-03 0.  1.
        -12    1    4    4    0    0 -0.77753239332E+01 -0.59051704435E+01  0.13440245961E+02  0.16612251856E+02  0.00000000000E+00 0.  1.
</event>
<event>
 8    1  0.4798632E-010  0.9118800E+02  0.7816164E-02  0.1184000E+00
        -11   -1    0    0    0    0  0.00000000000E+00  0.00000000000E+00  0.45593999997E+02  0.45594000000E+02  0.51100000000E-03 0.  1.
         11   -1    0    0    0    0 -0.00000000000E+00 -0.00000000000E+00 -0.45593999997E+02  0.45594000000E+02  0.51100000000E-03 0. -1.
         23    2    1    2    0    0  0.00000000000E+00  0.00000000000E+00 -0.13322676296E-14  0.91188000000E+02  0.91188000000E+02 0.  0.
    9900012    2    3    3    0    0  0.35930082451E+02  0.24203757906E+02 -0.26142591042E+01  0.47787227284E+02  0.19999800478E+02 0.  0.
         12    1    3    3    0    0 -0.35930082451E+02 -0.24203757906E+02  0.26142591042E+01  0.43400772716E+02  0.00000000000E+00 0. -1.
         11    1    4    4    0    0  0.16445144544E+02  0.65009210464E+01  0.49382538223E+01  0.18360040975E+02  0.51100000000E-03 0. -1.
        -11    1    4    4    0    0  0.10932077260E+02  0.52978595076E+01  0.84491437708E+00  0.12177500119E+02  0.51100000000E-03 0.  1.
         12    1    4    4    0    0  0.85528606462E+01  0.12404977352E+02 -0.83974273036E+01  0.17249686190E+02  0.00000000000E+00 0. -1.
</event>
<event>
 8    1  0.4798632E-010  0.9118800E+02  0.7816164E-02  0.1184000E+00
        -11   -1    0    0    0    0  0.00000000000E+00  0.00000000000E+00  0.45593999997E+02  0.45594000000E+02  0.51100000000E-03 0. -1.
         11   -1    0    0    0    0 -0.00000000000E+00 -0.00000000000E+00 -0.45593999997E+02  0.45594000000E+02  0.51100000000E-03 0.  1.
         23    2    1    2    0    0  0.00000000000E+00  0.00000000000E+00  0.11102230246E-15  0.91188000000E+02  0.91188000000E+02 0.  0.
    9900012    2    3    3    0    0 -0.41603507602E+02 -0.12332115532E+02  0.83106832428E+00  0.47787267370E+02  0.19999983246E+02 0.  0.
        -12    1    3    3    0    0  0.41603507602E+02  0.12332115532E+02 -0.83106832428E+00  0.43400732630E+02  0.00000000000E+00 0.  1.
         11    1    4    4    0    0 -0.74295712245E+01 -0.33451640346E+01  0.43490321745E+01  0.92359478190E+01  0.51100000000E-03 0. -1.
        -11    1    4    4    0    0 -0.26137397835E+02 -0.84465725574E+01  0.37241210498E+01  0.27719618168E+02  0.51100000000E-03 0.  1.
        -12    1    4    4    0    0 -0.80365385425E+01 -0.54037894033E+00 -0.72420849001E+01  0.10831701383E+02  0.00000000000E+00 0.  1.
</event>
<event>
 8    1  0.4798632E-010  0.9118800E+02  0.7816164E-02  0.1184000E+00
        -11   -1    0    0    0    0  0.00000000000E+00  0.00000000000E+00  0.45593999997E+02  0.45594000000E+02  0.51100000000E-03 0. -1.
         11   -1    0    0    0    0 -0.00000000000E+00 -0.00000000000E+00 -0.45593999997E+02  0.45594000000E+02  0.51100000000E-03 0.  1.
         23    2    1    2    0    0  0.00000000000E+00  0.00000000000E+00  0.00000000000E+00  0.91188000000E+02  0.91188000000E+02 0.  0.
    9900012    2    3    3    0    0  0.16759317518E+02  0.99431145253E+01  0.38779940014E+02  0.47787262707E+02  0.19999961984E+02 0.  0.
        -12    1    3    3    0    0 -0.16759317518E+02 -0.99431145253E+01 -0.38779940014E+02  0.43400737293E+02  0.00000000000E+00 0.  1.
         11    1    4    4    0    0  0.10706030224E+02  0.96484828148E+01  0.29422756324E+02  0.32762950016E+02  0.51100000000E-03 0. -1.
        -11    1    4    4    0    0  0.82403707887E+01 -0.58479107597E+00  0.40148472919E+01  0.91850253335E+01  0.51100000000E-03 0.  1.
         12    1    4    4    0    0 -0.21870834948E+01  0.87942278647E+00  0.53423363979E+01  0.58392873571E+01  0.00000000000E+00 0. -1.
</event>
<event>
 8    1  0.4798632E-010  0.9118800E+02  0.7816164E-02  0.1184000E+00
        -11   -1    0    0    0    0  0.00000000000E+00  0.00000000000E+00  0.45593999997E+02  0.45594000000E+02  0.51100000000E-03 0.  1.
         11   -1    0    0    0    0 -0.00000000000E+00 -0.00000000000E+00 -0.45593999997E+02  0.45594000000E+02  0.51100000000E-03 0. -1.
         23    2    1    2    0    0 -0.35527136788E-14  0.00000000000E+00  0.00000000000E+00  0.91188000000E+02  0.91188000000E+02 0.  0.
    9900012    2    3    3    0    0  0.30834965351E+02 -0.18403702356E+02 -0.24374754771E+02  0.47787308545E+02  0.20000170981E+02 0.  0.
         12    1    3    3    0    0 -0.30834965351E+02  0.18403702356E+02  0.24374754771E+02  0.43400691455E+02  0.00000000000E+00 0. -1.
         11    1    4    4    0    0 -0.14940787224E+01 -0.53070244937E+00 -0.59736348624E+01  0.61804716688E+01  0.51100000000E-03 0. -1.
        -11    1    4    4    0    0  0.21530113792E+02 -0.10815700452E+02 -0.93350663774E+01  0.25839284833E+02  0.51100000000E-03 0.  1.
        -12    1    4    4    0    0  0.10798930281E+02 -0.70572994549E+01 -0.90660535312E+01  0.15767552043E+02  0.00000000000E+00 0.  1.
</event>
<event>
 8    1  0.4798632E-010  0.9118800E+02  0.7816164E-02  0.1184000E+00
        -11   -1    0    0    0    0  0.00000000000E+00  0.00000000000E+00  0.45593999997E+02  0.45594000000E+02  0.51100000000E-03 0. -1.
         11   -1    0    0    0    0 -0.00000000000E+00 -0.00000000000E+00 -0.45593999997E+02  0.45594000000E+02  0.51100000000E-03 0.  1.
         23    2    1    2    0    0  0.00000000000E+00 -0.35527136788E-14  0.00000000000E+00  0.91188000000E+02  0.91188000000E+02 0.  0.
    9900012    2    3    3    0    0 -0.28363956283E+02 -0.18059029778E+02 -0.27440487983E+02  0.47787274737E+02  0.20000016837E+02 0.  0.
         12    1    3    3    0    0  0.28363956283E+02  0.18059029778E+02  0.27440487983E+02  0.43400725263E+02  0.00000000000E+00 0. -1.
         11    1    4    4    0    0  0.17565512580E+01  0.12204217870E-01 -0.50918170363E+01  0.53862994957E+01  0.51100000000E-03 0. -1.
        -11    1    4    4    0    0 -0.18018277101E+02 -0.15219794334E+02 -0.14081797958E+02  0.27469937810E+02  0.51100000000E-03 0.  1.
         12    1    4    4    0    0 -0.12102230440E+02 -0.28514396616E+01 -0.82668729889E+01  0.14931037431E+02  0.00000000000E+00 0. -1.
</event>
<event>
 8    1  0.4798632E-010  0.9118800E+02  0.7816164E-02  0.1184000E+00
        -11   -1    0    0    0    0  0.00000000000E+00  0.00000000000E+00  0.45593999997E+02  0.45594000000E+02  0.51100000000E-03 0.  1.
         11   -1    0    0    0    0 -0.00000000000E+00 -0.00000000000E+00 -0.45593999997E+02  0.45594000000E+02  0.51100000000E-03 0. -1.
         23    2    1    2    0    0 -0.35527136788E-14 -0.35527136788E-14  0.00000000000E+00  0.91188000000E+02  0.91188000000E+02 0.  0.
    9900012    2    3    3    0    0  0.24207087178E+02 -0.29536476847E+02  0.20621271220E+02  0.47787270042E+02  0.19999995428E+02 0.  0.
        -12    1    3    3    0    0 -0.24207087178E+02  0.29536476847E+02 -0.20621271220E+02  0.43400729958E+02  0.00000000000E+00 0.  1.
         11    1    4    4    0    0  0.15559557792E+02 -0.16528646781E+02  0.37025752294E+01  0.23000110145E+02  0.51100000000E-03 0. -1.
        -11    1    4    4    0    0  0.83994342107E+01 -0.57306898881E+01  0.13044226596E+02  0.16539139923E+02  0.51100000000E-03 0.  1.
        -12    1    4    4    0    0  0.24809517513E+00 -0.72771401783E+01  0.38744693948E+01  0.82480199734E+01  0.00000000000E+00 0.  1.
</event>
<event>
 8    1  0.4798632E-010  0.9118800E+02  0.7816164E-02  0.1184000E+00
        -11   -1    0    0    0    0  0.00000000000E+00  0.00000000000E+00  0.45593999997E+02  0.45594000000E+02  0.51100000000E-03 0. -1.
         11   -1    0    0    0    0 -0.00000000000E+00 -0.00000000000E+00 -0.45593999997E+02  0.45594000000E+02  0.51100000000E-03 0.  1.
         23    2    1    2    0    0  0.00000000000E+00 -0.17763568394E-14 -0.35527136788E-14  0.91188000000E+02  0.91188000000E+02 0.  0.
    9900012    2    3    3    0    0  0.36638822229E+02 -0.11642098100E+02  0.20141535438E+02  0.47787271984E+02  0.20000004284E+02 0.  0.
        -12    1    3    3    0    0 -0.36638822229E+02  0.11642098100E+02 -0.20141535438E+02  0.43400728016E+02  0.00000000000E+00 0.  1.
         11    1    4    4    0    0  0.13197977860E+02 -0.86791986402E+01  0.16071469419E+02  0.22534578722E+02  0.51100000000E-03 0. -1.
        -11    1    4    4    0    0  0.12423612276E+02  0.23671179608E+01  0.27524606054E+01  0.12943161479E+02  0.51100000000E-03 0.  1.
        -12    1    4    4    0    0  0.11017232093E+02 -0.53300174205E+01  0.13176054137E+01  0.12309531783E+02  0.00000000000E+00 0.  1.
</event>
<event>
 8    1  0.4798632E-010  0.9118800E+02  0.7816164E-02  0.1184000E+00
        -11   -1    0    0    0    0  0.00000000000E+00  0.00000000000E+00  0.45593999997E+02  0.45594000000E+02  0.51100000000E-03 0. -1.
         11   -1    0    0    0    0 -0.00000000000E+00 -0.00000000000E+00 -0.45593999997E+02  0.45594000000E+02  0.51100000000E-03 0.  1.
         23    2    1    2    0    0  0.00000000000E+00  0.00000000000E+00  0.00000000000E+00  0.91188000000E+02  0.91188000000E+02 0.  0.
    9900012    2    3    3    0    0 -0.32754608140E+02  0.13834303516E+02  0.24887171076E+02  0.47787267375E+02  0.19999983270E+02 0.  0.
        -12    1    3    3    0    0  0.32754608140E+02 -0.13834303516E+02 -0.24887171076E+02  0.43400732625E+02  0.00000000000E+00 0.  1.
         11    1    4    4    0    0 -0.26931505368E+02  0.16686290727E+02  0.15144670154E+02  0.35115513864E+02  0.51100000000E-03 0. -1.
        -11    1    4    4    0    0 -0.73826687417E+00  0.34438622604E+00  0.48704524595E+01  0.49381117112E+01  0.51100000000E-03 0.  1.
         12    1    4    4    0    0 -0.50848358985E+01 -0.31963734370E+01  0.48720484634E+01  0.77336418002E+01  0.00000000000E+00 0. -1.
</event>
<event>
 8    1  0.4798632E-010  0.9118800E+02  0.7816164E-02  0.1184000E+00
        -11   -1    0    0    0    0  0.00000000000E+00  0.00000000000E+00  0.45593999997E+02  0.45594000000E+02  0.51100000000E-03 0. -1.
         11   -1    0    0    0    0 -0.00000000000E+00 -0.00000000000E+00 -0.45593999997E+02  0.45594000000E+02  0.51100000000E-03 0.  1.
         23    2    1    2    0    0  0.00000000000E+00 -0.88817841970E-15  0.00000000000E+00  0.91188000000E+02  0.91188000000E+02 0.  0.
    9900012    2    3    3    0    0 -0.19264571651E+02 -0.56184818058E+01 -0.38482882084E+02  0.47787271064E+02  0.20000000091E+02 0.  0.
         12    1    3    3    0    0  0.19264571651E+02  0.56184818058E+01  0.38482882084E+02  0.43400728936E+02  0.00000000000E+00 0. -1.
         11    1    4    4    0    0 -0.19050491978E+02 -0.54301713783E+01 -0.23754191912E+02  0.30930076616E+02  0.51100000000E-03 0.  1.
        -11    1    4    4    0    0 -0.32175520149E+01 -0.11508314860E+00 -0.20259269150E+01  0.38039801821E+01  0.51100000000E-03 0. -1.
         12    1    4    4    0    0  0.30034723417E+01 -0.73227278888E-01 -0.12702763256E+02  0.13053214266E+02  0.00000000000E+00 0. -1.
</event>
<event>
 8    1  0.4798632E-010  0.9118800E+02  0.7816164E-02  0.1184000E+00
        -11   -1    0    0    0    0  0.00000000000E+00  0.00000000000E+00  0.45593999997E+02  0.45594000000E+02  0.51100000000E-03 0. -1.
         11   -1    0    0    0    0 -0.00000000000E+00 -0.00000000000E+00 -0.45593999997E+02  0.45594000000E+02  0.51100000000E-03 0.  1.
         23    2    1    2    0    0  0.44408920985E-15  0.00000000000E+00  0.00000000000E+00  0.91188000000E+02  0.91188000000E+02 0.  0.
    9900012    2    3    3    0    0  0.37126651023E+01  0.14038722605E+02  0.40899254054E+02  0.47787324928E+02  0.20000245675E+02 0.  0.
        -12    1    3    3    0    0 -0.37126651023E+01 -0.14038722605E+02 -0.40899254054E+02  0.43400675072E+02  0.00000000000E+00 0.  1.
         11    1    4    4    0    0 -0.36333800440E+01  0.12402572761E+02  0.16533220256E+02  0.20985057396E+02  0.51100000000E-03 0. -1.
        -11    1    4    4    0    0  0.29542768844E+01  0.25333697775E+01  0.28485654144E+01  0.48228663179E+01  0.51100000000E-03 0.  1.
         12    1    4    4    0    0  0.43917682618E+01 -0.89721993361E+00  0.21517468384E+02  0.21979401214E+02  0.00000000000E+00 0. -1.
</event>
<event>
 8    1  0.4798632E-010  0.9118800E+02  0.7816164E-02  0.1184000E+00
        -11   -1    0    0    0    0  0.00000000000E+00  0.00000000000E+00  0.45593999997E+02  0.45594000000E+02  0.51100000000E-03 0. -1.
         11   -1    0    0    0    0 -0.00000000000E+00 -0.00000000000E+00 -0.45593999997E+02  0.45594000000E+02  0.51100000000E-03 0.  1.
         23    2    1    2    0    0  0.35527136788E-14  0.00000000000E+00  0.71054273576E-14  0.91188000000E+02  0.91188000000E+02 0.  0.
    9900012    2    3    3    0    0  0.16324320255E+02 -0.10155474286E+02  0.38910207621E+02  0.47787293245E+02  0.20000101219E+02 0.  0.
        -12    1    3    3    0    0 -0.16324320255E+02  0.10155474286E+02 -0.38910207621E+02  0.43400706755E+02  0.00000000000E+00 0.  1.
         11    1    4    4    0    0  0.11231377753E+02  0.29847149212E+01  0.17920491940E+02  0.21358754670E+02  0.51100000000E-03 0. -1.
        -11    1    4    4    0    0  0.62253895648E+01 -0.98969236519E+01  0.19382328430E+02  0.22635795295E+02  0.51100000000E-03 0.  1.
         12    1    4    4    0    0 -0.11324470636E+01 -0.32432655550E+01  0.16073872506E+01  0.37927432797E+01  0.00000000000E+00 0. -1.
</event>
<event>
 8    1  0.4798632E-010  0.9118800E+02  0.7816164E-02  0.1184000E+00
        -11   -1    0    0    0    0  0.00000000000E+00  0.00000000000E+00  0.45593999997E+02  0.45594000000E+02  0.51100000000E-03 0. -1.
         11   -1    0    0    0    0 -0.00000000000E+00 -0.00000000000E+00 -0.45593999997E+02  0.45594000000E+02  0.51100000000E-03 0.  1.
         23    2    1    2    0    0 -0.35527136788E-14  0.17763568394E-14  0.00000000000E+00  0.91188000000E+02  0.91188000000E+02 0.  0.
    9900012    2    3    3    0    0  0.26009723565E+02 -0.82859671289E+01 -0.33741076850E+02  0.47787271456E+02  0.20000001876E+02 0.  0.
         12    1    3    3    0    0 -0.26009723565E+02  0.82859671289E+01  0.33741076850E+02  0.43400728544E+02  0.00000000000E+00 0. -1.
         11    1    4    4    0    0 -0.12687184579E+00  0.45179262440E+01 -0.38769706517E+01  0.59547170971E+01  0.51100000000E-03 0.  1.
        -11    1    4    4    0    0  0.11926932649E+02 -0.58919140243E+01 -0.11303960932E+02  0.17456972999E+02  0.51100000000E-03 0. -1.
         12    1    4    4    0    0  0.14209662762E+02 -0.69119793487E+01 -0.18560145266E+02  0.24375581360E+02  0.00000000000E+00 0. -1.
</event>
<event>
 8    1  0.4798632E-010  0.9118800E+02  0.7816164E-02  0.1184000E+00
        -11   -1    0    0    0    0  0.00000000000E+00  0.00000000000E+00  0.45593999997E+02  0.45594000000E+02  0.51100000000E-03 0. -1.
         11   -1    0    0    0    0 -0.00000000000E+00 -0.00000000000E+00 -0.45593999997E+02  0.45594000000E+02  0.51100000000E-03 0.  1.
         23    2    1    2    0    0  0.00000000000E+00  0.00000000000E+00 -0.35527136788E-14  0.91188000000E+02  0.91188000000E+02 0.  0.
    9900012    2    3    3    0    0 -0.34591873064E+02 -0.82518308118E+01 -0.24878356805E+02  0.47787273841E+02  0.20000012750E+02 0.  0.
         12    1    3    3    0    0  0.34591873064E+02  0.82518308118E+01  0.24878356805E+02  0.43400726159E+02  0.00000000000E+00 0. -1.
         11    1    4    4    0    0 -0.14212102458E+01 -0.91965111498E+00  0.55935152280E-01  0.16937313064E+01  0.51100000000E-03 0. -1.
        -11    1    4    4    0    0 -0.25249302289E+02 -0.13172094197E+02 -0.21452294213E+02  0.35654344180E+02  0.51100000000E-03 0.  1.
        -12    1    4    4    0    0 -0.79213605289E+01  0.58399145000E+01 -0.34819977440E+01  0.10439198354E+02  0.00000000000E+00 0.  1.
</event>
<event>
 8    1  0.4798632E-010  0.9118800E+02  0.7816164E-02  0.1184000E+00
        -11   -1    0    0    0    0  0.00000000000E+00  0.00000000000E+00  0.45593999997E+02  0.45594000000E+02  0.51100000000E-03 0.  1.
         11   -1    0    0    0    0 -0.00000000000E+00 -0.00000000000E+00 -0.45593999997E+02  0.45594000000E+02  0.51100000000E-03 0. -1.
         23    2    1    2    0    0  0.00000000000E+00  0.00000000000E+00  0.00000000000E+00  0.91188000000E+02  0.91188000000E+02 0.  0.
    9900012    2    3    3    0    0  0.32558065467E+02 -0.44268349644E+01 -0.28354909230E+02  0.47787246871E+02  0.19999889782E+02 0.  0.
         12    1    3    3    0    0 -0.32558065467E+02  0.44268349644E+01  0.28354909230E+02  0.43400753129E+02  0.00000000000E+00 0. -1.
         11    1    4    4    0    0 -0.18596143264E+01  0.46480014693E-01 -0.12075936803E+01  0.22177936316E+01  0.51100000000E-03 0. -1.
        -11    1    4    4    0    0  0.31606514776E+02 -0.72488007661E+01 -0.25647763385E+02  0.41343979680E+02  0.51100000000E-03 0.  1.
         12    1    4    4    0    0  0.28111650171E+01  0.27754857869E+01 -0.14995521650E+01  0.42254735595E+01  0.00000000000E+00 0. -1.
</event>
<event>
 8    1  0.4798632E-010  0.9118800E+02  0.7816164E-02  0.1184000E+00
        -11   -1    0    0    0    0  0.00000000000E+00  0.00000000000E+00  0.45593999997E+02  0.45594000000E+02  0.51100000000E-03 0. -1.
         11   -1    0    0    0    0 -0.00000000000E+00 -0.00000000000E+00 -0.45593999997E+02  0.45594000000E+02  0.51100000000E-03 0.  1.
         23    2    1    2    0    0  0.00000000000E+00  0.00000000000E+00  0.00000000000E+00  0.91188000000E+02  0.91188000000E+02 0.  0.
    9900012    2    3    3    0    0 -0.34781920277E+02  0.24892503580E+02  0.73623915012E+01  0.47787268195E+02  0.19999987007E+02 0.  0.
        -12    1    3    3    0    0  0.34781920277E+02 -0.24892503580E+02 -0.73623915012E+01  0.43400731805E+02  0.00000000000E+00 0.  1.
         11    1    4    4    0    0 -0.15849258358E+02  0.17236040471E+01  0.25526053034E+01  0.16145760915E+02  0.51100000000E-03 0. -1.
        -11    1    4    4    0    0 -0.24466244563E+01  0.81106297155E+01  0.38159203569E+01  0.92913687928E+01  0.51100000000E-03 0.  1.
         12    1    4    4    0    0 -0.16486037462E+02  0.15058269817E+02  0.99386584087E+00  0.22350138487E+02  0.00000000000E+00 0. -1.
</event>
<event>
 8    1  0.4798632E-010  0.9118800E+02  0.7816164E-02  0.1184000E+00
        -11   -1    0    0    0    0  0.00000000000E+00  0.00000000000E+00  0.45593999997E+02  0.45594000000E+02  0.51100000000E-03 0.  1.
         11   -1    0    0    0    0 -0.00000000000E+00 -0.00000000000E+00 -0.45593999997E+02  0.45594000000E+02  0.51100000000E-03 0. -1.
         23    2    1    2    0    0 -0.71054273576E-14  0.88817841970E-15  0.00000000000E+00  0.91188000000E+02  0.91188000000E+02 0.  0.
    9900012    2    3    3    0    0  0.39627786559E+02 -0.53592314430E+01 -0.16868365148E+02  0.47787256089E+02  0.19999931814E+02 0.  0.
         12    1    3    3    0    0 -0.39627786559E+02  0.53592314430E+01  0.16868365148E+02  0.43400743911E+02  0.00000000000E+00 0. -1.
         11    1    4    4    0    0  0.33453885497E+01 -0.99429418439E+00 -0.37011935127E+01  0.50871484305E+01  0.51100000000E-03 0. -1.
        -11    1    4    4    0    0 -0.15500581609E+01  0.16973638961E+01 -0.90984664767E+00  0.24721540570E+01  0.51100000000E-03 0.  1.
        -12    1    4    4    0    0  0.37832456170E+02 -0.60623011547E+01 -0.12257324988E+02  0.40227953602E+02  0.00000000000E+00 0.  1.
</event>
<event>
 8    1  0.4798632E-010  0.9118800E+02  0.7816164E-02  0.1184000E+00
        -11   -1    0    0    0    0  0.00000000000E+00  0.00000000000E+00  0.45593999997E+02  0.45594000000E+02  0.51100000000E-03 0. -1.
         11   -1    0    0    0    0 -0.00000000000E+00 -0.00000000000E+00 -0.45593999997E+02  0.45594000000E+02  0.51100000000E-03 0.  1.
         23    2    1    2    0    0 -0.71054273576E-14  0.55511151231E-16  0.00000000000E+00  0.91188000000E+02  0.91188000000E+02 0.  0.
    9900012    2    3    3    0    0  0.27703588002E+02 -0.43387826197E+00 -0.33405779017E+02  0.47787272929E+02  0.20000008593E+02 0.  0.
         12    1    3    3    0    0 -0.27703588002E+02  0.43387826197E+00  0.33405779017E+02  0.43400727071E+02  0.00000000000E+00 0. -1.
         11    1    4    4    0    0 -0.25316290496E+01 -0.34624275171E+00 -0.58430494619E+01  0.63773236520E+01  0.51100000000E-03 0. -1.
        -11    1    4    4    0    0  0.17547959522E+02  0.11208089171E+00 -0.20127513684E+02  0.26703188066E+02  0.51100000000E-03 0.  1.
         12    1    4    4    0    0  0.12687257530E+02 -0.19971640198E+00 -0.74352158708E+01  0.14706761211E+02  0.00000000000E+00 0. -1.
</event>
<event>
 8    1  0.4798632E-010  0.9118800E+02  0.7816164E-02  0.1184000E+00
        -11   -1    0    0    0    0  0.00000000000E+00  0.00000000000E+00  0.45593999997E+02  0.45594000000E+02  0.51100000000E-03 0. -1.
         11   -1    0    0    0    0 -0.00000000000E+00 -0.00000000000E+00 -0.45593999997E+02  0.45594000000E+02  0.51100000000E-03 0.  1.
         23    2    1    2    0    0  0.00000000000E+00  0.00000000000E+00  0.00000000000E+00  0.91188000000E+02  0.91188000000E+02 0.  0.
    9900012    2    3    3    0    0 -0.35666933489E+02  0.13132930236E+02  0.20952792896E+02  0.47787268079E+02  0.19999986480E+02 0.  0.
        -12    1    3    3    0    0  0.35666933489E+02 -0.13132930236E+02 -0.20952792896E+02  0.43400731921E+02  0.00000000000E+00 0.  1.
         11    1    4    4    0    0 -0.26466424583E+02  0.10588369827E+02  0.23968749940E+02  0.37243605890E+02  0.51100000000E-03 0. -1.
        -11    1    4    4    0    0 -0.85273507849E+01  0.32367056106E+01 -0.25447457243E+01  0.94693033366E+01  0.51100000000E-03 0.  1.
         12    1    4    4    0    0 -0.67315812176E+00 -0.69214520073E+00 -0.47121131936E+00  0.10743588522E+01  0.00000000000E+00 0. -1.
</event>
<event>
 8    1  0.4798632E-010  0.9118800E+02  0.7816164E-02  0.1184000E+00
        -11   -1    0    0    0    0  0.00000000000E+00  0.00000000000E+00  0.45593999997E+02  0.45594000000E+02  0.51100000000E-03 0. -1.
         11   -1    0    0    0    0 -0.00000000000E+00 -0.00000000000E+00 -0.45593999997E+02  0.45594000000E+02  0.51100000000E-03 0.  1.
         23    2    1    2    0    0  0.00000000000E+00  0.00000000000E+00  0.00000000000E+00  0.91188000000E+02  0.91188000000E+02 0.  0.
    9900012    2    3    3    0    0  0.83714743474E+01 -0.14648632815E+02 -0.39986980876E+02  0.47787278051E+02  0.20000031946E+02 0.  0.
         12    1    3    3    0    0 -0.83714743474E+01  0.14648632815E+02  0.39986980876E+02  0.43400721949E+02  0.00000000000E+00 0. -1.
         11    1    4    4    0    0  0.57099176748E+01 -0.18431089522E+01 -0.49799817923E+01  0.77974630089E+01  0.51100000000E-03 0. -1.
        -11    1    4    4    0    0 -0.44866259357E+01 -0.32302741371E+01 -0.20305893064E+02  0.21045041618E+02  0.51100000000E-03 0.  1.
        -12    1    4    4    0    0  0.71481826082E+01 -0.95752497254E+01 -0.14701106020E+02  0.18944773425E+02  0.00000000000E+00 0.  1.
</event>
<event>
 8    1  0.4798632E-010  0.9118800E+02  0.7816164E-02  0.1184000E+00
        -11   -1    0    0    0    0  0.00000000000E+00  0.00000000000E+00  0.45593999997E+02  0.45594000000E+02  0.51100000000E-03 0. -1.
         11   -1    0    0    0    0 -0.00000000000E+00 -0.00000000000E+00 -0.45593999997E+02  0.45594000000E+02  0.51100000000E-03 0.  1.
         23    2    1    2    0    0 -0.17763568394E-14  0.00000000000E+00 -0.71054273576E-14  0.91188000000E+02  0.91188000000E+02 0.  0.
    9900012    2    3    3    0    0  0.87110659542E+01 -0.20112769935E+02 -0.37459545308E+02  0.47787265914E+02  0.19999976608E+02 0.  0.
         12    1    3    3    0    0 -0.87110659542E+01  0.20112769935E+02  0.37459545308E+02  0.43400734086E+02  0.00000000000E+00 0. -1.
         11    1    4    4    0    0  0.51024993137E+01 -0.63065269715E+01 -0.23775296863E+01  0.84534270778E+01  0.51100000000E-03 0. -1.
        -11    1    4    4    0    0  0.62225903486E+01 -0.86525811102E+01 -0.29217391118E+02  0.31100542350E+02  0.51100000000E-03 0.  1.
        -12    1    4    4    0    0 -0.26140237080E+01 -0.51536618536E+01 -0.58646245041E+01  0.82332964857E+01  0.00000000000E+00 0.  1.
</event>
<event>
 8    1  0.4798632E-010  0.9118800E+02  0.7816164E-02  0.1184000E+00
        -11   -1    0    0    0    0  0.00000000000E+00  0.00000000000E+00  0.45593999997E+02  0.45594000000E+02  0.51100000000E-03 0. -1.
         11   -1    0    0    0    0 -0.00000000000E+00 -0.00000000000E+00 -0.45593999997E+02  0.45594000000E+02  0.51100000000E-03 0.  1.
         23    2    1    2    0    0 -0.88817841970E-15  0.00000000000E+00  0.00000000000E+00  0.91188000000E+02  0.91188000000E+02 0.  0.
    9900012    2    3    3    0    0 -0.61427365757E+01 -0.43647726402E+01 -0.42741534251E+02  0.47787271862E+02  0.20000003726E+02 0.  0.
         12    1    3    3    0    0  0.61427365757E+01  0.43647726402E+01  0.42741534251E+02  0.43400728138E+02  0.00000000000E+00 0. -1.
         11    1    4    4    0    0  0.64002421157E+01  0.12884739863E+00 -0.72543148638E+01  0.96749565991E+01  0.51100000000E-03 0. -1.
        -11    1    4    4    0    0 -0.11900807544E+02 -0.48277162216E+01 -0.34874089965E+02  0.37163667946E+02  0.51100000000E-03 0.  1.
        -12    1    4    4    0    0 -0.64217114756E+00  0.33409618282E+00 -0.61312942228E+00  0.94864731624E+00  0.00000000000E+00 0.  1.
</event>
<event>
 8    1  0.4798632E-010  0.9118800E+02  0.7816164E-02  0.1184000E+00
        -11   -1    0    0    0    0  0.00000000000E+00  0.00000000000E+00  0.45593999997E+02  0.45594000000E+02  0.51100000000E-03 0. -1.
         11   -1    0    0    0    0 -0.00000000000E+00 -0.00000000000E+00 -0.45593999997E+02  0.45594000000E+02  0.51100000000E-03 0.  1.
         23    2    1    2    0    0  0.00000000000E+00  0.00000000000E+00  0.00000000000E+00  0.91188000000E+02  0.91188000000E+02 0.  0.
    9900012    2    3    3    0    0 -0.56220193190E+01 -0.19465378843E+02 -0.38381164374E+02  0.47787287409E+02  0.20000074611E+02 0.  0.
         12    1    3    3    0    0  0.56220193190E+01  0.19465378843E+02  0.38381164374E+02  0.43400712591E+02  0.00000000000E+00 0. -1.
         11    1    4    4    0    0 -0.18135914947E+01 -0.10450365572E+01  0.15827432733E+01  0.26241745456E+01  0.51100000000E-03 0. -1.
        -11    1    4    4    0    0  0.15579878447E+01 -0.12632647716E+02 -0.28836597681E+02  0.31520794415E+02  0.51100000000E-03 0.  1.
        -12    1    4    4    0    0 -0.53664156689E+01 -0.57876945701E+01 -0.11127309966E+02  0.13642318449E+02  0.00000000000E+00 0.  1.
</event>
<event>
 8    1  0.4798632E-010  0.9118800E+02  0.7816164E-02  0.1184000E+00
        -11   -1    0    0    0    0  0.00000000000E+00  0.00000000000E+00  0.45593999997E+02  0.45594000000E+02  0.51100000000E-03 0. -1.
         11   -1    0    0    0    0 -0.00000000000E+00 -0.00000000000E+00 -0.45593999997E+02  0.45594000000E+02  0.51100000000E-03 0.  1.
         23    2    1    2    0    0 -0.44408920985E-15  0.00000000000E+00  0.00000000000E+00  0.91188000000E+02  0.91188000000E+02 0.  0.
    9900012    2    3    3    0    0  0.62649956886E+00 -0.34376621910E+02  0.26485539938E+02  0.47787211281E+02  0.19999727512E+02 0.  0.
        -12    1    3    3    0    0 -0.62649956886E+00  0.34376621910E+02 -0.26485539938E+02  0.43400788719E+02  0.00000000000E+00 0.  1.
         11    1    4    4    0    0  0.55537258298E+01 -0.25378786928E+02  0.17368048907E+02  0.31250213113E+02  0.51100000000E-03 0. -1.
        -11    1    4    4    0    0  0.64494908662E+00  0.10279927014E+00 -0.14057350738E+01  0.15500381844E+01  0.51100000000E-03 0.  1.
         12    1    4    4    0    0 -0.55721753475E+01 -0.91006342524E+01  0.10523226104E+02  0.14986959983E+02  0.00000000000E+00 0. -1.
</event>
<event>
 8    1  0.4798632E-010  0.9118800E+02  0.7816164E-02  0.1184000E+00
        -11   -1    0    0    0    0  0.00000000000E+00  0.00000000000E+00  0.45593999997E+02  0.45594000000E+02  0.51100000000E-03 0.  1.
         11   -1    0    0    0    0 -0.00000000000E+00 -0.00000000000E+00 -0.45593999997E+02  0.45594000000E+02  0.51100000000E-03 0. -1.
         23    2    1    2    0    0  0.00000000000E+00  0.00000000000E+00  0.00000000000E+00  0.91188000000E+02  0.91188000000E+02 0.  0.
    9900012    2    3    3    0    0  0.23712691827E+02 -0.35241948013E+02 -0.89071134575E+01  0.47787270471E+02  0.19999997387E+02 0.  0.
         12    1    3    3    0    0 -0.23712691827E+02  0.35241948013E+02  0.89071134575E+01  0.43400729529E+02  0.00000000000E+00 0. -1.
         11    1    4    4    0    0  0.55345881666E+01 -0.51280581061E+01 -0.38921642957E+01  0.84898521354E+01  0.51100000000E-03 0. -1.
        -11    1    4    4    0    0  0.16316194511E+02 -0.10805988113E+02 -0.21064182707E+01  0.19683103938E+02  0.51100000000E-03 0.  1.
        -12    1    4    4    0    0  0.18619091495E+01 -0.19307901794E+02 -0.29085308911E+01  0.19614314398E+02  0.00000000000E+00 0.  1.
</event>
