<event>
 8    1  0.6469014E-010  0.9118800E+02  0.7816164E-02  0.1184000E+00
        -11   -1    0    0    0    0  0.00000000000E+00  0.00000000000E+00  0.45593999997E+02  0.45594000000E+02  0.51100000000E-03 0.  1.
         11   -1    0    0    0    0 -0.00000000000E+00 -0.00000000000E+00 -0.45593999997E+02  0.45594000000E+02  0.51100000000E-03 0. -1.
         23    2    1    2    0    0  0.00000000000E+00  0.00000000000E+00  0.00000000000E+00  0.91188000000E+02  0.91188000000E+02 0.  0.
    9900012    2    3    3    0    0 -0.35444529840E+02  0.66425772008E+01  0.24149217801E+02  0.47787271345E+02  0.20000001368E+02 0.  0.
        -12    1    3    3    0    0  0.35444529840E+02 -0.66425772008E+01 -0.24149217801E+02  0.43400728655E+02  0.00000000000E+00 0.  1.
         11    1    4    4    0    0 -0.46522669724E+01  0.26416375475E+01  0.23683947235E+00  0.53551778786E+01  0.51100000000E-03 0. -1.
        -11    1    4    4    0    0 -0.23890789664E+02  0.10008263972E+02  0.17586295876E+02  0.31308353221E+02  0.51100000000E-03 0.  1.
        -12    1    4    4    0    0 -0.69014732036E+01 -0.60073243186E+01  0.63260824526E+01  0.11123740245E+02  0.00000000000E+00 0.  1.
</event>
<event>
 8    1  0.6469014E-010  0.9118800E+02  0.7816164E-02  0.1184000E+00
        -11   -1    0    0    0    0  0.00000000000E+00  0.00000000000E+00  0.45593999997E+02  0.45594000000E+02  0.51100000000E-03 0. -1.
         11   -1    0    0    0    0 -0.00000000000E+00 -0.00000000000E+00 -0.45593999997E+02  0.45594000000E+02  0.51100000000E-03 0.  1.
         23    2    1    2    0    0  0.00000000000E+00  0.00000000000E+00  0.00000000000E+00  0.91188000000E+02  0.91188000000E+02 0.  0.
    9900012    2    3    3    0    0  0.25806710307E+02  0.34496257124E+02 -0.52578416658E+01  0.47787274759E+02  0.20000016937E+02 0.  0.
         12    1    3    3    0    0 -0.25806710307E+02 -0.34496257124E+02  0.52578416658E+01  0.43400725241E+02  0.00000000000E+00 0. -1.
         11    1    4    4    0    0 -0.19907440936E+01  0.17181370050E+01 -0.39746120565E+00  0.26595173407E+01  0.51100000000E-03 0. -1.
        -11    1    4    4    0    0  0.28500940488E+02  0.29852693495E+02 -0.25826893427E+01  0.41354046985E+02  0.51100000000E-03 0.  1.
        -12    1    4    4    0    0 -0.70348608665E+00  0.29254266242E+01 -0.22776911174E+01  0.37737104333E+01  0.00000000000E+00 0.  1.
</event>
<event>
 8    1  0.6469014E-010  0.9118800E+02  0.7816164E-02  0.1184000E+00
        -11   -1    0    0    0    0  0.00000000000E+00  0.00000000000E+00  0.45593999997E+02  0.45594000000E+02  0.51100000000E-03 0. -1.
         11   -1    0    0    0    0 -0.00000000000E+00 -0.00000000000E+00 -0.45593999997E+02  0.45594000000E+02  0.51100000000E-03 0.  1.
         23    2    1    2    0    0  0.44408920985E-15 -0.35527136788E-14  0.00000000000E+00  0.91188000000E+02  0.91188000000E+02 0.  0.
    9900012    2    3    3    0    0 -0.25259895365E+01 -0.26703253020E+02 -0.34120076122E+02  0.47787263375E+02  0.19999965033E+02 0.  0.
         12    1    3    3    0    0  0.25259895365E+01  0.26703253020E+02  0.34120076122E+02  0.43400736625E+02  0.00000000000E+00 0. -1.
         11    1    4    4    0    0 -0.56499292308E+01 -0.18308210798E+01 -0.28508483723E+01  0.65879391954E+01  0.51100000000E-03 0. -1.
        -11    1    4    4    0    0 -0.18923597698E+01 -0.17285735152E+02 -0.23523310680E+02  0.29252757320E+02  0.51100000000E-03 0.  1.
         12    1    4    4    0    0  0.50162994642E+01 -0.75866967888E+01 -0.77459170698E+01  0.11946566860E+02  0.00000000000E+00 0. -1.
</event>
<event>
 8    1  0.6469014E-010  0.9118800E+02  0.7816164E-02  0.1184000E+00
        -11   -1    0    0    0    0  0.00000000000E+00  0.00000000000E+00  0.45593999997E+02  0.45594000000E+02  0.51100000000E-03 0. -1.
         11   -1    0    0    0    0 -0.00000000000E+00 -0.00000000000E+00 -0.45593999997E+02  0.45594000000E+02  0.51100000000E-03 0.  1.
         23    2    1    2    0    0 -0.11102230246E-15  0.35527136788E-14  0.00000000000E+00  0.91188000000E+02  0.91188000000E+02 0.  0.
    9900012    2    3    3    0    0 -0.59722511001E+00  0.28614348498E+02 -0.32626457699E+02  0.47787270055E+02  0.19999995487E+02 0.  0.
         12    1    3    3    0    0  0.59722511001E+00 -0.28614348498E+02  0.32626457699E+02  0.43400729945E+02  0.00000000000E+00 0. -1.
         11    1    4    4    0    0  0.20368393844E+01  0.11933067715E+02 -0.22971981127E+02  0.25966492581E+02  0.51100000000E-03 0. -1.
        -11    1    4    4    0    0 -0.42355680817E+01  0.17134277687E+02 -0.97307802284E+01  0.20154691587E+02  0.51100000000E-03 0.  1.
        -12    1    4    4    0    0  0.16015035873E+01 -0.45299690401E+00  0.76303657074E-01  0.16660858872E+01  0.00000000000E+00 0.  1.
</event>
<event>
 8    1  0.6469014E-010  0.9118800E+02  0.7816164E-02  0.1184000E+00
        -11   -1    0    0    0    0  0.00000000000E+00  0.00000000000E+00  0.45593999997E+02  0.45594000000E+02  0.51100000000E-03 0.  1.
         11   -1    0    0    0    0 -0.00000000000E+00 -0.00000000000E+00 -0.45593999997E+02  0.45594000000E+02  0.51100000000E-03 0. -1.
         23    2    1    2    0    0  0.00000000000E+00  0.00000000000E+00  0.00000000000E+00  0.91188000000E+02  0.91188000000E+02 0.  0.
    9900012    2    3    3    0    0 -0.17565038024E+01 -0.42478296831E+02  0.87253905686E+01  0.47787269040E+02  0.19999990861E+02 0.  0.
        -12    1    3    3    0    0  0.17565038024E+01  0.42478296831E+02 -0.87253905686E+01  0.43400730960E+02  0.00000000000E+00 0.  1.
         11    1    4    4    0    0  0.56311522905E+01 -0.14967384282E+02  0.50137201668E+01  0.16759172370E+02  0.51100000000E-03 0. -1.
        -11    1    4    4    0    0 -0.53193598256E+01 -0.19170657846E+02 -0.30062866286E+01  0.20120821821E+02  0.51100000000E-03 0.  1.
         12    1    4    4    0    0 -0.20682962673E+01 -0.83402547040E+01  0.67179570303E+01  0.10907274849E+02  0.00000000000E+00 0. -1.
</event>
<event>
 8    1  0.6469014E-010  0.9118800E+02  0.7816164E-02  0.1184000E+00
        -11   -1    0    0    0    0  0.00000000000E+00  0.00000000000E+00  0.45593999997E+02  0.45594000000E+02  0.51100000000E-03 0. -1.
         11   -1    0    0    0    0 -0.00000000000E+00 -0.00000000000E+00 -0.45593999997E+02  0.45594000000E+02  0.51100000000E-03 0.  1.
         23    2    1    2    0    0  0.35527136788E-14  0.44408920985E-15  0.71054273576E-14  0.91188000000E+02  0.91188000000E+02 0.  0.
    9900012    2    3    3    0    0  0.17978927732E+02  0.35298833194E+01  0.39343632604E+02  0.47787270224E+02  0.19999996258E+02 0.  0.
        -12    1    3    3    0    0 -0.17978927732E+02 -0.35298833194E+01 -0.39343632604E+02  0.43400729776E+02  0.00000000000E+00 0.  1.
         11    1    4    4    0    0  0.73025942994E+01 -0.65946595294E+00  0.36722052307E+01  0.82004798860E+01  0.51100000000E-03 0. -1.
        -11    1    4    4    0    0  0.12269560281E+01  0.23835761315E+01  0.41744903697E-01  0.26811563117E+01  0.51100000000E-03 0.  1.
         12    1    4    4    0    0  0.94493774047E+01  0.18057731409E+01  0.35629682470E+02  0.36905634026E+02  0.00000000000E+00 0. -1.
</event>
<event>
 8    1  0.6469014E-010  0.9118800E+02  0.7816164E-02  0.1184000E+00
        -11   -1    0    0    0    0  0.00000000000E+00  0.00000000000E+00  0.45593999997E+02  0.45594000000E+02  0.51100000000E-03 0. -1.
         11   -1    0    0    0    0 -0.00000000000E+00 -0.00000000000E+00 -0.45593999997E+02  0.45594000000E+02  0.51100000000E-03 0.  1.
         23    2    1    2    0    0  0.00000000000E+00  0.00000000000E+00  0.00000000000E+00  0.91188000000E+02  0.91188000000E+02 0.  0.
    9900012    2    3    3    0    0 -0.34584579938E+02  0.19882046776E+02 -0.17094865843E+02  0.47787269687E+02  0.19999993811E+02 0.  0.
         12    1    3    3    0    0  0.34584579938E+02 -0.19882046776E+02  0.17094865843E+02  0.43400730313E+02  0.00000000000E+00 0. -1.
         11    1    4    4    0    0 -0.13229950208E+02  0.16166671945E+02 -0.70444977531E+01  0.22045811692E+02  0.51100000000E-03 0. -1.
        -11    1    4    4    0    0 -0.14449363805E+02 -0.18969133772E+01 -0.44927775864E+01  0.15250162144E+02  0.51100000000E-03 0.  1.
        -12    1    4    4    0    0 -0.69052659255E+01  0.56122882079E+01 -0.55575905033E+01  0.10491295851E+02  0.00000000000E+00 0.  1.
</event>
<event>
 8    1  0.6469014E-010  0.9118800E+02  0.7816164E-02  0.1184000E+00
        -11   -1    0    0    0    0  0.00000000000E+00  0.00000000000E+00  0.45593999997E+02  0.45594000000E+02  0.51100000000E-03 0. -1.
         11   -1    0    0    0    0 -0.00000000000E+00 -0.00000000000E+00 -0.45593999997E+02  0.45594000000E+02  0.51100000000E-03 0.  1.
         23    2    1    2    0    0 -0.44408920985E-15  0.00000000000E+00 -0.71054273576E-14  0.91188000000E+02  0.91188000000E+02 0.  0.
    9900012    2    3    3    0    0 -0.12889293098E+01  0.12334808575E+01 -0.43364046022E+02  0.47787270729E+02  0.19999998564E+02 0.  0.
         12    1    3    3    0    0  0.12889293098E+01 -0.12334808575E+01  0.43364046022E+02  0.43400729271E+02  0.00000000000E+00 0. -1.
         11    1    4    4    0    0 -0.49578406178E+01  0.17910528440E+01 -0.42474077022E+01  0.67696769739E+01  0.51100000000E-03 0. -1.
        -11    1    4    4    0    0  0.75150171740E+01 -0.26420201386E+01 -0.24920975788E+02  0.26163157073E+02  0.51100000000E-03 0.  1.
         12    1    4    4    0    0 -0.38461058660E+01  0.20844481522E+01 -0.14195662532E+02  0.14854436682E+02  0.00000000000E+00 0. -1.
</event>
<event>
 8    1  0.6469014E-010  0.9118800E+02  0.7816164E-02  0.1184000E+00
        -11   -1    0    0    0    0  0.00000000000E+00  0.00000000000E+00  0.45593999997E+02  0.45594000000E+02  0.51100000000E-03 0. -1.
         11   -1    0    0    0    0 -0.00000000000E+00 -0.00000000000E+00 -0.45593999997E+02  0.45594000000E+02  0.51100000000E-03 0.  1.
         23    2    1    2    0    0  0.00000000000E+00  0.00000000000E+00  0.00000000000E+00  0.91188000000E+02  0.91188000000E+02 0.  0.
    9900012    2    3    3    0    0  0.16140582094E+02  0.25118621699E+02 -0.31498568857E+02  0.47787269748E+02  0.19999994087E+02 0.  0.
         12    1    3    3    0    0 -0.16140582094E+02 -0.25118621699E+02  0.31498568857E+02  0.43400730252E+02  0.00000000000E+00 0. -1.
         11    1    4    4    0    0  0.16520366161E+02  0.11660990588E+02 -0.25487521536E+02  0.32534826785E+02  0.51100000000E-03 0. -1.
        -11    1    4    4    0    0 -0.15708053468E+01  0.12123246578E+02 -0.51089604743E+01  0.13249226936E+02  0.51100000000E-03 0.  1.
         12    1    4    4    0    0  0.11910212793E+01  0.13343845332E+01 -0.90208684666E+00  0.20032160266E+01  0.00000000000E+00 0. -1.
</event>
<event>
 8    1  0.6469014E-010  0.9118800E+02  0.7816164E-02  0.1184000E+00
        -11   -1    0    0    0    0  0.00000000000E+00  0.00000000000E+00  0.45593999997E+02  0.45594000000E+02  0.51100000000E-03 0. -1.
         11   -1    0    0    0    0 -0.00000000000E+00 -0.00000000000E+00 -0.45593999997E+02  0.45594000000E+02  0.51100000000E-03 0.  1.
         23    2    1    2    0    0  0.35527136788E-14  0.00000000000E+00  0.00000000000E+00  0.91188000000E+02  0.91188000000E+02 0.  0.
    9900012    2    3    3    0    0 -0.22834889613E+02 -0.21065606810E+02 -0.30305629002E+02  0.47787272782E+02  0.20000007921E+02 0.  0.
         12    1    3    3    0    0  0.22834889613E+02  0.21065606810E+02  0.30305629002E+02  0.43400727218E+02  0.00000000000E+00 0. -1.
         11    1    4    4    0    0 -0.11710477687E+01 -0.38309519683E+01 -0.15638843099E+01  0.43003814082E+01  0.51100000000E-03 0. -1.
        -11    1    4    4    0    0  0.29347620658E+01 -0.18449739982E+01 -0.18680148436E+01  0.39377959767E+01  0.51100000000E-03 0.  1.
        -12    1    4    4    0    0 -0.24598603910E+02 -0.15389680843E+02 -0.26873729848E+02  0.39549095397E+02  0.00000000000E+00 0.  1.
</event>
<event>
 8    1  0.6469014E-010  0.9118800E+02  0.7816164E-02  0.1184000E+00
        -11   -1    0    0    0    0  0.00000000000E+00  0.00000000000E+00  0.45593999997E+02  0.45594000000E+02  0.51100000000E-03 0. -1.
         11   -1    0    0    0    0 -0.00000000000E+00 -0.00000000000E+00 -0.45593999997E+02  0.45594000000E+02  0.51100000000E-03 0.  1.
         23    2    1    2    0    0  0.00000000000E+00  0.00000000000E+00  0.00000000000E+00  0.91188000000E+02  0.91188000000E+02 0.  0.
    9900012    2    3    3    0    0  0.19830417763E+02  0.19112305324E+02 -0.33542478069E+02  0.47787268227E+02  0.19999987152E+02 0.  0.
         12    1    3    3    0    0 -0.19830417763E+02 -0.19112305324E+02  0.33542478069E+02  0.43400731773E+02  0.00000000000E+00 0. -1.
         11    1    4    4    0    0  0.12700181963E+01 -0.17736832530E+01 -0.99016424040E+00  0.23956886244E+01  0.51100000000E-03 0. -1.
        -11    1    4    4    0    0  0.19008048959E+02  0.22602019426E+02 -0.31975005644E+02  0.43526522875E+02  0.51100000000E-03 0.  1.
        -12    1    4    4    0    0 -0.44764939221E+00 -0.17160308497E+01 -0.57730818491E+00  0.18650567273E+01  0.00000000000E+00 0.  1.
</event>
<event>
 8    1  0.6469014E-010  0.9118800E+02  0.7816164E-02  0.1184000E+00
        -11   -1    0    0    0    0  0.00000000000E+00  0.00000000000E+00  0.45593999997E+02  0.45594000000E+02  0.51100000000E-03 0. -1.
         11   -1    0    0    0    0 -0.00000000000E+00 -0.00000000000E+00 -0.45593999997E+02  0.45594000000E+02  0.51100000000E-03 0.  1.
         23    2    1    2    0    0  0.66613381478E-15  0.00000000000E+00 -0.71054273576E-14  0.91188000000E+02  0.91188000000E+02 0.  0.
    9900012    2    3    3    0    0  0.97788929698E+00  0.84509178912E+01  0.42558784219E+02  0.47787258130E+02  0.19999941116E+02 0.  0.
        -12    1    3    3    0    0 -0.97788929698E+00 -0.84509178912E+01 -0.42558784219E+02  0.43400741870E+02  0.00000000000E+00 0.  1.
         11    1    4    4    0    0  0.15233717661E+01 -0.26525314352E+01  0.19105134503E+02  0.19348455990E+02  0.51100000000E-03 0. -1.
        -11    1    4    4    0    0  0.34313440494E+01  0.98951602011E+01  0.10482162326E+02  0.14817693636E+02  0.51100000000E-03 0.  1.
        -12    1    4    4    0    0 -0.39768265185E+01  0.12082891254E+01  0.12971487390E+02  0.13621108504E+02  0.00000000000E+00 0.  1.
</event>
<event>
 8    1  0.6469014E-010  0.9118800E+02  0.7816164E-02  0.1184000E+00
        -11   -1    0    0    0    0  0.00000000000E+00  0.00000000000E+00  0.45593999997E+02  0.45594000000E+02  0.51100000000E-03 0. -1.
         11   -1    0    0    0    0 -0.00000000000E+00 -0.00000000000E+00 -0.45593999997E+02  0.45594000000E+02  0.51100000000E-03 0.  1.
         23    2    1    2    0    0 -0.35527136788E-14  0.00000000000E+00  0.00000000000E+00  0.91188000000E+02  0.91188000000E+02 0.  0.
    9900012    2    3    3    0    0  0.29670465314E+02  0.29664945910E+02 -0.11103036387E+02  0.47787274836E+02  0.20000017286E+02 0.  0.
         12    1    3    3    0    0 -0.29670465314E+02 -0.29664945910E+02  0.11103036387E+02  0.43400725164E+02  0.00000000000E+00 0. -1.
         11    1    4    4    0    0  0.43867016185E+01  0.14927329469E+02 -0.68782112538E+01  0.17011117143E+02  0.51100000000E-03 0. -1.
        -11    1    4    4    0    0  0.17446818351E+02  0.14277488944E+02 -0.20910917961E+01  0.22640910456E+02  0.51100000000E-03 0.  1.
        -12    1    4    4    0    0  0.78369453441E+01  0.46012749772E+00 -0.21337333370E+01  0.81352472362E+01  0.00000000000E+00 0.  1.
</event>
<event>
 8    1  0.6469014E-010  0.9118800E+02  0.7816164E-02  0.1184000E+00
        -11   -1    0    0    0    0  0.00000000000E+00  0.00000000000E+00  0.45593999997E+02  0.45594000000E+02  0.51100000000E-03 0.  1.
         11   -1    0    0    0    0 -0.00000000000E+00 -0.00000000000E+00 -0.45593999997E+02  0.45594000000E+02  0.51100000000E-03 0. -1.
         23    2    1    2    0    0 -0.71054273576E-14 -0.88817841970E-15  0.35527136788E-14  0.91188000000E+02  0.91188000000E+02 0.  0.
    9900012    2    3    3    0    0 -0.36995502485E+02 -0.79640329277E+01  0.21249239123E+02  0.47787272035E+02  0.20000004516E+02 0.  0.
        -12    1    3    3    0    0  0.36995502485E+02  0.79640329277E+01 -0.21249239123E+02  0.43400727965E+02  0.00000000000E+00 0.  1.
         11    1    4    4    0    0 -0.87311505991E+01 -0.50811836855E+01  0.14544700098E+01  0.10206218776E+02  0.51100000000E-03 0. -1.
        -11    1    4    4    0    0 -0.22958937760E+02 -0.37466095219E+00  0.78398990291E+01  0.24263495440E+02  0.51100000000E-03 0.  1.
        -12    1    4    4    0    0 -0.53054141254E+01 -0.25081882901E+01  0.11954870084E+02  0.13317557819E+02  0.00000000000E+00 0.  1.
</event>
<event>
 8    1  0.6469014E-010  0.9118800E+02  0.7816164E-02  0.1184000E+00
        -11   -1    0    0    0    0  0.00000000000E+00  0.00000000000E+00  0.45593999997E+02  0.45594000000E+02  0.51100000000E-03 0.  1.
         11   -1    0    0    0    0 -0.00000000000E+00 -0.00000000000E+00 -0.45593999997E+02  0.45594000000E+02  0.51100000000E-03 0. -1.
         23    2    1    2    0    0  0.17763568394E-14 -0.71054273576E-14  0.17763568394E-14  0.91188000000E+02  0.91188000000E+02 0.  0.
    9900012    2    3    3    0    0 -0.85936522707E+01  0.42505095018E+02 -0.17577190299E+01  0.47787268002E+02  0.19999986127E+02 0.  0.
         12    1    3    3    0    0  0.85936522707E+01 -0.42505095018E+02  0.17577190299E+01  0.43400731998E+02  0.00000000000E+00 0. -1.
         11    1    4    4    0    0 -0.17172037585E+01  0.48868440577E+01 -0.37754008646E+01  0.64096556493E+01  0.51100000000E-03 0. -1.
        -11    1    4    4    0    0 -0.75271570722E+01  0.14405613068E+02  0.68842028585E+01  0.17651403080E+02  0.51100000000E-03 0.  1.
        -12    1    4    4    0    0  0.65070855999E+00  0.23212637892E+02 -0.48665210238E+01  0.23726209272E+02  0.00000000000E+00 0.  1.
</event>
<event>
 8    1  0.6469014E-010  0.9118800E+02  0.7816164E-02  0.1184000E+00
        -11   -1    0    0    0    0  0.00000000000E+00  0.00000000000E+00  0.45593999997E+02  0.45594000000E+02  0.51100000000E-03 0. -1.
         11   -1    0    0    0    0 -0.00000000000E+00 -0.00000000000E+00 -0.45593999997E+02  0.45594000000E+02  0.51100000000E-03 0.  1.
         23    2    1    2    0    0  0.00000000000E+00  0.00000000000E+00  0.00000000000E+00  0.91188000000E+02  0.91188000000E+02 0.  0.
    9900012    2    3    3    0    0 -0.26333657456E+01 -0.20810013709E+02 -0.37995158232E+02  0.47787270343E+02  0.19999996802E+02 0.  0.
         12    1    3    3    0    0  0.26333657456E+01  0.20810013709E+02  0.37995158232E+02  0.43400729657E+02  0.00000000000E+00 0. -1.
         11    1    4    4    0    0  0.44092675259E+01 -0.13567511402E+02 -0.92038512413E+01  0.16977334411E+02  0.51100000000E-03 0. -1.
        -11    1    4    4    0    0 -0.61144006156E+01 -0.33647097503E+01 -0.18016049954E+02  0.19320590643E+02  0.51100000000E-03 0.  1.
         12    1    4    4    0    0 -0.92823265588E+00 -0.38777925566E+01 -0.10775257036E+02  0.11489345289E+02  0.00000000000E+00 0. -1.
</event>
<event>
 8    1  0.6469014E-010  0.9118800E+02  0.7816164E-02  0.1184000E+00
        -11   -1    0    0    0    0  0.00000000000E+00  0.00000000000E+00  0.45593999997E+02  0.45594000000E+02  0.51100000000E-03 0. -1.
         11   -1    0    0    0    0 -0.00000000000E+00 -0.00000000000E+00 -0.45593999997E+02  0.45594000000E+02  0.51100000000E-03 0.  1.
         23    2    1    2    0    0  0.17763568394E-14  0.00000000000E+00  0.71054273576E-14  0.91188000000E+02  0.91188000000E+02 0.  0.
    9900012    2    3    3    0    0 -0.15561638164E+02  0.48535452125E+01  0.40223159165E+02  0.47787262487E+02  0.19999960985E+02 0.  0.
        -12    1    3    3    0    0  0.15561638164E+02 -0.48535452125E+01 -0.40223159165E+02  0.43400737513E+02  0.00000000000E+00 0.  1.
         11    1    4    4    0    0 -0.12433319127E+02  0.91437676614E+01  0.29113626654E+02  0.32951466869E+02  0.51100000000E-03 0. -1.
        -11    1    4    4    0    0 -0.40909290078E+00 -0.49261160717E+01  0.10978663238E+02  0.12040142163E+02  0.51100000000E-03 0.  1.
         12    1    4    4    0    0 -0.27192261360E+01  0.63589362274E+00  0.13086927236E+00  0.27956534557E+01  0.00000000000E+00 0. -1.
</event>
<event>
 8    1  0.8549800E-010  0.9118800E+02  0.7816164E-02  0.1184000E+00
        -11   -1    0    0    0    0  0.00000000000E+00  0.00000000000E+00  0.45593999997E+02  0.45594000000E+02  0.51100000000E-03 0. -1.
         11   -1    0    0    0    0 -0.00000000000E+00 -0.00000000000E+00 -0.45593999997E+02  0.45594000000E+02  0.51100000000E-03 0.  1.
         23    2    1    2    0    0  0.00000000000E+00  0.00000000000E+00  0.00000000000E+00  0.91188000000E+02  0.91188000000E+02 0.  0.
    9900012    2    3    3    0    0 -0.17337064710E+02  0.93132418139E+01 -0.38682216519E+02  0.47787260828E+02  0.19999953417E+02 0.  0.
         12    1    3    3    0    0  0.17337064710E+02 -0.93132418139E+01  0.38682216519E+02  0.43400739172E+02  0.00000000000E+00 0. -1.
         11    1    4    4    0    0  0.20007258613E+01 -0.93239934602E+00 -0.29229560800E+00  0.22265914524E+01  0.51100000000E-03 0. -1.
        -11    1    4    4    0    0 -0.15066838850E+02  0.23214874700E+01 -0.27392638026E+02  0.31348932283E+02  0.51100000000E-03 0.  1.
         12    1    4    4    0    0 -0.42709517219E+01  0.79241536900E+01 -0.10997282885E+02  0.14211737092E+02  0.00000000000E+00 0. -1.
</event>
<event>
 8    1  0.6469014E-010  0.9118800E+02  0.7816164E-02  0.1184000E+00
        -11   -1    0    0    0    0  0.00000000000E+00  0.00000000000E+00  0.45593999997E+02  0.45594000000E+02  0.51100000000E-03 0. -1.
         11   -1    0    0    0    0 -0.00000000000E+00 -0.00000000000E+00 -0.45593999997E+02  0.45594000000E+02  0.51100000000E-03 0.  1.
         23    2    1    2    0    0  0.00000000000E+00 -0.88817841970E-15  0.00000000000E+00  0.91188000000E+02  0.91188000000E+02 0.  0.
    9900012    2    3    3    0    0  0.23522736782E+02 -0.30243082797E+01 -0.36347733881E+02  0.47787270230E+02  0.19999996288E+02 0.  0.
         12    1    3    3    0    0 -0.23522736782E+02  0.30243082797E+01  0.36347733881E+02  0.43400729770E+02  0.00000000000E+00 0. -1.
         11    1    4    4    0    0  0.47093338198E+01  0.44802601827E+01 -0.13798204039E+02  0.15252573268E+02  0.51100000000E-03 0. -1.
        -11    1    4    4    0    0  0.55785730669E+01 -0.11370753687E+01 -0.14951563598E+02  0.15998833462E+02  0.51100000000E-03 0.  1.
         12    1    4    4    0    0  0.13234829896E+02 -0.63674930937E+01 -0.75979662436E+01  0.16535863500E+02  0.00000000000E+00 0. -1.
</event>
<event>
 8    1  0.6469014E-010  0.9118800E+02  0.7816164E-02  0.1184000E+00
        -11   -1    0    0    0    0  0.00000000000E+00  0.00000000000E+00  0.45593999997E+02  0.45594000000E+02  0.51100000000E-03 0. -1.
         11   -1    0    0    0    0 -0.00000000000E+00 -0.00000000000E+00 -0.45593999997E+02  0.45594000000E+02  0.51100000000E-03 0.  1.
         23    2    1    2    0    0  0.00000000000E+00  0.00000000000E+00  0.00000000000E+00  0.91188000000E+02  0.91188000000E+02 0.  0.
    9900012    2    3    3    0    0 -0.25017895543E+01 -0.76160480506E+01 -0.42653958297E+02  0.47787270775E+02  0.19999998771E+02 0.  0.
         12    1    3    3    0    0  0.25017895543E+01  0.76160480506E+01  0.42653958297E+02  0.43400729225E+02  0.00000000000E+00 0. -1.
         11    1    4    4    0    0 -0.10918530620E+01 -0.55576866801E+01 -0.83378519665E+00  0.57249648347E+01  0.51100000000E-03 0. -1.
        -11    1    4    4    0    0  0.90717430382E+00 -0.19917870076E+01 -0.20378965540E+02  0.20496156163E+02  0.51100000000E-03 0.  1.
         12    1    4    4    0    0 -0.23171107961E+01 -0.66574362874E-01 -0.21441207560E+02  0.21566149777E+02  0.00000000000E+00 0. -1.
</event>
<event>
 8    1  0.6469014E-010  0.9118800E+02  0.7816164E-02  0.1184000E+00
        -11   -1    0    0    0    0  0.00000000000E+00  0.00000000000E+00  0.45593999997E+02  0.45594000000E+02  0.51100000000E-03 0. -1.
         11   -1    0    0    0    0 -0.00000000000E+00 -0.00000000000E+00 -0.45593999997E+02  0.45594000000E+02  0.51100000000E-03 0.  1.
         23    2    1    2    0    0  0.35527136788E-14  0.35527136788E-14  0.00000000000E+00  0.91188000000E+02  0.91188000000E+02 0.  0.
    9900012    2    3    3    0    0 -0.25233244373E+02 -0.29941812503E+02 -0.18718827250E+02  0.47787271306E+02  0.20000001192E+02 0.  0.
        -12    1    3    3    0    0  0.25233244373E+02  0.29941812503E+02  0.18718827250E+02  0.43400728694E+02  0.00000000000E+00 0.  1.
         11    1    4    4    0    0 -0.12065998509E+02 -0.15659259965E+02  0.63308503374E+00  0.19778815424E+02  0.51100000000E-03 0. -1.
        -11    1    4    4    0    0 -0.36805340593E+01 -0.19693927434E+01 -0.70181687391E+01  0.81657535752E+01  0.51100000000E-03 0.  1.
         12    1    4    4    0    0 -0.94867118044E+01 -0.12313159795E+02 -0.12333743545E+02  0.19842702306E+02  0.00000000000E+00 0. -1.
</event>
<event>
 8    1  0.6469014E-010  0.9118800E+02  0.7816164E-02  0.1184000E+00
        -11   -1    0    0    0    0  0.00000000000E+00  0.00000000000E+00  0.45593999997E+02  0.45594000000E+02  0.51100000000E-03 0. -1.
         11   -1    0    0    0    0 -0.00000000000E+00 -0.00000000000E+00 -0.45593999997E+02  0.45594000000E+02  0.51100000000E-03 0.  1.
         23    2    1    2    0    0  0.00000000000E+00  0.00000000000E+00  0.00000000000E+00  0.91188000000E+02  0.91188000000E+02 0.  0.
    9900012    2    3    3    0    0  0.17503849195E+02  0.37602995811E+02  0.12777062504E+02  0.47787270088E+02  0.19999995641E+02 0.  0.
        -12    1    3    3    0    0 -0.17503849195E+02 -0.37602995811E+02 -0.12777062504E+02  0.43400729912E+02  0.00000000000E+00 0.  1.
         11    1    4    4    0    0  0.82815249033E+01  0.23038392240E+02  0.33904808046E+01  0.24715309670E+02  0.51100000000E-03 0. -1.
        -11    1    4    4    0    0  0.72667402716E+00  0.20854005222E+01  0.75472954948E+01  0.78637535584E+01  0.51100000000E-03 0.  1.
        -12    1    4    4    0    0  0.84956502644E+01  0.12479203049E+02  0.18392862044E+01  0.15208206860E+02  0.00000000000E+00 0.  1.
</event>
<event>
 8    1  0.6469014E-010  0.9118800E+02  0.7816164E-02  0.1184000E+00
        -11   -1    0    0    0    0  0.00000000000E+00  0.00000000000E+00  0.45593999997E+02  0.45594000000E+02  0.51100000000E-03 0. -1.
         11   -1    0    0    0    0 -0.00000000000E+00 -0.00000000000E+00 -0.45593999997E+02  0.45594000000E+02  0.51100000000E-03 0.  1.
         23    2    1    2    0    0 -0.35527136788E-14  0.17763568394E-14 -0.35527136788E-14  0.91188000000E+02  0.91188000000E+02 0.  0.
    9900012    2    3    3    0    0  0.31084104478E+02 -0.12445881591E+02  0.27613433487E+02  0.47787271565E+02  0.20000002374E+02 0.  0.
        -12    1    3    3    0    0 -0.31084104478E+02  0.12445881591E+02 -0.27613433487E+02  0.43400728435E+02  0.00000000000E+00 0.  1.
         11    1    4    4    0    0  0.11840760641E+02 -0.10142860499E+02  0.45994701940E+01  0.16255348596E+02  0.51100000000E-03 0. -1.
        -11    1    4    4    0    0  0.14723175804E+02 -0.16707458796E+01  0.22497204216E+02  0.26938587479E+02  0.51100000000E-03 0.  1.
         12    1    4    4    0    0  0.45201680319E+01 -0.63227521247E+00  0.51675907724E+00  0.45933354901E+01  0.00000000000E+00 0. -1.
</event>
<event>
 8    1  0.6469014E-010  0.9118800E+02  0.7816164E-02  0.1184000E+00
        -11   -1    0    0    0    0  0.00000000000E+00  0.00000000000E+00  0.45593999997E+02  0.45594000000E+02  0.51100000000E-03 0. -1.
         11   -1    0    0    0    0 -0.00000000000E+00 -0.00000000000E+00 -0.45593999997E+02  0.45594000000E+02  0.51100000000E-03 0.  1.
         23    2    1    2    0    0  0.00000000000E+00 -0.17763568394E-14  0.00000000000E+00  0.91188000000E+02  0.91188000000E+02 0.  0.
    9900012    2    3    3    0    0  0.25454352864E+02  0.13468143391E+02  0.32470114954E+02  0.47787270384E+02  0.19999996987E+02 0.  0.
        -12    1    3    3    0    0 -0.25454352864E+02 -0.13468143391E+02 -0.32470114954E+02  0.43400729616E+02  0.00000000000E+00 0.  1.
         11    1    4    4    0    0  0.25351157126E+02  0.62409780722E+01  0.24455591933E+02  0.35772991935E+02  0.51100000000E-03 0. -1.
        -11    1    4    4    0    0  0.79045402227E+00  0.56011028238E+01  0.24283705321E+01  0.61558227806E+01  0.51100000000E-03 0.  1.
         12    1    4    4    0    0 -0.68725828415E+00  0.16260624951E+01  0.55861524884E+01  0.58584556678E+01  0.00000000000E+00 0. -1.
</event>
<event>
 8    1  0.6469014E-010  0.9118800E+02  0.7816164E-02  0.1184000E+00
        -11   -1    0    0    0    0  0.00000000000E+00  0.00000000000E+00  0.45593999997E+02  0.45594000000E+02  0.51100000000E-03 0. -1.
         11   -1    0    0    0    0 -0.00000000000E+00 -0.00000000000E+00 -0.45593999997E+02  0.45594000000E+02  0.51100000000E-03 0.  1.
         23    2    1    2    0    0  0.00000000000E+00  0.00000000000E+00  0.35527136788E-14  0.91188000000E+02  0.91188000000E+02 0.  0.
    9900012    2    3    3    0    0 -0.23606857137E+02 -0.21454055280E+02 -0.29428960575E+02  0.47787263689E+02  0.19999966462E+02 0.  0.
         12    1    3    3    0    0  0.23606857137E+02  0.21454055280E+02  0.29428960575E+02  0.43400736311E+02  0.00000000000E+00 0. -1.
         11    1    4    4    0    0  0.86011720208E-01 -0.30394403679E+01 -0.31246334154E+01  0.43599231653E+01  0.51100000000E-03 0. -1.
        -11    1    4    4    0    0 -0.14800597484E+02 -0.20626542066E+02 -0.19620259627E+02  0.32085300553E+02  0.51100000000E-03 0.  1.
        -12    1    4    4    0    0 -0.88922713736E+01  0.22119271540E+01 -0.66840675324E+01  0.11342039971E+02  0.00000000000E+00 0.  1.
</event>
<event>
 8    1  0.6469014E-010  0.9118800E+02  0.7816164E-02  0.1184000E+00
        -11   -1    0    0    0    0  0.00000000000E+00  0.00000000000E+00  0.45593999997E+02  0.45594000000E+02  0.51100000000E-03 0. -1.
         11   -1    0    0    0    0 -0.00000000000E+00 -0.00000000000E+00 -0.45593999997E+02  0.45594000000E+02  0.51100000000E-03 0.  1.
         23    2    1    2    0    0  0.17763568394E-14  0.00000000000E+00  0.00000000000E+00  0.91188000000E+02  0.91188000000E+02 0.  0.
    9900012    2    3    3    0    0 -0.91829346870E+01 -0.42406880876E+02  0.97658664960E+00  0.47787267787E+02  0.19999985149E+02 0.  0.
        -12    1    3    3    0    0  0.91829346870E+01  0.42406880876E+02 -0.97658664960E+00  0.43400732213E+02  0.00000000000E+00 0.  1.
         11    1    4    4    0    0  0.12648960908E+01  0.15138947044E+01  0.44264694625E+00  0.20218248878E+01  0.51100000000E-03 0.  1.
        -11    1    4    4    0    0 -0.87187930703E+01 -0.40544277199E+02 -0.14258639752E+01  0.41495648622E+02  0.51100000000E-03 0. -1.
         12    1    4    4    0    0 -0.17290377075E+01 -0.33764983815E+01  0.19598036786E+01  0.42697942776E+01  0.00000000000E+00 0. -1.
</event>
<event>
 8    1  0.6469014E-010  0.9118800E+02  0.7816164E-02  0.1184000E+00
        -11   -1    0    0    0    0  0.00000000000E+00  0.00000000000E+00  0.45593999997E+02  0.45594000000E+02  0.51100000000E-03 0. -1.
         11   -1    0    0    0    0 -0.00000000000E+00 -0.00000000000E+00 -0.45593999997E+02  0.45594000000E+02  0.51100000000E-03 0.  1.
         23    2    1    2    0    0 -0.35527136788E-14 -0.33306690739E-15  0.00000000000E+00  0.91188000000E+02  0.91188000000E+02 0.  0.
    9900012    2    3    3    0    0 -0.19983814639E+02 -0.54712259315E+00  0.38522340674E+02  0.47787275102E+02  0.20000018501E+02 0.  0.
        -12    1    3    3    0    0  0.19983814639E+02  0.54712259315E+00 -0.38522340674E+02  0.43400724898E+02  0.00000000000E+00 0.  1.
         11    1    4    4    0    0 -0.15181150065E+01 -0.29656935397E+01  0.46574222811E+01  0.57263944947E+01  0.51100000000E-03 0. -1.
        -11    1    4    4    0    0 -0.16610900568E+02 -0.23716430953E+01  0.32759257008E+02  0.36806461778E+02  0.51100000000E-03 0.  1.
        -12    1    4    4    0    0 -0.18547990647E+01  0.47902140418E+01  0.11056613849E+01  0.52544188294E+01  0.00000000000E+00 0.  1.
</event>
<event>
 8    1  0.6469014E-010  0.9118800E+02  0.7816164E-02  0.1184000E+00
        -11   -1    0    0    0    0  0.00000000000E+00  0.00000000000E+00  0.45593999997E+02  0.45594000000E+02  0.51100000000E-03 0. -1.
         11   -1    0    0    0    0 -0.00000000000E+00 -0.00000000000E+00 -0.45593999997E+02  0.45594000000E+02  0.51100000000E-03 0.  1.
         23    2    1    2    0    0  0.00000000000E+00  0.00000000000E+00  0.35527136788E-14  0.91188000000E+02  0.91188000000E+02 0.  0.
    9900012    2    3    3    0    0 -0.18079747174E+02  0.26189493103E+02  0.29510268229E+02  0.47787277220E+02  0.20000028156E+02 0.  0.
        -12    1    3    3    0    0  0.18079747174E+02 -0.26189493103E+02 -0.29510268229E+02  0.43400722780E+02  0.00000000000E+00 0.  1.
         11    1    4    4    0    0 -0.10702695047E+02  0.24378680250E+02  0.14256219941E+02  0.30201118180E+02  0.51100000000E-03 0. -1.
        -11    1    4    4    0    0 -0.44059998025E+01  0.31778095933E+01  0.10396778667E+02  0.11730486562E+02  0.51100000000E-03 0.  1.
         12    1    4    4    0    0 -0.29710523244E+01 -0.13669967402E+01  0.48572696204E+01  0.58556724778E+01  0.00000000000E+00 0. -1.
</event>
<event>
 8    1  0.6469014E-010  0.9118800E+02  0.7816164E-02  0.1184000E+00
        -11   -1    0    0    0    0  0.00000000000E+00  0.00000000000E+00  0.45593999997E+02  0.45594000000E+02  0.51100000000E-03 0.  1.
         11   -1    0    0    0    0 -0.00000000000E+00 -0.00000000000E+00 -0.45593999997E+02  0.45594000000E+02  0.51100000000E-03 0. -1.
         23    2    1    2    0    0  0.00000000000E+00 -0.71054273576E-14  0.00000000000E+00  0.91188000000E+02  0.91188000000E+02 0.  0.
    9900012    2    3    3    0    0  0.25398764264E+02 -0.34481159551E+02 -0.70409921618E+01  0.47787272348E+02  0.20000005943E+02 0.  0.
         12    1    3    3    0    0 -0.25398764264E+02  0.34481159551E+02  0.70409921618E+01  0.43400727652E+02  0.00000000000E+00 0. -1.
         11    1    4    4    0    0  0.16372794592E+02 -0.10293038905E+02 -0.76811530915E+01  0.20809016453E+02  0.51100000000E-03 0. -1.
        -11    1    4    4    0    0  0.16854664526E+01 -0.15033661296E+02  0.15609579190E+01  0.15208167510E+02  0.51100000000E-03 0.  1.
         12    1    4    4    0    0  0.73405032196E+01 -0.91544593490E+01 -0.92079698922E+00  0.11770088385E+02  0.00000000000E+00 0. -1.
</event>
<event>
 8    1  0.6469014E-010  0.9118800E+02  0.7816164E-02  0.1184000E+00
        -11   -1    0    0    0    0  0.00000000000E+00  0.00000000000E+00  0.45593999997E+02  0.45594000000E+02  0.51100000000E-03 0. -1.
         11   -1    0    0    0    0 -0.00000000000E+00 -0.00000000000E+00 -0.45593999997E+02  0.45594000000E+02  0.51100000000E-03 0.  1.
         23    2    1    2    0    0  0.00000000000E+00  0.00000000000E+00  0.00000000000E+00  0.91188000000E+02  0.91188000000E+02 0.  0.
    9900012    2    3    3    0    0  0.23295038646E+02 -0.17663155704E+02  0.32077677001E+02  0.47787271242E+02  0.20000000902E+02 0.  0.
        -12    1    3    3    0    0 -0.23295038646E+02  0.17663155704E+02 -0.32077677001E+02  0.43400728758E+02  0.00000000000E+00 0.  1.
         11    1    4    4    0    0  0.15849109471E+02 -0.99996416242E+01  0.11972851332E+02  0.22238171529E+02  0.51100000000E-03 0. -1.
        -11    1    4    4    0    0  0.37847248794E+01 -0.66693656915E+01  0.20350521324E+02  0.21747374544E+02  0.51100000000E-03 0.  1.
        -12    1    4    4    0    0  0.36612042952E+01 -0.99414838838E+00 -0.24569565594E+00  0.38017251696E+01  0.00000000000E+00 0.  1.
</event>
<event>
 8    1  0.6469014E-010  0.9118800E+02  0.7816164E-02  0.1184000E+00
        -11   -1    0    0    0    0  0.00000000000E+00  0.00000000000E+00  0.45593999997E+02  0.45594000000E+02  0.51100000000E-03 0. -1.
         11   -1    0    0    0    0 -0.00000000000E+00 -0.00000000000E+00 -0.45593999997E+02  0.45594000000E+02  0.51100000000E-03 0.  1.
         23    2    1    2    0    0  0.17763568394E-14  0.35527136788E-14 -0.71054273576E-14  0.91188000000E+02  0.91188000000E+02 0.  0.
    9900012    2    3    3    0    0 -0.13952803305E+02  0.22808745328E+02 -0.34186310427E+02  0.47787269544E+02  0.19999993159E+02 0.  0.
         12    1    3    3    0    0  0.13952803305E+02 -0.22808745328E+02  0.34186310427E+02  0.43400730456E+02  0.00000000000E+00 0. -1.
         11    1    4    4    0    0 -0.13708588785E+02  0.14156832650E+02 -0.15849224728E+02  0.25289113110E+02  0.51100000000E-03 0. -1.
        -11    1    4    4    0    0  0.28375204103E+01  0.87679232077E+01 -0.99501674496E+01  0.13562220762E+02  0.51100000000E-03 0.  1.
        -12    1    4    4    0    0 -0.30817349306E+01 -0.11601052917E+00 -0.83869182492E+01  0.89359356726E+01  0.00000000000E+00 0.  1.
</event>
<event>
 8    1  0.6469014E-010  0.9118800E+02  0.7816164E-02  0.1184000E+00
        -11   -1    0    0    0    0  0.00000000000E+00  0.00000000000E+00  0.45593999997E+02  0.45594000000E+02  0.51100000000E-03 0. -1.
         11   -1    0    0    0    0 -0.00000000000E+00 -0.00000000000E+00 -0.45593999997E+02  0.45594000000E+02  0.51100000000E-03 0.  1.
         23    2    1    2    0    0  0.00000000000E+00 -0.35527136788E-14 -0.71054273576E-14  0.91188000000E+02  0.91188000000E+02 0.  0.
    9900012    2    3    3    0    0  0.78015664401E+01 -0.21310960683E+02  0.36994617255E+02  0.47787272011E+02  0.20000004405E+02 0.  0.
        -12    1    3    3    0    0 -0.78015664401E+01  0.21310960683E+02 -0.36994617255E+02  0.43400727989E+02  0.00000000000E+00 0.  1.
         11    1    4    4    0    0  0.76337829041E+01 -0.92139712536E+01  0.77992393516E+01  0.14282858342E+02  0.51100000000E-03 0. -1.
        -11    1    4    4    0    0 -0.32148828411E+01 -0.20124442558E+01  0.16556036843E+02  0.16984927429E+02  0.51100000000E-03 0.  1.
        -12    1    4    4    0    0  0.33826663771E+01 -0.10084545174E+02  0.12639341061E+02  0.16519486240E+02  0.00000000000E+00 0.  1.
</event>
<event>
 8    1  0.6469014E-010  0.9118800E+02  0.7816164E-02  0.1184000E+00
        -11   -1    0    0    0    0  0.00000000000E+00  0.00000000000E+00  0.45593999997E+02  0.45594000000E+02  0.51100000000E-03 0. -1.
         11   -1    0    0    0    0 -0.00000000000E+00 -0.00000000000E+00 -0.45593999997E+02  0.45594000000E+02  0.51100000000E-03 0.  1.
         23    2    1    2    0    0 -0.35527136788E-14  0.00000000000E+00  0.00000000000E+00  0.91188000000E+02  0.91188000000E+02 0.  0.
    9900012    2    3    3    0    0 -0.29224660422E+02 -0.55611399728E+01  0.31600897584E+02  0.47787265183E+02  0.19999973273E+02 0.  0.
        -12    1    3    3    0    0  0.29224660422E+02  0.55611399728E+01 -0.31600897584E+02  0.43400734817E+02  0.00000000000E+00 0.  1.
         11    1    4    4    0    0 -0.93932801686E+01  0.11773979558E+01  0.65008250861E+01  0.11483932486E+02  0.51100000000E-03 0. -1.
        -11    1    4    4    0    0 -0.52326240733E+01 -0.97499424839E+01  0.82239866079E+01  0.13786794012E+02  0.51100000000E-03 0.  1.
        -12    1    4    4    0    0 -0.14598756180E+02  0.30114045554E+01  0.16876085890E+02  0.22516538685E+02  0.00000000000E+00 0.  1.
</event>
<event>
 8    1  0.6469014E-010  0.9118800E+02  0.7816164E-02  0.1184000E+00
        -11   -1    0    0    0    0  0.00000000000E+00  0.00000000000E+00  0.45593999997E+02  0.45594000000E+02  0.51100000000E-03 0. -1.
         11   -1    0    0    0    0 -0.00000000000E+00 -0.00000000000E+00 -0.45593999997E+02  0.45594000000E+02  0.51100000000E-03 0.  1.
         23    2    1    2    0    0  0.00000000000E+00  0.00000000000E+00 -0.71054273576E-14  0.91188000000E+02  0.91188000000E+02 0.  0.
    9900012    2    3    3    0    0  0.24858716810E+02  0.14682985681E+02  0.32404917075E+02  0.47787256681E+02  0.19999934513E+02 0.  0.
        -12    1    3    3    0    0 -0.24858716810E+02 -0.14682985681E+02 -0.32404917075E+02  0.43400743319E+02  0.00000000000E+00 0.  1.
         11    1    4    4    0    0  0.81500040553E+01  0.23709743563E+01  0.70014187248E+01  0.11002906431E+02  0.51100000000E-03 0. -1.
        -11    1    4    4    0    0  0.15042636192E+02  0.14493659629E+02  0.14221896004E+02  0.25270722175E+02  0.51100000000E-03 0.  1.
        -12    1    4    4    0    0  0.16660765629E+01 -0.21816483040E+01  0.11181602346E+02  0.11513628076E+02  0.00000000000E+00 0.  1.
</event>
<event>
 8    1  0.6469014E-010  0.9118800E+02  0.7816164E-02  0.1184000E+00
        -11   -1    0    0    0    0  0.00000000000E+00  0.00000000000E+00  0.45593999997E+02  0.45594000000E+02  0.51100000000E-03 0. -1.
         11   -1    0    0    0    0 -0.00000000000E+00 -0.00000000000E+00 -0.45593999997E+02  0.45594000000E+02  0.51100000000E-03 0.  1.
         23    2    1    2    0    0  0.00000000000E+00  0.00000000000E+00  0.00000000000E+00  0.91188000000E+02  0.91188000000E+02 0.  0.
    9900012    2    3    3    0    0  0.36671246909E+02 -0.26842625195E+01 -0.23057263268E+02  0.47787274148E+02  0.20000014148E+02 0.  0.
         12    1    3    3    0    0 -0.36671246909E+02  0.26842625195E+01  0.23057263268E+02  0.43400725852E+02  0.00000000000E+00 0. -1.
         11    1    4    4    0    0  0.14078249304E+01 -0.28340465726E+01 -0.73338766954E+01  0.79874613398E+01  0.51100000000E-03 0. -1.
        -11    1    4    4    0    0  0.17352470910E+02  0.41773877393E+00 -0.25040716714E+01  0.17537192693E+02  0.51100000000E-03 0.  1.
        -12    1    4    4    0    0  0.17910951069E+02 -0.26795472075E+00 -0.13219314901E+02  0.22262620115E+02  0.00000000000E+00 0.  1.
</event>
<event>
 8    1  0.6469014E-010  0.9118800E+02  0.7816164E-02  0.1184000E+00
        -11   -1    0    0    0    0  0.00000000000E+00  0.00000000000E+00  0.45593999997E+02  0.45594000000E+02  0.51100000000E-03 0. -1.
         11   -1    0    0    0    0 -0.00000000000E+00 -0.00000000000E+00 -0.45593999997E+02  0.45594000000E+02  0.51100000000E-03 0.  1.
         23    2    1    2    0    0  0.35527136788E-14 -0.17763568394E-14  0.00000000000E+00  0.91188000000E+02  0.91188000000E+02 0.  0.
    9900012    2    3    3    0    0  0.26211223391E+02 -0.86887930216E+01  0.33482829664E+02  0.47787271457E+02  0.20000001879E+02 0.  0.
        -12    1    3    3    0    0 -0.26211223391E+02  0.86887930216E+01 -0.33482829664E+02  0.43400728543E+02  0.00000000000E+00 0.  1.
         11    1    4    4    0    0  0.12502766542E+02 -0.11667912476E+02  0.97983637473E+01  0.19709573438E+02  0.51100000000E-03 0.  1.
        -11    1    4    4    0    0  0.79386707327E+01  0.44787406068E+01  0.14613729089E+02  0.17223318164E+02  0.51100000000E-03 0. -1.
         12    1    4    4    0    0  0.57697861167E+01 -0.14996211527E+01  0.90707368276E+01  0.10854379855E+02  0.00000000000E+00 0. -1.
</event>
<event>
 8    1  0.6469014E-010  0.9118800E+02  0.7816164E-02  0.1184000E+00
        -11   -1    0    0    0    0  0.00000000000E+00  0.00000000000E+00  0.45593999997E+02  0.45594000000E+02  0.51100000000E-03 0. -1.
         11   -1    0    0    0    0 -0.00000000000E+00 -0.00000000000E+00 -0.45593999997E+02  0.45594000000E+02  0.51100000000E-03 0.  1.
         23    2    1    2    0    0  0.00000000000E+00  0.00000000000E+00  0.00000000000E+00  0.91188000000E+02  0.91188000000E+02 0.  0.
    9900012    2    3    3    0    0  0.50039650570E+01  0.63858925290E+01 -0.42635719770E+02  0.47787263946E+02  0.19999967637E+02 0.  0.
         12    1    3    3    0    0 -0.50039650570E+01 -0.63858925290E+01  0.42635719770E+02  0.43400736054E+02  0.00000000000E+00 0. -1.
         11    1    4    4    0    0  0.55740931770E+01 -0.84733985360E+00 -0.27374808968E+02  0.27949394731E+02  0.51100000000E-03 0. -1.
        -11    1    4    4    0    0 -0.51488939031E+01  0.38078320225E+01 -0.10917387668E+02  0.12657015718E+02  0.51100000000E-03 0.  1.
         12    1    4    4    0    0  0.45787657830E+01  0.34254003601E+01 -0.43435231345E+01  0.71808534968E+01  0.00000000000E+00 0. -1.
</event>
<event>
 8    1  0.6469014E-010  0.9118800E+02  0.7816164E-02  0.1184000E+00
        -11   -1    0    0    0    0  0.00000000000E+00  0.00000000000E+00  0.45593999997E+02  0.45594000000E+02  0.51100000000E-03 0. -1.
         11   -1    0    0    0    0 -0.00000000000E+00 -0.00000000000E+00 -0.45593999997E+02  0.45594000000E+02  0.51100000000E-03 0.  1.
         23    2    1    2    0    0  0.00000000000E+00  0.00000000000E+00 -0.71054273576E-14  0.91188000000E+02  0.91188000000E+02 0.  0.
    9900012    2    3    3    0    0  0.17014536701E+02  0.12617106854E+02  0.37880566491E+02  0.47787272331E+02  0.20000005866E+02 0.  0.
        -12    1    3    3    0    0 -0.17014536701E+02 -0.12617106854E+02 -0.37880566491E+02  0.43400727669E+02  0.00000000000E+00 0.  1.
         11    1    4    4    0    0  0.15078850434E+01 -0.36076494858E+00  0.16343629879E+02  0.16417006625E+02  0.51100000000E-03 0. -1.
        -11    1    4    4    0    0  0.11584927551E+02  0.12093637559E+02  0.21622019282E+02  0.27349192563E+02  0.51100000000E-03 0.  1.
        -12    1    4    4    0    0  0.39217241059E+01  0.88423424345E+00 -0.85082669243E-01  0.40210731430E+01  0.00000000000E+00 0.  1.
</event>
<event>
 8    1  0.6469014E-010  0.9118800E+02  0.7816164E-02  0.1184000E+00
        -11   -1    0    0    0    0  0.00000000000E+00  0.00000000000E+00  0.45593999997E+02  0.45594000000E+02  0.51100000000E-03 0. -1.
         11   -1    0    0    0    0 -0.00000000000E+00 -0.00000000000E+00 -0.45593999997E+02  0.45594000000E+02  0.51100000000E-03 0.  1.
         23    2    1    2    0    0  0.00000000000E+00  0.00000000000E+00  0.00000000000E+00  0.91188000000E+02  0.91188000000E+02 0.  0.
    9900012    2    3    3    0    0  0.18290774861E+02  0.10023869767E+02 -0.38060383958E+02  0.47787271467E+02  0.20000001928E+02 0.  0.
         12    1    3    3    0    0 -0.18290774861E+02 -0.10023869767E+02  0.38060383958E+02  0.43400728533E+02  0.00000000000E+00 0. -1.
         11    1    4    4    0    0  0.79211691259E+01 -0.15549255818E+01 -0.76691462821E+01  0.11134564151E+02  0.51100000000E-03 0. -1.
        -11    1    4    4    0    0  0.42251942615E+01  0.47453866739E+01 -0.25425204702E+02  0.26207098192E+02  0.51100000000E-03 0.  1.
        -12    1    4    4    0    0  0.61444114737E+01  0.68334086745E+01 -0.49660329737E+01  0.10445609124E+02  0.00000000000E+00 0.  1.
</event>
<event>
 8    1  0.6469014E-010  0.9118800E+02  0.7816164E-02  0.1184000E+00
        -11   -1    0    0    0    0  0.00000000000E+00  0.00000000000E+00  0.45593999997E+02  0.45594000000E+02  0.51100000000E-03 0. -1.
         11   -1    0    0    0    0 -0.00000000000E+00 -0.00000000000E+00 -0.45593999997E+02  0.45594000000E+02  0.51100000000E-03 0.  1.
         23    2    1    2    0    0  0.00000000000E+00 -0.35527136788E-14  0.35527136788E-14  0.91188000000E+02  0.91188000000E+02 0.  0.
    9900012    2    3    3    0    0  0.35075278309E+02 -0.17902749913E+02 -0.18243899796E+02  0.47787268639E+02  0.19999989035E+02 0.  0.
         12    1    3    3    0    0 -0.35075278309E+02  0.17902749913E+02  0.18243899796E+02  0.43400731361E+02  0.00000000000E+00 0. -1.
         11    1    4    4    0    0  0.27200545071E+02 -0.10376535197E+02 -0.48071797800E+01  0.29506797735E+02  0.51100000000E-03 0. -1.
        -11    1    4    4    0    0  0.85756361400E+01 -0.71187957192E+01 -0.10791145676E+02  0.15513465537E+02  0.51100000000E-03 0.  1.
         12    1    4    4    0    0 -0.70090290275E+00 -0.40741899652E+00 -0.26455743394E+01  0.27670053674E+01  0.00000000000E+00 0. -1.
</event>
<event>
 8    1  0.6469014E-010  0.9118800E+02  0.7816164E-02  0.1184000E+00
        -11   -1    0    0    0    0  0.00000000000E+00  0.00000000000E+00  0.45593999997E+02  0.45594000000E+02  0.51100000000E-03 0. -1.
         11   -1    0    0    0    0 -0.00000000000E+00 -0.00000000000E+00 -0.45593999997E+02  0.45594000000E+02  0.51100000000E-03 0.  1.
         23    2    1    2    0    0  0.00000000000E+00 -0.88817841970E-15  0.00000000000E+00  0.91188000000E+02  0.91188000000E+02 0.  0.
    9900012    2    3    3    0    0 -0.99194301795E+01  0.45953260395E+01 -0.42001323024E+02  0.47787271293E+02  0.20000001135E+02 0.  0.
         12    1    3    3    0    0  0.99194301795E+01 -0.45953260395E+01  0.42001323024E+02  0.43400728707E+02  0.00000000000E+00 0. -1.
         11    1    4    4    0    0 -0.96592556467E+01  0.71041110737E+01 -0.16586213212E+02  0.20466364669E+02  0.51100000000E-03 0. -1.
        -11    1    4    4    0    0  0.43948168148E+01  0.33205600494E+00 -0.89526836589E+01  0.99787384465E+01  0.51100000000E-03 0.  1.
         12    1    4    4    0    0 -0.46549913476E+01 -0.28408410392E+01 -0.16462426153E+02  0.17342168177E+02  0.00000000000E+00 0. -1.
</event>
<event>
 8    1  0.6469014E-010  0.9118800E+02  0.7816164E-02  0.1184000E+00
        -11   -1    0    0    0    0  0.00000000000E+00  0.00000000000E+00  0.45593999997E+02  0.45594000000E+02  0.51100000000E-03 0. -1.
         11   -1    0    0    0    0 -0.00000000000E+00 -0.00000000000E+00 -0.45593999997E+02  0.45594000000E+02  0.51100000000E-03 0.  1.
         23    2    1    2    0    0  0.00000000000E+00 -0.38857805862E-15  0.00000000000E+00  0.91188000000E+02  0.91188000000E+02 0.  0.
    9900012    2    3    3    0    0 -0.22190595647E+02 -0.27123567092E+00  0.37297825470E+02  0.47787263960E+02  0.19999967701E+02 0.  0.
        -12    1    3    3    0    0  0.22190595647E+02  0.27123567092E+00 -0.37297825470E+02  0.43400736040E+02  0.00000000000E+00 0.  1.
         11    1    4    4    0    0 -0.40693546346E+01 -0.45420952422E+01  0.42199885705E+01  0.74161027587E+01  0.51100000000E-03 0. -1.
        -11    1    4    4    0    0 -0.14979191914E+02  0.89849461810E+01  0.25536225997E+02  0.30938718245E+02  0.51100000000E-03 0.  1.
        -12    1    4    4    0    0 -0.31420490989E+01 -0.47140866098E+01  0.75416109034E+01  0.94324429562E+01  0.00000000000E+00 0.  1.
</event>
<event>
 8    1  0.6469014E-010  0.9118800E+02  0.7816164E-02  0.1184000E+00
        -11   -1    0    0    0    0  0.00000000000E+00  0.00000000000E+00  0.45593999997E+02  0.45594000000E+02  0.51100000000E-03 0. -1.
         11   -1    0    0    0    0 -0.00000000000E+00 -0.00000000000E+00 -0.45593999997E+02  0.45594000000E+02  0.51100000000E-03 0.  1.
         23    2    1    2    0    0  0.44408920985E-15  0.00000000000E+00  0.00000000000E+00  0.91188000000E+02  0.91188000000E+02 0.  0.
    9900012    2    3    3    0    0 -0.37861100637E+01 -0.37742711625E+02  0.21089721226E+02  0.47787271301E+02  0.20000001168E+02 0.  0.
        -12    1    3    3    0    0  0.37861100637E+01  0.37742711625E+02 -0.21089721226E+02  0.43400728699E+02  0.00000000000E+00 0.  1.
         11    1    4    4    0    0 -0.72845769515E+01 -0.11220561665E+02  0.48734044109E+01  0.14237841699E+02  0.51100000000E-03 0. -1.
        -11    1    4    4    0    0  0.80456440174E+01 -0.16085283481E+02  0.98544907902E+01  0.20508040407E+02  0.51100000000E-03 0.  1.
        -12    1    4    4    0    0 -0.45471771296E+01 -0.10436866479E+02  0.63618260253E+01  0.13041389195E+02  0.00000000000E+00 0.  1.
</event>
<event>
 8    1  0.6469014E-010  0.9118800E+02  0.7816164E-02  0.1184000E+00
        -11   -1    0    0    0    0  0.00000000000E+00  0.00000000000E+00  0.45593999997E+02  0.45594000000E+02  0.51100000000E-03 0.  1.
         11   -1    0    0    0    0 -0.00000000000E+00 -0.00000000000E+00 -0.45593999997E+02  0.45594000000E+02  0.51100000000E-03 0. -1.
         23    2    1    2    0    0 -0.88817841970E-15  0.00000000000E+00  0.71054273576E-14  0.91188000000E+02  0.91188000000E+02 0.  0.
    9900012    2    3    3    0    0  0.57250595613E+01  0.25381078389E+02 -0.34736837543E+02  0.47787270402E+02  0.19999997069E+02 0.  0.
         12    1    3    3    0    0 -0.57250595613E+01 -0.25381078389E+02  0.34736837543E+02  0.43400729598E+02  0.00000000000E+00 0. -1.
         11    1    4    4    0    0 -0.23526422055E-01 -0.37276480788E+00  0.23127637431E+00  0.43931323332E+00  0.51100000000E-03 0. -1.
        -11    1    4    4    0    0  0.65075945354E+01  0.66798437756E+00 -0.48494131050E+01  0.81432056028E+01  0.51100000000E-03 0.  1.
        -12    1    4    4    0    0 -0.75900855205E+00  0.25085858820E+02 -0.30118700812E+02  0.39204751566E+02  0.00000000000E+00 0.  1.
</event>
<event>
 8    1  0.6469014E-010  0.9118800E+02  0.7816164E-02  0.1184000E+00
        -11   -1    0    0    0    0  0.00000000000E+00  0.00000000000E+00  0.45593999997E+02  0.45594000000E+02  0.51100000000E-03 0. -1.
         11   -1    0    0    0    0 -0.00000000000E+00 -0.00000000000E+00 -0.45593999997E+02  0.45594000000E+02  0.51100000000E-03 0.  1.
         23    2    1    2    0    0  0.00000000000E+00  0.88817841970E-15  0.00000000000E+00  0.91188000000E+02  0.91188000000E+02 0.  0.
    9900012    2    3    3    0    0  0.20614715385E+02  0.48346009111E+01 -0.37885134933E+02  0.47787270682E+02  0.19999998350E+02 0.  0.
         12    1    3    3    0    0 -0.20614715385E+02 -0.48346009111E+01  0.37885134933E+02  0.43400729318E+02  0.00000000000E+00 0. -1.
         11    1    4    4    0    0  0.15929808634E+02  0.10946941117E+02 -0.22467413318E+02  0.29637459142E+02  0.51100000000E-03 0. -1.
        -11    1    4    4    0    0  0.31666659555E+01 -0.54025095232E+00 -0.27538576610E+01  0.42312381927E+01  0.51100000000E-03 0.  1.
         12    1    4    4    0    0  0.15182407952E+01 -0.55720892541E+01 -0.12663863955E+02  0.13918573348E+02  0.00000000000E+00 0. -1.
</event>
<event>
 8    1  0.6469014E-010  0.9118800E+02  0.7816164E-02  0.1184000E+00
        -11   -1    0    0    0    0  0.00000000000E+00  0.00000000000E+00  0.45593999997E+02  0.45594000000E+02  0.51100000000E-03 0. -1.
         11   -1    0    0    0    0 -0.00000000000E+00 -0.00000000000E+00 -0.45593999997E+02  0.45594000000E+02  0.51100000000E-03 0.  1.
         23    2    1    2    0    0 -0.35527136788E-14  0.00000000000E+00  0.00000000000E+00  0.91188000000E+02  0.91188000000E+02 0.  0.
    9900012    2    3    3    0    0 -0.28689244170E+02  0.11219627113E+02  0.30572380088E+02  0.47787272035E+02  0.20000004518E+02 0.  0.
        -12    1    3    3    0    0  0.28689244170E+02 -0.11219627113E+02 -0.30572380088E+02  0.43400727965E+02  0.00000000000E+00 0.  1.
         11    1    4    4    0    0 -0.17180430785E+02  0.97024401093E+01  0.22239112243E+02  0.29730164137E+02  0.51100000000E-03 0. -1.
        -11    1    4    4    0    0 -0.68582317746E-01 -0.34277157777E+01  0.89607644150E+00  0.35435705492E+01  0.51100000000E-03 0.  1.
        -12    1    4    4    0    0 -0.11440231067E+02  0.49449027814E+01  0.74371914042E+01  0.14513537349E+02  0.00000000000E+00 0.  1.
</event>
<event>
 8    1  0.6469014E-010  0.9118800E+02  0.7816164E-02  0.1184000E+00
        -11   -1    0    0    0    0  0.00000000000E+00  0.00000000000E+00  0.45593999997E+02  0.45594000000E+02  0.51100000000E-03 0. -1.
         11   -1    0    0    0    0 -0.00000000000E+00 -0.00000000000E+00 -0.45593999997E+02  0.45594000000E+02  0.51100000000E-03 0.  1.
         23    2    1    2    0    0  0.00000000000E+00  0.00000000000E+00 -0.17763568394E-14  0.91188000000E+02  0.91188000000E+02 0.  0.
    9900012    2    3    3    0    0  0.26503167355E+02 -0.31794703680E+02  0.13049988583E+02  0.47787271159E+02  0.20000000522E+02 0.  0.
        -12    1    3    3    0    0 -0.26503167355E+02  0.31794703680E+02 -0.13049988583E+02  0.43400728841E+02  0.00000000000E+00 0.  1.
         11    1    4    4    0    0  0.74543021777E+01 -0.41757006175E+01 -0.35275898368E+01  0.92437539409E+01  0.51100000000E-03 0.  1.
        -11    1    4    4    0    0 -0.53984239385E+00 -0.40760845808E+01  0.12622793696E+01  0.43010748410E+01  0.51100000000E-03 0. -1.
         12    1    4    4    0    0  0.19588707571E+02 -0.23542918482E+02  0.15315299050E+02  0.34242442377E+02  0.00000000000E+00 0. -1.
</event>
<event>
 8    1  0.6469014E-010  0.9118800E+02  0.7816164E-02  0.1184000E+00
        -11   -1    0    0    0    0  0.00000000000E+00  0.00000000000E+00  0.45593999997E+02  0.45594000000E+02  0.51100000000E-03 0. -1.
         11   -1    0    0    0    0 -0.00000000000E+00 -0.00000000000E+00 -0.45593999997E+02  0.45594000000E+02  0.51100000000E-03 0.  1.
         23    2    1    2    0    0  0.22204460493E-15 -0.35527136788E-14  0.71054273576E-14  0.91188000000E+02  0.91188000000E+02 0.  0.
    9900012    2    3    3    0    0 -0.14648334987E+01  0.23975905676E+02 -0.36147380775E+02  0.47787275040E+02  0.20000018216E+02 0.  0.
         12    1    3    3    0    0  0.14648334987E+01 -0.23975905676E+02  0.36147380775E+02  0.43400724960E+02  0.00000000000E+00 0. -1.
         11    1    4    4    0    0  0.33187751846E+00  0.11886590713E+02 -0.20070280839E+02  0.23328466617E+02  0.51100000000E-03 0. -1.
        -11    1    4    4    0    0  0.23461362730E+01  0.11362422212E+02 -0.16565557147E+02  0.20224407971E+02  0.51100000000E-03 0.  1.
         12    1    4    4    0    0 -0.41428472902E+01  0.72689275131E+00  0.48845721058E+00  0.42344004520E+01  0.00000000000E+00 0. -1.
</event>
<event>
 8    1  0.6469014E-010  0.9118800E+02  0.7816164E-02  0.1184000E+00
        -11   -1    0    0    0    0  0.00000000000E+00  0.00000000000E+00  0.45593999997E+02  0.45594000000E+02  0.51100000000E-03 0. -1.
         11   -1    0    0    0    0 -0.00000000000E+00 -0.00000000000E+00 -0.45593999997E+02  0.45594000000E+02  0.51100000000E-03 0.  1.
         23    2    1    2    0    0  0.00000000000E+00 -0.12212453271E-14 -0.35527136788E-14  0.91188000000E+02  0.91188000000E+02 0.  0.
    9900012    2    3    3    0    0 -0.32737812419E+02 -0.28448950266E+00  0.28491712109E+02  0.47787274716E+02  0.20000016742E+02 0.  0.
        -12    1    3    3    0    0  0.32737812419E+02  0.28448950266E+00 -0.28491712109E+02  0.43400725284E+02  0.00000000000E+00 0.  1.
         11    1    4    4    0    0 -0.14154677115E+02  0.46997515589E+01  0.17195719330E+02  0.22762585804E+02  0.51100000000E-03 0. -1.
        -11    1    4    4    0    0 -0.89571365918E+01 -0.27308880963E+00  0.11152426436E+02  0.14306693856E+02  0.51100000000E-03 0.  1.
         12    1    4    4    0    0 -0.96259987116E+01 -0.47111522519E+01  0.14356634342E+00  0.10717995057E+02  0.00000000000E+00 0. -1.
</event>
<event>
 8    1  0.6469014E-010  0.9118800E+02  0.7816164E-02  0.1184000E+00
        -11   -1    0    0    0    0  0.00000000000E+00  0.00000000000E+00  0.45593999997E+02  0.45594000000E+02  0.51100000000E-03 0.  1.
         11   -1    0    0    0    0 -0.00000000000E+00 -0.00000000000E+00 -0.45593999997E+02  0.45594000000E+02  0.51100000000E-03 0. -1.
         23    2    1    2    0    0  0.71054273576E-14  0.35527136788E-14 -0.17763568394E-14  0.91188000000E+02  0.91188000000E+02 0.  0.
    9900012    2    3    3    0    0  0.33100736816E+02  0.23973862506E+02 -0.14601939142E+02  0.47787291619E+02  0.20000093810E+02 0.  0.
         12    1    3    3    0    0 -0.33100736816E+02 -0.23973862506E+02  0.14601939142E+02  0.43400708381E+02  0.00000000000E+00 0. -1.
         11    1    4    4    0    0  0.60208867828E+01  0.96673220407E+01  0.26413273619E+01  0.11691227634E+02  0.51100000000E-03 0. -1.
        -11    1    4    4    0    0  0.11679892650E+02  0.84538694697E+01 -0.40122109892E+01  0.14966149759E+02  0.51100000000E-03 0.  1.
         12    1    4    4    0    0  0.15399957383E+02  0.58526709956E+01 -0.13231055515E+02  0.21129914227E+02  0.00000000000E+00 0. -1.
</event>
<event>
 8    1  0.6469014E-010  0.9118800E+02  0.7816164E-02  0.1184000E+00
        -11   -1    0    0    0    0  0.00000000000E+00  0.00000000000E+00  0.45593999997E+02  0.45594000000E+02  0.51100000000E-03 0. -1.
         11   -1    0    0    0    0 -0.00000000000E+00 -0.00000000000E+00 -0.45593999997E+02  0.45594000000E+02  0.51100000000E-03 0.  1.
         23    2    1    2    0    0  0.00000000000E+00  0.35527136788E-14  0.00000000000E+00  0.91188000000E+02  0.91188000000E+02 0.  0.
    9900012    2    3    3    0    0 -0.26862067084E+02 -0.23960546091E+02 -0.24247570989E+02  0.47787272865E+02  0.20000008299E+02 0.  0.
         12    1    3    3    0    0  0.26862067084E+02  0.23960546091E+02  0.24247570989E+02  0.43400727135E+02  0.00000000000E+00 0. -1.
         11    1    4    4    0    0 -0.13639786312E+02 -0.55764055409E+01 -0.19226631844E+02  0.24224026125E+02  0.51100000000E-03 0. -1.
        -11    1    4    4    0    0 -0.74912097010E+01 -0.12793833731E+02 -0.46921524080E+01  0.15550456546E+02  0.51100000000E-03 0.  1.
         12    1    4    4    0    0 -0.57310710713E+01 -0.55903068191E+01 -0.32878673706E+00  0.80127901928E+01  0.00000000000E+00 0. -1.
</event>
<event>
 8    1  0.7896037E-010  0.9118800E+02  0.7816164E-02  0.1184000E+00
        -11   -1    0    0    0    0  0.00000000000E+00  0.00000000000E+00  0.45593999997E+02  0.45594000000E+02  0.51100000000E-03 0. -1.
         11   -1    0    0    0    0 -0.00000000000E+00 -0.00000000000E+00 -0.45593999997E+02  0.45594000000E+02  0.51100000000E-03 0.  1.
         23    2    1    2    0    0 -0.25673907444E-15  0.00000000000E+00  0.00000000000E+00  0.91188000000E+02  0.91188000000E+02 0.  0.
    9900012    2    3    3    0    0  0.59493643082E-01 -0.25078891131E+02 -0.35421306408E+02  0.47787271118E+02  0.20000000335E+02 0.  0.
         12    1    3    3    0    0 -0.59493643082E-01  0.25078891131E+02  0.35421306408E+02  0.43400728882E+02  0.00000000000E+00 0. -1.
         11    1    4    4    0    0  0.43061534510E+01 -0.13641519572E+02 -0.85918333892E+01  0.16686929467E+02  0.51100000000E-03 0. -1.
        -11    1    4    4    0    0  0.34422572602E+00 -0.89351698947E+01 -0.22826597644E+02  0.24515491280E+02  0.51100000000E-03 0.  1.
         12    1    4    4    0    0 -0.45908855339E+01 -0.25022016643E+01 -0.40028753743E+01  0.65848503716E+01  0.00000000000E+00 0. -1.
</event>
<event>
 8    1  0.6469014E-010  0.9118800E+02  0.7816164E-02  0.1184000E+00
        -11   -1    0    0    0    0  0.00000000000E+00  0.00000000000E+00  0.45593999997E+02  0.45594000000E+02  0.51100000000E-03 0.  1.
         11   -1    0    0    0    0 -0.00000000000E+00 -0.00000000000E+00 -0.45593999997E+02  0.45594000000E+02  0.51100000000E-03 0. -1.
         23    2    1    2    0    0  0.00000000000E+00  0.00000000000E+00  0.71054273576E-14  0.91188000000E+02  0.91188000000E+02 0.  0.
    9900012    2    3    3    0    0  0.23234503991E+02  0.43264989908E+01  0.36401417108E+02  0.47787263408E+02  0.19999965183E+02 0.  0.
        -12    1    3    3    0    0 -0.23234503991E+02 -0.43264989908E+01 -0.36401417108E+02  0.43400736592E+02  0.00000000000E+00 0.  1.
         11    1    4    4    0    0  0.14449494783E+02  0.86657822424E+01  0.15547959094E+02  0.22926463173E+02  0.51100000000E-03 0. -1.
        -11    1    4    4    0    0  0.20556071837E+01  0.59996685386E+00  0.13703380085E+02  0.13869683022E+02  0.51100000000E-03 0.  1.
         12    1    4    4    0    0  0.67294020239E+01 -0.49392501055E+01  0.71500779296E+01  0.10991117214E+02  0.00000000000E+00 0. -1.
</event>
<event>
 8    1  0.6469014E-010  0.9118800E+02  0.7816164E-02  0.1184000E+00
        -11   -1    0    0    0    0  0.00000000000E+00  0.00000000000E+00  0.45593999997E+02  0.45594000000E+02  0.51100000000E-03 0. -1.
         11   -1    0    0    0    0 -0.00000000000E+00 -0.00000000000E+00 -0.45593999997E+02  0.45594000000E+02  0.51100000000E-03 0.  1.
         23    2    1    2    0    0  0.17763568394E-14 -0.35527136788E-14  0.00000000000E+00  0.91188000000E+02  0.91188000000E+02 0.  0.
    9900012    2    3    3    0    0 -0.81889563459E+01  0.22240594831E+02 -0.36358220112E+02  0.47787271502E+02  0.20000002085E+02 0.  0.
         12    1    3    3    0    0  0.81889563459E+01 -0.22240594831E+02  0.36358220112E+02  0.43400728498E+02  0.00000000000E+00 0. -1.
         11    1    4    4    0    0  0.48395176181E+01  0.74413447428E+01 -0.70572256587E+01  0.11340148880E+02  0.51100000000E-03 0. -1.
        -11    1    4    4    0    0 -0.59872838733E+01  0.23873116089E+01 -0.14598434432E+02  0.15958104932E+02  0.51100000000E-03 0.  1.
         12    1    4    4    0    0 -0.70411900907E+01  0.12411938480E+02 -0.14702560021E+02  0.20489017690E+02  0.00000000000E+00 0. -1.
</event>
<event>
 8    1  0.6469014E-010  0.9118800E+02  0.7816164E-02  0.1184000E+00
        -11   -1    0    0    0    0  0.00000000000E+00  0.00000000000E+00  0.45593999997E+02  0.45594000000E+02  0.51100000000E-03 0. -1.
         11   -1    0    0    0    0 -0.00000000000E+00 -0.00000000000E+00 -0.45593999997E+02  0.45594000000E+02  0.51100000000E-03 0.  1.
         23    2    1    2    0    0  0.00000000000E+00  0.00000000000E+00  0.00000000000E+00  0.91188000000E+02  0.91188000000E+02 0.  0.
    9900012    2    3    3    0    0 -0.44583756699E+01 -0.23838659738E+02 -0.35992562020E+02  0.47787270369E+02  0.19999996922E+02 0.  0.
         12    1    3    3    0    0  0.44583756699E+01  0.23838659738E+02  0.35992562020E+02  0.43400729631E+02  0.00000000000E+00 0. -1.
         11    1    4    4    0    0 -0.93751901444E+01 -0.11118372672E+02 -0.11718850243E+02  0.18677362030E+02  0.51100000000E-03 0. -1.
        -11    1    4    4    0    0  0.63286942909E+01 -0.50680953218E+01 -0.14544046839E+02  0.16651344100E+02  0.51100000000E-03 0.  1.
        -12    1    4    4    0    0 -0.14118798164E+01 -0.76521917440E+01 -0.97296649380E+01  0.12458564239E+02  0.00000000000E+00 0.  1.
</event>
<event>
 8    1  0.6469014E-010  0.9118800E+02  0.7816164E-02  0.1184000E+00
        -11   -1    0    0    0    0  0.00000000000E+00  0.00000000000E+00  0.45593999997E+02  0.45594000000E+02  0.51100000000E-03 0. -1.
         11   -1    0    0    0    0 -0.00000000000E+00 -0.00000000000E+00 -0.45593999997E+02  0.45594000000E+02  0.51100000000E-03 0.  1.
         23    2    1    2    0    0 -0.17763568394E-14  0.44408920985E-15 -0.71054273576E-14  0.91188000000E+02  0.91188000000E+02 0.  0.
    9900012    2    3    3    0    0  0.12172389875E+02 -0.26111214313E+01  0.41576896594E+02  0.47787270044E+02  0.19999995437E+02 0.  0.
        -12    1    3    3    0    0 -0.12172389875E+02  0.26111214313E+01 -0.41576896594E+02  0.43400729956E+02  0.00000000000E+00 0.  1.
         11    1    4    4    0    0 -0.14947688435E+01 -0.64442807206E+01  0.13514259801E+02  0.15046538011E+02  0.51100000000E-03 0. -1.
        -11    1    4    4    0    0  0.90589200022E+01  0.45525975685E+01  0.25449198278E+02  0.27394376603E+02  0.51100000000E-03 0.  1.
         12    1    4    4    0    0  0.46082387163E+01 -0.71943827919E+00  0.26134385152E+01  0.53463554293E+01  0.00000000000E+00 0. -1.
</event>
<event>
 8    1  0.6469014E-010  0.9118800E+02  0.7816164E-02  0.1184000E+00
        -11   -1    0    0    0    0  0.00000000000E+00  0.00000000000E+00  0.45593999997E+02  0.45594000000E+02  0.51100000000E-03 0. -1.
         11   -1    0    0    0    0 -0.00000000000E+00 -0.00000000000E+00 -0.45593999997E+02  0.45594000000E+02  0.51100000000E-03 0.  1.
         23    2    1    2    0    0  0.17763568394E-14  0.22204460493E-15  0.00000000000E+00  0.91188000000E+02  0.91188000000E+02 0.  0.
    9900012    2    3    3    0    0 -0.13188037157E+02 -0.13335296413E+01  0.41326995448E+02  0.47787272148E+02  0.20000005031E+02 0.  0.
        -12    1    3    3    0    0  0.13188037157E+02  0.13335296413E+01 -0.41326995448E+02  0.43400727852E+02  0.00000000000E+00 0.  1.
         11    1    4    4    0    0  0.38331009186E+01 -0.43628761910E+01  0.11453100686E+02  0.12841373248E+02  0.51100000000E-03 0. -1.
        -11    1    4    4    0    0 -0.10512818678E+02  0.42625415182E+01  0.21051918415E+02  0.23913842978E+02  0.51100000000E-03 0.  1.
         12    1    4    4    0    0 -0.65083193974E+01 -0.12331949685E+01  0.88219763465E+01  0.11032055922E+02  0.00000000000E+00 0. -1.
</event>
<event>
 8    1  0.6469014E-010  0.9118800E+02  0.7816164E-02  0.1184000E+00
        -11   -1    0    0    0    0  0.00000000000E+00  0.00000000000E+00  0.45593999997E+02  0.45594000000E+02  0.51100000000E-03 0. -1.
         11   -1    0    0    0    0 -0.00000000000E+00 -0.00000000000E+00 -0.45593999997E+02  0.45594000000E+02  0.51100000000E-03 0.  1.
         23    2    1    2    0    0  0.00000000000E+00 -0.44408920985E-15  0.00000000000E+00  0.91188000000E+02  0.91188000000E+02 0.  0.
    9900012    2    3    3    0    0 -0.33517247056E+02  0.39999497154E+01  0.27280361888E+02  0.47787267372E+02  0.19999983256E+02 0.  0.
        -12    1    3    3    0    0  0.33517247056E+02 -0.39999497154E+01 -0.27280361888E+02  0.43400732628E+02  0.00000000000E+00 0.  1.
         11    1    4    4    0    0 -0.21646837907E+02 -0.55329778558E+00  0.19504784602E+02  0.29143238537E+02  0.51100000000E-03 0. -1.
        -11    1    4    4    0    0 -0.11474714285E+02  0.20927799955E+01  0.99540496341E+01  0.15334011230E+02  0.51100000000E-03 0.  1.
         12    1    4    4    0    0 -0.39569486469E+00  0.24604675055E+01 -0.21784723486E+01  0.33100176049E+01  0.00000000000E+00 0. -1.
</event>
<event>
 8    1  0.6469014E-010  0.9118800E+02  0.7816164E-02  0.1184000E+00
        -11   -1    0    0    0    0  0.00000000000E+00  0.00000000000E+00  0.45593999997E+02  0.45594000000E+02  0.51100000000E-03 0. -1.
         11   -1    0    0    0    0 -0.00000000000E+00 -0.00000000000E+00 -0.45593999997E+02  0.45594000000E+02  0.51100000000E-03 0.  1.
         23    2    1    2    0    0  0.00000000000E+00  0.00000000000E+00  0.00000000000E+00  0.91188000000E+02  0.91188000000E+02 0.  0.
    9900012    2    3    3    0    0  0.31016558465E+02 -0.49417006606E+01 -0.29952893559E+02  0.47787272622E+02  0.20000007191E+02 0.  0.
         12    1    3    3    0    0 -0.31016558465E+02  0.49417006606E+01  0.29952893559E+02  0.43400727378E+02  0.00000000000E+00 0. -1.
         11    1    4    4    0    0  0.21793044517E+02 -0.70383544886E+01 -0.18232701364E+02  0.29272967436E+02  0.51100000000E-03 0. -1.
        -11    1    4    4    0    0  0.96528127703E+01 -0.13703453381E+01 -0.50387703489E+01  0.10974691231E+02  0.51100000000E-03 0.  1.
         12    1    4    4    0    0 -0.42929882266E+00  0.34669991661E+01 -0.66814218462E+01  0.75396139546E+01  0.00000000000E+00 0. -1.
</event>
<event>
 8    1  0.6469014E-010  0.9118800E+02  0.7816164E-02  0.1184000E+00
        -11   -1    0    0    0    0  0.00000000000E+00  0.00000000000E+00  0.45593999997E+02  0.45594000000E+02  0.51100000000E-03 0. -1.
         11   -1    0    0    0    0 -0.00000000000E+00 -0.00000000000E+00 -0.45593999997E+02  0.45594000000E+02  0.51100000000E-03 0.  1.
         23    2    1    2    0    0  0.00000000000E+00 -0.35527136788E-14 -0.35527136788E-14  0.91188000000E+02  0.91188000000E+02 0.  0.
    9900012    2    3    3    0    0 -0.23294124401E+02  0.28379105363E+02  0.23143749190E+02  0.47787274437E+02  0.20000015468E+02 0.  0.
        -12    1    3    3    0    0  0.23294124401E+02 -0.28379105363E+02 -0.23143749190E+02  0.43400725563E+02  0.00000000000E+00 0.  1.
         11    1    4    4    0    0 -0.16867853223E+02  0.26601179819E+02  0.23031514362E+02  0.39020480446E+02  0.51100000000E-03 0. -1.
        -11    1    4    4    0    0 -0.15787520484E+01  0.15870346653E+01 -0.24181658681E+01  0.32952486228E+01  0.51100000000E-03 0.  1.
         12    1    4    4    0    0 -0.48475191293E+01  0.19089087859E+00  0.25304006964E+01  0.54715453686E+01  0.00000000000E+00 0. -1.
</event>
<event>
 8    1  0.6469014E-010  0.9118800E+02  0.7816164E-02  0.1184000E+00
        -11   -1    0    0    0    0  0.00000000000E+00  0.00000000000E+00  0.45593999997E+02  0.45594000000E+02  0.51100000000E-03 0.  1.
         11   -1    0    0    0    0 -0.00000000000E+00 -0.00000000000E+00 -0.45593999997E+02  0.45594000000E+02  0.51100000000E-03 0. -1.
         23    2    1    2    0    0 -0.88817841970E-15  0.00000000000E+00  0.00000000000E+00  0.91188000000E+02  0.91188000000E+02 0.  0.
    9900012    2    3    3    0    0 -0.71118647059E+01 -0.41843786026E+02 -0.90632273757E+01  0.47787272597E+02  0.20000007080E+02 0.  0.
         12    1    3    3    0    0  0.71118647059E+01  0.41843786026E+02  0.90632273757E+01  0.43400727403E+02  0.00000000000E+00 0. -1.
         11    1    4    4    0    0 -0.57961437303E+01 -0.18610397856E+02 -0.13375947172E+02  0.23640180911E+02  0.51100000000E-03 0. -1.
        -11    1    4    4    0    0 -0.12412368616E+01 -0.20924309405E+02  0.23070648769E+01  0.21087672741E+02  0.51100000000E-03 0.  1.
         12    1    4    4    0    0 -0.74484113943E-01 -0.23090787651E+01  0.20056549193E+01  0.30594189451E+01  0.00000000000E+00 0. -1.
</event>
<event>
 8    1  0.6469014E-010  0.9118800E+02  0.7816164E-02  0.1184000E+00
        -11   -1    0    0    0    0  0.00000000000E+00  0.00000000000E+00  0.45593999997E+02  0.45594000000E+02  0.51100000000E-03 0. -1.
         11   -1    0    0    0    0 -0.00000000000E+00 -0.00000000000E+00 -0.45593999997E+02  0.45594000000E+02  0.51100000000E-03 0.  1.
         23    2    1    2    0    0  0.00000000000E+00  0.00000000000E+00  0.00000000000E+00  0.91188000000E+02  0.91188000000E+02 0.  0.
    9900012    2    3    3    0    0  0.93940636483E+01  0.33831152914E+02  0.25511366910E+02  0.47787249074E+02  0.19999899826E+02 0.  0.
        -12    1    3    3    0    0 -0.93940636483E+01 -0.33831152914E+02 -0.25511366910E+02  0.43400750926E+02  0.00000000000E+00 0.  1.
         11    1    4    4    0    0  0.80713278235E+00  0.13460356253E+02  0.12212216528E+02  0.18192605272E+02  0.51100000000E-03 0. -1.
        -11    1    4    4    0    0  0.10664418862E+02  0.70858304698E+01  0.47287465660E+01  0.13649170944E+02  0.51100000000E-03 0.  1.
        -12    1    4    4    0    0 -0.20774879962E+01  0.13284966191E+02  0.85704038157E+01  0.15945472857E+02  0.00000000000E+00 0.  1.
</event>
<event>
 8    1  0.6469014E-010  0.9118800E+02  0.7816164E-02  0.1184000E+00
        -11   -1    0    0    0    0  0.00000000000E+00  0.00000000000E+00  0.45593999997E+02  0.45594000000E+02  0.51100000000E-03 0. -1.
         11   -1    0    0    0    0 -0.00000000000E+00 -0.00000000000E+00 -0.45593999997E+02  0.45594000000E+02  0.51100000000E-03 0.  1.
         23    2    1    2    0    0  0.00000000000E+00  0.00000000000E+00  0.71054273576E-14  0.91188000000E+02  0.91188000000E+02 0.  0.
    9900012    2    3    3    0    0  0.15267146420E+02  0.97069196938E+01 -0.39450111206E+02  0.47787293509E+02  0.20000102423E+02 0.  0.
         12    1    3    3    0    0 -0.15267146420E+02 -0.97069196938E+01  0.39450111206E+02  0.43400706491E+02  0.00000000000E+00 0. -1.
         11    1    4    4    0    0  0.58747485789E+01 -0.25100293126E+01 -0.25120658090E+02  0.25920269697E+02  0.51100000000E-03 0. -1.
        -11    1    4    4    0    0  0.73528757114E+01  0.11540310845E+02 -0.14191125862E+02  0.19713741631E+02  0.51100000000E-03 0.  1.
        -12    1    4    4    0    0  0.20395221298E+01  0.67663816131E+00 -0.13832725476E+00  0.21532821805E+01  0.00000000000E+00 0.  1.
</event>
<event>
 8    1  0.6469014E-010  0.9118800E+02  0.7816164E-02  0.1184000E+00
        -11   -1    0    0    0    0  0.00000000000E+00  0.00000000000E+00  0.45593999997E+02  0.45594000000E+02  0.51100000000E-03 0. -1.
         11   -1    0    0    0    0 -0.00000000000E+00 -0.00000000000E+00 -0.45593999997E+02  0.45594000000E+02  0.51100000000E-03 0.  1.
         23    2    1    2    0    0  0.00000000000E+00 -0.35527136788E-14 -0.35527136788E-14  0.91188000000E+02  0.91188000000E+02 0.  0.
    9900012    2    3    3    0    0 -0.10697370412E+02  0.29945814365E+02  0.29537054421E+02  0.47787272868E+02  0.20000008316E+02 0.  0.
        -12    1    3    3    0    0  0.10697370412E+02 -0.29945814365E+02 -0.29537054421E+02  0.43400727132E+02  0.00000000000E+00 0.  1.
         11    1    4    4    0    0 -0.63567439592E+01  0.41099797819E+01  0.67178369789E+01  0.10120744118E+02  0.51100000000E-03 0. -1.
        -11    1    4    4    0    0 -0.47882971310E+00  0.26042845865E+02  0.20591532795E+02  0.33203468520E+02  0.51100000000E-03 0.  1.
        -12    1    4    4    0    0 -0.38617967400E+01 -0.20701128213E+00  0.22276846471E+01  0.44630602302E+01  0.00000000000E+00 0.  1.
</event>
<event>
 8    1  0.6469014E-010  0.9118800E+02  0.7816164E-02  0.1184000E+00
        -11   -1    0    0    0    0  0.00000000000E+00  0.00000000000E+00  0.45593999997E+02  0.45594000000E+02  0.51100000000E-03 0. -1.
         11   -1    0    0    0    0 -0.00000000000E+00 -0.00000000000E+00 -0.45593999997E+02  0.45594000000E+02  0.51100000000E-03 0.  1.
         23    2    1    2    0    0  0.35527136788E-14  0.00000000000E+00  0.00000000000E+00  0.91188000000E+02  0.91188000000E+02 0.  0.
    9900012    2    3    3    0    0 -0.27694142819E+02  0.20380442198E+02 -0.26481988569E+02  0.47787266259E+02  0.19999978181E+02 0.  0.
         12    1    3    3    0    0  0.27694142819E+02 -0.20380442198E+02  0.26481988569E+02  0.43400733741E+02  0.00000000000E+00 0. -1.
         11    1    4    4    0    0 -0.21725969173E+02  0.23304230726E+02 -0.19379943820E+02  0.37291917744E+02  0.51100000000E-03 0. -1.
        -11    1    4    4    0    0 -0.49475841773E+01 -0.11615736090E+01 -0.67168461656E+01  0.84228181218E+01  0.51100000000E-03 0.  1.
         12    1    4    4    0    0 -0.10205894685E+01 -0.17622149189E+01 -0.38519858322E+00  0.20725303935E+01  0.00000000000E+00 0. -1.
</event>
<event>
 8    1  0.6469014E-010  0.9118800E+02  0.7816164E-02  0.1184000E+00
        -11   -1    0    0    0    0  0.00000000000E+00  0.00000000000E+00  0.45593999997E+02  0.45594000000E+02  0.51100000000E-03 0. -1.
         11   -1    0    0    0    0 -0.00000000000E+00 -0.00000000000E+00 -0.45593999997E+02  0.45594000000E+02  0.51100000000E-03 0.  1.
         23    2    1    2    0    0  0.00000000000E+00 -0.77715611724E-15  0.00000000000E+00  0.91188000000E+02  0.91188000000E+02 0.  0.
    9900012    2    3    3    0    0  0.19812135977E+02 -0.81646094304E+00  0.38606161653E+02  0.47787273531E+02  0.20000011339E+02 0.  0.
        -12    1    3    3    0    0 -0.19812135977E+02  0.81646094304E+00 -0.38606161653E+02  0.43400726469E+02  0.00000000000E+00 0.  1.
         11    1    4    4    0    0  0.10747421613E+02  0.40088347499E+01  0.27057081629E+02  0.29388152271E+02  0.51100000000E-03 0. -1.
        -11    1    4    4    0    0  0.42458076423E+01  0.11713528803E+01 -0.13888915769E+00  0.44066132760E+01  0.51100000000E-03 0.  1.
         12    1    4    4    0    0  0.48189067223E+01 -0.59966485733E+01  0.11687969181E+02  0.13992507984E+02  0.00000000000E+00 0. -1.
</event>
<event>
 8    1  0.6469014E-010  0.9118800E+02  0.7816164E-02  0.1184000E+00
        -11   -1    0    0    0    0  0.00000000000E+00  0.00000000000E+00  0.45593999997E+02  0.45594000000E+02  0.51100000000E-03 0. -1.
         11   -1    0    0    0    0 -0.00000000000E+00 -0.00000000000E+00 -0.45593999997E+02  0.45594000000E+02  0.51100000000E-03 0.  1.
         23    2    1    2    0    0  0.17763568394E-14  0.80491169285E-15  0.00000000000E+00  0.91188000000E+02  0.91188000000E+02 0.  0.
    9900012    2    3    3    0    0  0.11475104977E+02 -0.17076342796E+00  0.41855902271E+02  0.47787265567E+02  0.19999975026E+02 0.  0.
        -12    1    3    3    0    0 -0.11475104977E+02  0.17076342796E+00 -0.41855902271E+02  0.43400734433E+02  0.00000000000E+00 0.  1.
         11    1    4    4    0    0  0.37140043674E+01 -0.75809847580E+01  0.25202537804E+02  0.26578808671E+02  0.51100000000E-03 0. -1.
        -11    1    4    4    0    0  0.67402718292E+01  0.86324788951E+01  0.16196164046E+02  0.19551641523E+02  0.51100000000E-03 0.  1.
         12    1    4    4    0    0  0.10208287801E+01 -0.12222575650E+01  0.45720042196E+00  0.16568153727E+01  0.00000000000E+00 0. -1.
</event>
<event>
 8    1  0.6469014E-010  0.9118800E+02  0.7816164E-02  0.1184000E+00
        -11   -1    0    0    0    0  0.00000000000E+00  0.00000000000E+00  0.45593999997E+02  0.45594000000E+02  0.51100000000E-03 0. -1.
         11   -1    0    0    0    0 -0.00000000000E+00 -0.00000000000E+00 -0.45593999997E+02  0.45594000000E+02  0.51100000000E-03 0.  1.
         23    2    1    2    0    0 -0.35527136788E-14 -0.88817841970E-15  0.71054273576E-14  0.91188000000E+02  0.91188000000E+02 0.  0.
    9900012    2    3    3    0    0  0.20425967311E+02  0.40298866377E+01 -0.38081014943E+02  0.47787264684E+02  0.19999971000E+02 0.  0.
         12    1    3    3    0    0 -0.20425967311E+02 -0.40298866377E+01  0.38081014943E+02  0.43400735316E+02  0.00000000000E+00 0. -1.
         11    1    4    4    0    0  0.48585983956E+01 -0.53188545699E+01 -0.12899182539E+02  0.14774474702E+02  0.51100000000E-03 0. -1.
        -11    1    4    4    0    0  0.16469860644E+02  0.10753106947E+02 -0.23458271680E+02  0.30613332539E+02  0.51100000000E-03 0.  1.
         12    1    4    4    0    0 -0.90249172893E+00 -0.14043657391E+01 -0.17235607241E+01  0.23994574428E+01  0.00000000000E+00 0. -1.
</event>
<event>
 8    1  0.6469014E-010  0.9118800E+02  0.7816164E-02  0.1184000E+00
        -11   -1    0    0    0    0  0.00000000000E+00  0.00000000000E+00  0.45593999997E+02  0.45594000000E+02  0.51100000000E-03 0. -1.
         11   -1    0    0    0    0 -0.00000000000E+00 -0.00000000000E+00 -0.45593999997E+02  0.45594000000E+02  0.51100000000E-03 0.  1.
         23    2    1    2    0    0  0.00000000000E+00  0.44408920985E-15  0.00000000000E+00  0.91188000000E+02  0.91188000000E+02 0.  0.
    9900012    2    3    3    0    0 -0.16165934501E+02 -0.35745842245E+01 -0.40118676706E+02  0.47787270613E+02  0.19999998032E+02 0.  0.
         12    1    3    3    0    0  0.16165934501E+02  0.35745842245E+01  0.40118676706E+02  0.43400729387E+02  0.00000000000E+00 0. -1.
         11    1    4    4    0    0 -0.10647535367E+02  0.47707353650E+01 -0.28695259328E+02  0.30976569105E+02  0.51100000000E-03 0. -1.
        -11    1    4    4    0    0 -0.67972184870E+01 -0.50698076616E+01 -0.97342694474E+01  0.12909730083E+02  0.51100000000E-03 0.  1.
         12    1    4    4    0    0  0.12788193527E+01 -0.32755119280E+01 -0.16891479307E+01  0.39009714250E+01  0.00000000000E+00 0. -1.
</event>
<event>
 8    1  0.6469014E-010  0.9118800E+02  0.7816164E-02  0.1184000E+00
        -11   -1    0    0    0    0  0.00000000000E+00  0.00000000000E+00  0.45593999997E+02  0.45594000000E+02  0.51100000000E-03 0. -1.
         11   -1    0    0    0    0 -0.00000000000E+00 -0.00000000000E+00 -0.45593999997E+02  0.45594000000E+02  0.51100000000E-03 0.  1.
         23    2    1    2    0    0  0.00000000000E+00  0.00000000000E+00  0.00000000000E+00  0.91188000000E+02  0.91188000000E+02 0.  0.
    9900012    2    3    3    0    0  0.22727797196E+02 -0.15012447622E+02 -0.33789003956E+02  0.47787272617E+02  0.20000007171E+02 0.  0.
         12    1    3    3    0    0 -0.22727797196E+02  0.15012447622E+02  0.33789003956E+02  0.43400727383E+02  0.00000000000E+00 0. -1.
         11    1    4    4    0    0  0.10677826622E+02 -0.13445731729E+01 -0.30586576055E+01  0.11188353095E+02  0.51100000000E-03 0. -1.
        -11    1    4    4    0    0  0.82493116044E+01 -0.41333850498E+01 -0.18166554679E+02  0.20375468659E+02  0.51100000000E-03 0.  1.
         12    1    4    4    0    0  0.38006589697E+01 -0.95344893997E+01 -0.12563791672E+02  0.16223450863E+02  0.00000000000E+00 0. -1.
</event>
<event>
 8    1  0.6469014E-010  0.9118800E+02  0.7816164E-02  0.1184000E+00
        -11   -1    0    0    0    0  0.00000000000E+00  0.00000000000E+00  0.45593999997E+02  0.45594000000E+02  0.51100000000E-03 0. -1.
         11   -1    0    0    0    0 -0.00000000000E+00 -0.00000000000E+00 -0.45593999997E+02  0.45594000000E+02  0.51100000000E-03 0.  1.
         23    2    1    2    0    0  0.00000000000E+00 -0.71054273576E-14  0.17763568394E-14  0.91188000000E+02  0.91188000000E+02 0.  0.
    9900012    2    3    3    0    0 -0.20411431580E+02  0.35347576388E+02 -0.14749429914E+02  0.47787269840E+02  0.19999994506E+02 0.  0.
         12    1    3    3    0    0  0.20411431580E+02 -0.35347576388E+02  0.14749429914E+02  0.43400730160E+02  0.00000000000E+00 0. -1.
         11    1    4    4    0    0 -0.13203157436E+02  0.11232567438E+02  0.15928917611E+01  0.17407792564E+02  0.51100000000E-03 0. -1.
        -11    1    4    4    0    0 -0.68775169230E+01  0.18299483729E+02 -0.14244257762E+02  0.24188224888E+02  0.51100000000E-03 0.  1.
         12    1    4    4    0    0 -0.33075722055E+00  0.58155252216E+01 -0.20980639130E+01  0.61912523874E+01  0.00000000000E+00 0. -1.
</event>
<event>
 8    1  0.6469014E-010  0.9118800E+02  0.7816164E-02  0.1184000E+00
        -11   -1    0    0    0    0  0.00000000000E+00  0.00000000000E+00  0.45593999997E+02  0.45594000000E+02  0.51100000000E-03 0. -1.
         11   -1    0    0    0    0 -0.00000000000E+00 -0.00000000000E+00 -0.45593999997E+02  0.45594000000E+02  0.51100000000E-03 0.  1.
         23    2    1    2    0    0  0.00000000000E+00  0.00000000000E+00  0.00000000000E+00  0.91188000000E+02  0.91188000000E+02 0.  0.
    9900012    2    3    3    0    0  0.96359331033E+01  0.10283891836E+02  0.41048916287E+02  0.47787272283E+02  0.20000005646E+02 0.  0.
        -12    1    3    3    0    0 -0.96359331033E+01 -0.10283891836E+02 -0.41048916287E+02  0.43400727717E+02  0.00000000000E+00 0.  1.
         11    1    4    4    0    0  0.26282206054E+01  0.18539786561E+01  0.14652852563E+02  0.15001695534E+02  0.51100000000E-03 0. -1.
        -11    1    4    4    0    0  0.67907347395E+01 -0.33604915505E+01  0.11768338615E+02  0.13996455829E+02  0.51100000000E-03 0.  1.
        -12    1    4    4    0    0  0.21697775835E+00  0.11790404731E+02  0.14627725109E+02  0.18789120920E+02  0.00000000000E+00 0.  1.
</event>
<event>
 8    1  0.6469014E-010  0.9118800E+02  0.7816164E-02  0.1184000E+00
        -11   -1    0    0    0    0  0.00000000000E+00  0.00000000000E+00  0.45593999997E+02  0.45594000000E+02  0.51100000000E-03 0. -1.
         11   -1    0    0    0    0 -0.00000000000E+00 -0.00000000000E+00 -0.45593999997E+02  0.45594000000E+02  0.51100000000E-03 0.  1.
         23    2    1    2    0    0  0.00000000000E+00  0.00000000000E+00  0.00000000000E+00  0.91188000000E+02  0.91188000000E+02 0.  0.
    9900012    2    3    3    0    0 -0.25313590596E+02 -0.10238744354E+02  0.33734459534E+02  0.47787268268E+02  0.19999987343E+02 0.  0.
        -12    1    3    3    0    0  0.25313590596E+02  0.10238744354E+02 -0.33734459534E+02  0.43400731732E+02  0.00000000000E+00 0.  1.
         11    1    4    4    0    0 -0.67225179733E+01 -0.95892730226E+00  0.10619751899E+02  0.12605194173E+02  0.51100000000E-03 0. -1.
        -11    1    4    4    0    0 -0.18729417478E+02 -0.41832275085E+01  0.11194471691E+02  0.22217260590E+02  0.51100000000E-03 0.  1.
        -12    1    4    4    0    0  0.13834485527E+00 -0.50965895435E+01  0.11920235944E+02  0.12964813505E+02  0.00000000000E+00 0.  1.
</event>
<event>
 8    1  0.6469014E-010  0.9118800E+02  0.7816164E-02  0.1184000E+00
        -11   -1    0    0    0    0  0.00000000000E+00  0.00000000000E+00  0.45593999997E+02  0.45594000000E+02  0.51100000000E-03 0. -1.
         11   -1    0    0    0    0 -0.00000000000E+00 -0.00000000000E+00 -0.45593999997E+02  0.45594000000E+02  0.51100000000E-03 0.  1.
         23    2    1    2    0    0 -0.88817841970E-15  0.11102230246E-15  0.71054273576E-14  0.91188000000E+02  0.91188000000E+02 0.  0.
    9900012    2    3    3    0    0 -0.61004175991E+01 -0.73347734789E+00 -0.42963594977E+02  0.47787267550E+02  0.19999984065E+02 0.  0.
         12    1    3    3    0    0  0.61004175991E+01  0.73347734789E+00  0.42963594977E+02  0.43400732450E+02  0.00000000000E+00 0. -1.
         11    1    4    4    0    0 -0.21519536525E+01 -0.41028043017E+01 -0.55475528714E+01  0.72276725702E+01  0.51100000000E-03 0. -1.
        -11    1    4    4    0    0  0.49338775216E+01  0.31604227541E+01 -0.86107581579E+01  0.10415208865E+02  0.51100000000E-03 0.  1.
        -12    1    4    4    0    0 -0.88823414682E+01  0.20890419975E+00 -0.28805283948E+02  0.30144386115E+02  0.00000000000E+00 0.  1.
</event>
<event>
 8    1  0.6469014E-010  0.9118800E+02  0.7816164E-02  0.1184000E+00
        -11   -1    0    0    0    0  0.00000000000E+00  0.00000000000E+00  0.45593999997E+02  0.45594000000E+02  0.51100000000E-03 0. -1.
         11   -1    0    0    0    0 -0.00000000000E+00 -0.00000000000E+00 -0.45593999997E+02  0.45594000000E+02  0.51100000000E-03 0.  1.
         23    2    1    2    0    0  0.00000000000E+00  0.88817841970E-15  0.00000000000E+00  0.91188000000E+02  0.91188000000E+02 0.  0.
    9900012    2    3    3    0    0 -0.26464152971E+02 -0.52376190167E+01 -0.33997634293E+02  0.47787272092E+02  0.20000004774E+02 0.  0.
         12    1    3    3    0    0  0.26464152971E+02  0.52376190167E+01  0.33997634293E+02  0.43400727908E+02  0.00000000000E+00 0. -1.
         11    1    4    4    0    0 -0.73363212963E+01 -0.11945783433E+00 -0.14259029010E+01  0.74745621731E+01  0.51100000000E-03 0. -1.
        -11    1    4    4    0    0 -0.14000539401E+02 -0.61807528578E+01 -0.13087101969E+02  0.20136758617E+02  0.51100000000E-03 0.  1.
        -12    1    4    4    0    0 -0.51272922741E+01  0.10625916754E+01 -0.19484629424E+02  0.20175951302E+02  0.00000000000E+00 0.  1.
</event>
<event>
 8    1  0.6469014E-010  0.9118800E+02  0.7816164E-02  0.1184000E+00
        -11   -1    0    0    0    0  0.00000000000E+00  0.00000000000E+00  0.45593999997E+02  0.45594000000E+02  0.51100000000E-03 0. -1.
         11   -1    0    0    0    0 -0.00000000000E+00 -0.00000000000E+00 -0.45593999997E+02  0.45594000000E+02  0.51100000000E-03 0.  1.
         23    2    1    2    0    0 -0.71054273576E-14 -0.35527136788E-14  0.00000000000E+00  0.91188000000E+02  0.91188000000E+02 0.  0.
    9900012    2    3    3    0    0  0.37489697065E+02  0.16596215760E+02 -0.14237677847E+02  0.47787271503E+02  0.20000002091E+02 0.  0.
         12    1    3    3    0    0 -0.37489697065E+02 -0.16596215760E+02  0.14237677847E+02  0.43400728497E+02  0.00000000000E+00 0. -1.
         11    1    4    4    0    0  0.67758250208E+01  0.33007034688E+01  0.29890534638E+01  0.81080755406E+01  0.51100000000E-03 0. -1.
        -11    1    4    4    0    0  0.18662246308E+02  0.17953224557E+01 -0.11829557289E+02  0.22168469634E+02  0.51100000000E-03 0.  1.
        -12    1    4    4    0    0  0.12051625736E+02  0.11500189835E+02 -0.53971740217E+01  0.17510726329E+02  0.00000000000E+00 0.  1.
</event>
<event>
 8    1  0.6469014E-010  0.9118800E+02  0.7816164E-02  0.1184000E+00
        -11   -1    0    0    0    0  0.00000000000E+00  0.00000000000E+00  0.45593999997E+02  0.45594000000E+02  0.51100000000E-03 0. -1.
         11   -1    0    0    0    0 -0.00000000000E+00 -0.00000000000E+00 -0.45593999997E+02  0.45594000000E+02  0.51100000000E-03 0.  1.
         23    2    1    2    0    0  0.35527136788E-14 -0.35527136788E-14  0.00000000000E+00  0.91188000000E+02  0.91188000000E+02 0.  0.
    9900012    2    3    3    0    0  0.23079379841E+02 -0.25382079199E+02 -0.26584121324E+02  0.47787271609E+02  0.20000002575E+02 0.  0.
         12    1    3    3    0    0 -0.23079379841E+02  0.25382079199E+02  0.26584121324E+02  0.43400728391E+02  0.00000000000E+00 0. -1.
         11    1    4    4    0    0 -0.15229640538E+01  0.13932153367E+01 -0.14022592594E+01  0.24953556410E+01  0.51100000000E-03 0. -1.
        -11    1    4    4    0    0  0.23066648985E+02 -0.21479154835E+02 -0.18203050861E+02  0.36397464867E+02  0.51100000000E-03 0.  1.
         12    1    4    4    0    0  0.15356949094E+01 -0.52961397000E+01 -0.69788112032E+01  0.88944511010E+01  0.00000000000E+00 0. -1.
</event>
<event>
 8    1  0.6469014E-010  0.9118800E+02  0.7816164E-02  0.1184000E+00
        -11   -1    0    0    0    0  0.00000000000E+00  0.00000000000E+00  0.45593999997E+02  0.45594000000E+02  0.51100000000E-03 0. -1.
         11   -1    0    0    0    0 -0.00000000000E+00 -0.00000000000E+00 -0.45593999997E+02  0.45594000000E+02  0.51100000000E-03 0.  1.
         23    2    1    2    0    0  0.00000000000E+00 -0.44408920985E-15 -0.71054273576E-14  0.91188000000E+02  0.91188000000E+02 0.  0.
    9900012    2    3    3    0    0 -0.13163455258E+02 -0.28886691698E+01 -0.41255327589E+02  0.47787273988E+02  0.20000013421E+02 0.  0.
         12    1    3    3    0    0  0.13163455258E+02  0.28886691698E+01  0.41255327589E+02  0.43400726012E+02  0.00000000000E+00 0. -1.
         11    1    4    4    0    0 -0.49280165391E+01 -0.87025248657E+01 -0.19461396793E+02  0.21880705004E+02  0.51100000000E-03 0. -1.
        -11    1    4    4    0    0 -0.56877923390E+01 -0.15626456815E+01 -0.67889835403E+01  0.89935054895E+01  0.51100000000E-03 0.  1.
         12    1    4    4    0    0 -0.25476463801E+01  0.73765013773E+01 -0.15004947255E+02  0.16913063495E+02  0.00000000000E+00 0. -1.
</event>
<event>
 8    1  0.6469014E-010  0.9118800E+02  0.7816164E-02  0.1184000E+00
        -11   -1    0    0    0    0  0.00000000000E+00  0.00000000000E+00  0.45593999997E+02  0.45594000000E+02  0.51100000000E-03 0. -1.
         11   -1    0    0    0    0 -0.00000000000E+00 -0.00000000000E+00 -0.45593999997E+02  0.45594000000E+02  0.51100000000E-03 0.  1.
         23    2    1    2    0    0 -0.35527136788E-14  0.00000000000E+00 -0.71054273576E-14  0.91188000000E+02  0.91188000000E+02 0.  0.
    9900012    2    3    3    0    0 -0.22653419664E+02 -0.43666621639E+01  0.36761093743E+02  0.47787272193E+02  0.20000005239E+02 0.  0.
        -12    1    3    3    0    0  0.22653419664E+02  0.43666621639E+01 -0.36761093743E+02  0.43400727807E+02  0.00000000000E+00 0.  1.
         11    1    4    4    0    0 -0.20661910385E+02 -0.53037294281E+01  0.19747643736E+02  0.29069116258E+02  0.51100000000E-03 0. -1.
        -11    1    4    4    0    0 -0.78394611045E+00 -0.17006755553E+01  0.15160833762E+02  0.15276051501E+02  0.51100000000E-03 0.  1.
         12    1    4    4    0    0 -0.12075631689E+01  0.26377428194E+01  0.18526162452E+01  0.34421044348E+01  0.00000000000E+00 0. -1.
</event>
<event>
 8    1  0.6469014E-010  0.9118800E+02  0.7816164E-02  0.1184000E+00
        -11   -1    0    0    0    0  0.00000000000E+00  0.00000000000E+00  0.45593999997E+02  0.45594000000E+02  0.51100000000E-03 0. -1.
         11   -1    0    0    0    0 -0.00000000000E+00 -0.00000000000E+00 -0.45593999997E+02  0.45594000000E+02  0.51100000000E-03 0.  1.
         23    2    1    2    0    0  0.00000000000E+00  0.00000000000E+00  0.00000000000E+00  0.91188000000E+02  0.91188000000E+02 0.  0.
    9900012    2    3    3    0    0  0.22038697974E+02 -0.79767614117E+01 -0.36527939566E+02  0.47787270744E+02  0.19999998631E+02 0.  0.
         12    1    3    3    0    0 -0.22038697974E+02  0.79767614117E+01  0.36527939566E+02  0.43400729256E+02  0.00000000000E+00 0. -1.
         11    1    4    4    0    0  0.15177735915E+02 -0.36249847500E+01 -0.21873432689E+02  0.26869150337E+02  0.51100000000E-03 0. -1.
        -11    1    4    4    0    0  0.32396064330E+01 -0.26387079851E+01  0.13725868624E+01  0.43979341318E+01  0.51100000000E-03 0.  1.
        -12    1    4    4    0    0  0.36213556259E+01 -0.17130686765E+01 -0.16027093739E+02  0.16520186276E+02  0.00000000000E+00 0.  1.
</event>
<event>
 8    1  0.6469014E-010  0.9118800E+02  0.7816164E-02  0.1184000E+00
        -11   -1    0    0    0    0  0.00000000000E+00  0.00000000000E+00  0.45593999997E+02  0.45594000000E+02  0.51100000000E-03 0. -1.
         11   -1    0    0    0    0 -0.00000000000E+00 -0.00000000000E+00 -0.45593999997E+02  0.45594000000E+02  0.51100000000E-03 0.  1.
         23    2    1    2    0    0  0.35527136788E-14  0.00000000000E+00  0.00000000000E+00  0.91188000000E+02  0.91188000000E+02 0.  0.
    9900012    2    3    3    0    0  0.28044767704E+02  0.69008830411E+01 -0.32395862861E+02  0.47787272899E+02  0.20000008457E+02 0.  0.
         12    1    3    3    0    0 -0.28044767704E+02 -0.69008830411E+01  0.32395862861E+02  0.43400727101E+02  0.00000000000E+00 0. -1.
         11    1    4    4    0    0  0.47302589284E+01 -0.49621865641E+00 -0.14348092558E+02  0.15115863945E+02  0.51100000000E-03 0. -1.
        -11    1    4    4    0    0  0.16182189391E+02  0.10649277483E+02 -0.12227853231E+02  0.22908312014E+02  0.51100000000E-03 0.  1.
        -12    1    4    4    0    0  0.71323193845E+01 -0.32521757859E+01 -0.58199170723E+01  0.97630969407E+01  0.00000000000E+00 0.  1.
</event>
<event>
 8    1  0.6469014E-010  0.9118800E+02  0.7816164E-02  0.1184000E+00
        -11   -1    0    0    0    0  0.00000000000E+00  0.00000000000E+00  0.45593999997E+02  0.45594000000E+02  0.51100000000E-03 0.  1.
         11   -1    0    0    0    0 -0.00000000000E+00 -0.00000000000E+00 -0.45593999997E+02  0.45594000000E+02  0.51100000000E-03 0. -1.
         23    2    1    2    0    0 -0.35527136788E-14  0.00000000000E+00  0.00000000000E+00  0.91188000000E+02  0.91188000000E+02 0.  0.
    9900012    2    3    3    0    0 -0.28279997575E+02 -0.32378158738E+02 -0.59598373779E+01  0.47787273190E+02  0.20000009780E+02 0.  0.
         12    1    3    3    0    0  0.28279997575E+02  0.32378158738E+02  0.59598373779E+01  0.43400726810E+02  0.00000000000E+00 0. -1.
         11    1    4    4    0    0 -0.10389350681E+02 -0.19931817810E+01 -0.28115579551E+01  0.10946060459E+02  0.51100000000E-03 0. -1.
        -11    1    4    4    0    0 -0.14449256649E+02 -0.29909031826E+02 -0.25316416024E+01  0.33312766501E+02  0.51100000000E-03 0.  1.
        -12    1    4    4    0    0 -0.34413902461E+01 -0.47594513036E+00 -0.61663782036E+00  0.35284462295E+01  0.00000000000E+00 0.  1.
</event>
<event>
 8    1  0.6469014E-010  0.9118800E+02  0.7816164E-02  0.1184000E+00
        -11   -1    0    0    0    0  0.00000000000E+00  0.00000000000E+00  0.45593999997E+02  0.45594000000E+02  0.51100000000E-03 0. -1.
         11   -1    0    0    0    0 -0.00000000000E+00 -0.00000000000E+00 -0.45593999997E+02  0.45594000000E+02  0.51100000000E-03 0.  1.
         23    2    1    2    0    0 -0.22204460493E-15  0.00000000000E+00  0.00000000000E+00  0.91188000000E+02  0.91188000000E+02 0.  0.
    9900012    2    3    3    0    0  0.97637198634E+00  0.39184630099E+02  0.18634239258E+02  0.47787269465E+02  0.19999992800E+02 0.  0.
        -12    1    3    3    0    0 -0.97637198634E+00 -0.39184630099E+02 -0.18634239258E+02  0.43400730535E+02  0.00000000000E+00 0.  1.
         11    1    4    4    0    0  0.38256842029E+01  0.29474531854E+02  0.57679186683E+01  0.30276274105E+02  0.51100000000E-03 0. -1.
        -11    1    4    4    0    0 -0.33823937197E+01  0.10371354106E+02  0.11166482064E+02  0.15610762160E+02  0.51100000000E-03 0.  1.
         12    1    4    4    0    0  0.53308150314E+00 -0.66125586144E+00  0.16998385258E+01  0.19002332007E+01  0.00000000000E+00 0. -1.
</event>
<event>
 8    1  0.6469014E-010  0.9118800E+02  0.7816164E-02  0.1184000E+00
        -11   -1    0    0    0    0  0.00000000000E+00  0.00000000000E+00  0.45593999997E+02  0.45594000000E+02  0.51100000000E-03 0. -1.
         11   -1    0    0    0    0 -0.00000000000E+00 -0.00000000000E+00 -0.45593999997E+02  0.45594000000E+02  0.51100000000E-03 0.  1.
         23    2    1    2    0    0  0.88817841970E-15  0.00000000000E+00  0.00000000000E+00  0.91188000000E+02  0.91188000000E+02 0.  0.
    9900012    2    3    3    0    0 -0.56663630454E+01 -0.38162990225E+02  0.19877166384E+02  0.47787271475E+02  0.20000001962E+02 0.  0.
        -12    1    3    3    0    0  0.56663630454E+01  0.38162990225E+02 -0.19877166384E+02  0.43400728525E+02  0.00000000000E+00 0.  1.
         11    1    4    4    0    0 -0.18783338026E+01 -0.97915099173E+01  0.13380998353E+02  0.16686908687E+02  0.51100000000E-03 0. -1.
        -11    1    4    4    0    0 -0.58093227881E+01 -0.24866383317E+02  0.80368506157E+01  0.26770809077E+02  0.51100000000E-03 0.  1.
         12    1    4    4    0    0  0.20212935452E+01 -0.35050969902E+01 -0.15406825851E+01  0.43295537108E+01  0.00000000000E+00 0. -1.
</event>
<event>
 8    1  0.6469014E-010  0.9118800E+02  0.7816164E-02  0.1184000E+00
        -11   -1    0    0    0    0  0.00000000000E+00  0.00000000000E+00  0.45593999997E+02  0.45594000000E+02  0.51100000000E-03 0.  1.
         11   -1    0    0    0    0 -0.00000000000E+00 -0.00000000000E+00 -0.45593999997E+02  0.45594000000E+02  0.51100000000E-03 0. -1.
         23    2    1    2    0    0  0.00000000000E+00  0.00000000000E+00  0.44408920985E-15  0.91188000000E+02  0.91188000000E+02 0.  0.
    9900012    2    3    3    0    0 -0.37097449465E+02  0.22408555957E+02  0.22934411918E+01  0.47787262571E+02  0.19999961367E+02 0.  0.
        -12    1    3    3    0    0  0.37097449465E+02 -0.22408555957E+02 -0.22934411918E+01  0.43400737429E+02  0.00000000000E+00 0.  1.
         11    1    4    4    0    0 -0.12294908991E+02  0.16686442674E+02 -0.49258634656E+01  0.21304137799E+02  0.51100000000E-03 0. -1.
        -11    1    4    4    0    0 -0.86470572716E+01  0.14481510499E+01  0.23528127476E+01  0.90776907310E+01  0.51100000000E-03 0.  1.
         12    1    4    4    0    0 -0.16155483202E+02  0.42739622335E+01  0.48664919098E+01  0.17405434041E+02  0.00000000000E+00 0. -1.
</event>
<event>
 8    1  0.6469014E-010  0.9118800E+02  0.7816164E-02  0.1184000E+00
        -11   -1    0    0    0    0  0.00000000000E+00  0.00000000000E+00  0.45593999997E+02  0.45594000000E+02  0.51100000000E-03 0. -1.
         11   -1    0    0    0    0 -0.00000000000E+00 -0.00000000000E+00 -0.45593999997E+02  0.45594000000E+02  0.51100000000E-03 0.  1.
         23    2    1    2    0    0 -0.71054273576E-14  0.00000000000E+00 -0.71054273576E-14  0.91188000000E+02  0.91188000000E+02 0.  0.
    9900012    2    3    3    0    0  0.23917267623E+02 -0.14310846876E+02  0.33268412291E+02  0.47787270914E+02  0.19999999404E+02 0.  0.
        -12    1    3    3    0    0 -0.23917267623E+02  0.14310846876E+02 -0.33268412291E+02  0.43400729086E+02  0.00000000000E+00 0.  1.
         11    1    4    4    0    0  0.12537739723E+02 -0.57944417398E+01  0.70355342367E+01  0.15500619817E+02  0.51100000000E-03 0. -1.
        -11    1    4    4    0    0 -0.12839376722E+01 -0.24634758587E+01  0.11923007217E+02  0.12242357233E+02  0.51100000000E-03 0.  1.
        -12    1    4    4    0    0  0.12663465572E+02 -0.60529292774E+01  0.14309870837E+02  0.20044293864E+02  0.00000000000E+00 0.  1.
</event>
<event>
 8    1  0.6469014E-010  0.9118800E+02  0.7816164E-02  0.1184000E+00
        -11   -1    0    0    0    0  0.00000000000E+00  0.00000000000E+00  0.45593999997E+02  0.45594000000E+02  0.51100000000E-03 0. -1.
         11   -1    0    0    0    0 -0.00000000000E+00 -0.00000000000E+00 -0.45593999997E+02  0.45594000000E+02  0.51100000000E-03 0.  1.
         23    2    1    2    0    0  0.00000000000E+00  0.00000000000E+00  0.00000000000E+00  0.91188000000E+02  0.91188000000E+02 0.  0.
    9900012    2    3    3    0    0 -0.36126001386E+02  0.11520318350E+02  0.21114392369E+02  0.47787271018E+02  0.19999999880E+02 0.  0.
        -12    1    3    3    0    0  0.36126001386E+02 -0.11520318350E+02 -0.21114392369E+02  0.43400728982E+02  0.00000000000E+00 0.  1.
         11    1    4    4    0    0 -0.33669899546E+02  0.96400874526E+01  0.13739914502E+02  0.37621518740E+02  0.51100000000E-03 0. -1.
        -11    1    4    4    0    0  0.95501403651E+00  0.26146349911E+01  0.11133362432E+01  0.29979802865E+01  0.51100000000E-03 0.  1.
         12    1    4    4    0    0 -0.34111158771E+01 -0.73440409375E+00  0.62611416230E+01  0.71677719916E+01  0.00000000000E+00 0. -1.
</event>
<event>
 8    1  0.6469014E-010  0.9118800E+02  0.7816164E-02  0.1184000E+00
        -11   -1    0    0    0    0  0.00000000000E+00  0.00000000000E+00  0.45593999997E+02  0.45594000000E+02  0.51100000000E-03 0. -1.
         11   -1    0    0    0    0 -0.00000000000E+00 -0.00000000000E+00 -0.45593999997E+02  0.45594000000E+02  0.51100000000E-03 0.  1.
         23    2    1    2    0    0  0.00000000000E+00  0.00000000000E+00  0.00000000000E+00  0.91188000000E+02  0.91188000000E+02 0.  0.
    9900012    2    3    3    0    0 -0.23021328045E+02 -0.18692030733E+02 -0.31689900114E+02  0.47787270431E+02  0.19999997204E+02 0.  0.
         12    1    3    3    0    0  0.23021328045E+02  0.18692030733E+02  0.31689900114E+02  0.43400729569E+02  0.00000000000E+00 0. -1.
         11    1    4    4    0    0  0.28150539301E+01 -0.89084087246E+00 -0.16208982020E+01  0.33682988781E+01  0.51100000000E-03 0. -1.
        -11    1    4    4    0    0 -0.13632834257E+02 -0.38771284203E+01 -0.12631674164E+02  0.18985401948E+02  0.51100000000E-03 0.  1.
         12    1    4    4    0    0 -0.12203547718E+02 -0.13924061440E+02 -0.17437327748E+02  0.25433569605E+02  0.00000000000E+00 0. -1.
</event>
<event>
 8    1  0.6469014E-010  0.9118800E+02  0.7816164E-02  0.1184000E+00
        -11   -1    0    0    0    0  0.00000000000E+00  0.00000000000E+00  0.45593999997E+02  0.45594000000E+02  0.51100000000E-03 0. -1.
         11   -1    0    0    0    0 -0.00000000000E+00 -0.00000000000E+00 -0.45593999997E+02  0.45594000000E+02  0.51100000000E-03 0.  1.
         23    2    1    2    0    0  0.00000000000E+00  0.00000000000E+00  0.00000000000E+00  0.91188000000E+02  0.91188000000E+02 0.  0.
    9900012    2    3    3    0    0 -0.33619638610E+02  0.13429537143E+02  0.23937222849E+02  0.47787271828E+02  0.20000003574E+02 0.  0.
        -12    1    3    3    0    0  0.33619638610E+02 -0.13429537143E+02 -0.23937222849E+02  0.43400728172E+02  0.00000000000E+00 0.  1.
         11    1    4    4    0    0 -0.67383098564E+01  0.27658997955E+01  0.33302266950E+01  0.80090843110E+01  0.51100000000E-03 0. -1.
        -11    1    4    4    0    0 -0.28484758958E+02  0.12755397662E+02  0.17806964314E+02  0.35932849049E+02  0.51100000000E-03 0.  1.
        -12    1    4    4    0    0  0.16034302044E+01 -0.20917603151E+01  0.28000318392E+01  0.38453384684E+01  0.00000000000E+00 0.  1.
</event>
<event>
 8    1  0.6469014E-010  0.9118800E+02  0.7816164E-02  0.1184000E+00
        -11   -1    0    0    0    0  0.00000000000E+00  0.00000000000E+00  0.45593999997E+02  0.45594000000E+02  0.51100000000E-03 0. -1.
         11   -1    0    0    0    0 -0.00000000000E+00 -0.00000000000E+00 -0.45593999997E+02  0.45594000000E+02  0.51100000000E-03 0.  1.
         23    2    1    2    0    0  0.00000000000E+00  0.17763568394E-14  0.00000000000E+00  0.91188000000E+02  0.91188000000E+02 0.  0.
    9900012    2    3    3    0    0  0.17082540999E+02 -0.13868255648E+02  0.37409644973E+02  0.47787271219E+02  0.20000000796E+02 0.  0.
        -12    1    3    3    0    0 -0.17082540999E+02  0.13868255648E+02 -0.37409644973E+02  0.43400728781E+02  0.00000000000E+00 0.  1.
         11    1    4    4    0    0  0.32412925587E+01 -0.10526891918E+01  0.22138731861E+01  0.40639102759E+01  0.51100000000E-03 0. -1.
        -11    1    4    4    0    0  0.11093927922E+02 -0.45139337692E+01  0.32399994989E+02  0.34542879300E+02  0.51100000000E-03 0.  1.
        -12    1    4    4    0    0  0.27473205179E+01 -0.83016326866E+01  0.27957767987E+01  0.91804816431E+01  0.00000000000E+00 0.  1.
</event>
<event>
 8    1  0.6469014E-010  0.9118800E+02  0.7816164E-02  0.1184000E+00
        -11   -1    0    0    0    0  0.00000000000E+00  0.00000000000E+00  0.45593999997E+02  0.45594000000E+02  0.51100000000E-03 0. -1.
         11   -1    0    0    0    0 -0.00000000000E+00 -0.00000000000E+00 -0.45593999997E+02  0.45594000000E+02  0.51100000000E-03 0.  1.
         23    2    1    2    0    0 -0.44408920985E-15  0.00000000000E+00  0.00000000000E+00  0.91188000000E+02  0.91188000000E+02 0.  0.
    9900012    2    3    3    0    0  0.31298885916E+01  0.21625547102E+02  0.37498837603E+02  0.47787270609E+02  0.19999998014E+02 0.  0.
        -12    1    3    3    0    0 -0.31298885916E+01 -0.21625547102E+02 -0.37498837603E+02  0.43400729391E+02  0.00000000000E+00 0.  1.
         11    1    4    4    0    0  0.29544934064E+01  0.12825454961E+01  0.67420794793E+01  0.74719201149E+01  0.51100000000E-03 0. -1.
        -11    1    4    4    0    0  0.17656312093E+01  0.86045136186E+01  0.26183346568E+02  0.27617435543E+02  0.51100000000E-03 0.  1.
        -12    1    4    4    0    0 -0.15902360240E+01  0.11738487988E+02  0.45734115559E+01  0.12697914951E+02  0.00000000000E+00 0.  1.
</event>
<event>
 8    1  0.6469014E-010  0.9118800E+02  0.7816164E-02  0.1184000E+00
        -11   -1    0    0    0    0  0.00000000000E+00  0.00000000000E+00  0.45593999997E+02  0.45594000000E+02  0.51100000000E-03 0. -1.
         11   -1    0    0    0    0 -0.00000000000E+00 -0.00000000000E+00 -0.45593999997E+02  0.45594000000E+02  0.51100000000E-03 0.  1.
         23    2    1    2    0    0  0.17763568394E-14  0.00000000000E+00  0.00000000000E+00  0.91188000000E+02  0.91188000000E+02 0.  0.
    9900012    2    3    3    0    0  0.12119654448E+02  0.15366363790E+02 -0.38737736282E+02  0.47787269910E+02  0.19999994828E+02 0.  0.
         12    1    3    3    0    0 -0.12119654448E+02 -0.15366363790E+02  0.38737736282E+02  0.43400730090E+02  0.00000000000E+00 0. -1.
         11    1    4    4    0    0  0.15326768237E+01 -0.85164802193E+00 -0.38258309083E+00  0.17946511309E+01  0.51100000000E-03 0. -1.
        -11    1    4    4    0    0 -0.80286256433E+00  0.35614329338E+01 -0.22276951289E+02  0.22574121286E+02  0.51100000000E-03 0.  1.
        -12    1    4    4    0    0  0.11389840189E+02  0.12656578878E+02 -0.16078201902E+02  0.23418497493E+02  0.00000000000E+00 0.  1.
</event>
<event>
 8    1  0.6469014E-010  0.9118800E+02  0.7816164E-02  0.1184000E+00
        -11   -1    0    0    0    0  0.00000000000E+00  0.00000000000E+00  0.45593999997E+02  0.45594000000E+02  0.51100000000E-03 0. -1.
         11   -1    0    0    0    0 -0.00000000000E+00 -0.00000000000E+00 -0.45593999997E+02  0.45594000000E+02  0.51100000000E-03 0.  1.
         23    2    1    2    0    0  0.00000000000E+00 -0.17763568394E-14  0.00000000000E+00  0.91188000000E+02  0.91188000000E+02 0.  0.
    9900012    2    3    3    0    0  0.97666627030E+01 -0.14248716195E+02 -0.39814708065E+02  0.47787255860E+02  0.19999930768E+02 0.  0.
         12    1    3    3    0    0 -0.97666627030E+01  0.14248716195E+02  0.39814708065E+02  0.43400744140E+02  0.00000000000E+00 0. -1.
         11    1    4    4    0    0  0.45559283882E+01  0.66921961033E+00 -0.16963092877E+02  0.17576997997E+02  0.51100000000E-03 0. -1.
        -11    1    4    4    0    0 -0.11165527062E+00 -0.18304696593E+01 -0.12653785929E+02  0.12785983915E+02  0.51100000000E-03 0.  1.
         12    1    4    4    0    0  0.53223895854E+01 -0.13087466146E+02 -0.10197829260E+02  0.17424273948E+02  0.00000000000E+00 0. -1.
</event>
<event>
 8    1  0.6469014E-010  0.9118800E+02  0.7816164E-02  0.1184000E+00
        -11   -1    0    0    0    0  0.00000000000E+00  0.00000000000E+00  0.45593999997E+02  0.45594000000E+02  0.51100000000E-03 0. -1.
         11   -1    0    0    0    0 -0.00000000000E+00 -0.00000000000E+00 -0.45593999997E+02  0.45594000000E+02  0.51100000000E-03 0.  1.
         23    2    1    2    0    0  0.00000000000E+00  0.35527136788E-14  0.00000000000E+00  0.91188000000E+02  0.91188000000E+02 0.  0.
    9900012    2    3    3    0    0 -0.18379154675E+02 -0.30920671471E+02 -0.24284595598E+02  0.47787276110E+02  0.20000023097E+02 0.  0.
         12    1    3    3    0    0  0.18379154675E+02  0.30920671471E+02  0.24284595598E+02  0.43400723890E+02  0.00000000000E+00 0. -1.
         11    1    4    4    0    0 -0.14192269675E+01  0.97442769957E+00 -0.26113804451E+01  0.31277823801E+01  0.51100000000E-03 0. -1.
        -11    1    4    4    0    0 -0.10570297528E+02 -0.29578106420E+02 -0.13941636963E+02  0.34365168568E+02  0.51100000000E-03 0.  1.
        -12    1    4    4    0    0 -0.63896301799E+01 -0.23169927507E+01 -0.77315781902E+01  0.10294325163E+02  0.00000000000E+00 0.  1.
</event>
<event>
 8    1  0.6469014E-010  0.9118800E+02  0.7816164E-02  0.1184000E+00
        -11   -1    0    0    0    0  0.00000000000E+00  0.00000000000E+00  0.45593999997E+02  0.45594000000E+02  0.51100000000E-03 0. -1.
         11   -1    0    0    0    0 -0.00000000000E+00 -0.00000000000E+00 -0.45593999997E+02  0.45594000000E+02  0.51100000000E-03 0.  1.
         23    2    1    2    0    0 -0.35527136788E-14 -0.35527136788E-14 -0.71054273576E-14  0.91188000000E+02  0.91188000000E+02 0.  0.
    9900012    2    3    3    0    0  0.20917786767E+02  0.27213910101E+02  0.26560732844E+02  0.47787271487E+02  0.20000002019E+02 0.  0.
        -12    1    3    3    0    0 -0.20917786767E+02 -0.27213910101E+02 -0.26560732844E+02  0.43400728513E+02  0.00000000000E+00 0.  1.
         11    1    4    4    0    0  0.59418295850E+01  0.12618754251E+02 -0.55036884326E-02  0.13947699746E+02  0.51100000000E-03 0. -1.
        -11    1    4    4    0    0  0.96390035971E+01  0.99412795461E+01  0.18457468409E+02  0.23074175384E+02  0.51100000000E-03 0.  1.
         12    1    4    4    0    0  0.53369535847E+01  0.46538763042E+01  0.81087681243E+01  0.10765396357E+02  0.00000000000E+00 0. -1.
</event>
<event>
 8    1  0.6469014E-010  0.9118800E+02  0.7816164E-02  0.1184000E+00
        -11   -1    0    0    0    0  0.00000000000E+00  0.00000000000E+00  0.45593999997E+02  0.45594000000E+02  0.51100000000E-03 0. -1.
         11   -1    0    0    0    0 -0.00000000000E+00 -0.00000000000E+00 -0.45593999997E+02  0.45594000000E+02  0.51100000000E-03 0.  1.
         23    2    1    2    0    0  0.88817841970E-15 -0.88817841970E-15  0.71054273576E-14  0.91188000000E+02  0.91188000000E+02 0.  0.
    9900012    2    3    3    0    0 -0.48870409686E+01 -0.61480043082E+01  0.42684212123E+02  0.47787273152E+02  0.20000009608E+02 0.  0.
        -12    1    3    3    0    0  0.48870409686E+01  0.61480043082E+01 -0.42684212123E+02  0.43400726848E+02  0.00000000000E+00 0.  1.
         11    1    4    4    0    0 -0.18245956686E+01 -0.62328608164E+01  0.27671681415E+02  0.28423575706E+02  0.51100000000E-03 0. -1.
        -11    1    4    4    0    0  0.60431698483E+00  0.55856136055E+01  0.67685136767E+01  0.87964229105E+01  0.51100000000E-03 0.  1.
        -12    1    4    4    0    0 -0.36667622848E+01 -0.55007570973E+01  0.82440170307E+01  0.10567274535E+02  0.00000000000E+00 0.  1.
</event>
<event>
 8    1  0.1190053E-009  0.9118800E+02  0.7816164E-02  0.1184000E+00
        -11   -1    0    0    0    0  0.00000000000E+00  0.00000000000E+00  0.45593999997E+02  0.45594000000E+02  0.51100000000E-03 0. -1.
         11   -1    0    0    0    0 -0.00000000000E+00 -0.00000000000E+00 -0.45593999997E+02  0.45594000000E+02  0.51100000000E-03 0.  1.
         23    2    1    2    0    0  0.00000000000E+00  0.00000000000E+00  0.00000000000E+00  0.91188000000E+02  0.91188000000E+02 0.  0.
    9900012    2    3    3    0    0  0.29994757095E+02 -0.21633576648E+01 -0.31293105566E+02  0.47787262385E+02  0.19999960518E+02 0.  0.
         12    1    3    3    0    0 -0.29994757095E+02  0.21633576648E+01  0.31293105566E+02  0.43400737615E+02  0.00000000000E+00 0. -1.
         11    1    4    4    0    0  0.12977962964E+01 -0.44624093399E+01 -0.74628699689E+01  0.87915755572E+01  0.51100000000E-03 0. -1.
        -11    1    4    4    0    0  0.23737395365E+02  0.11308296902E+01 -0.24161244782E+02  0.33889651284E+02  0.51100000000E-03 0.  1.
         12    1    4    4    0    0  0.49595654336E+01  0.11682219849E+01  0.33100918421E+00  0.51060355439E+01  0.00000000000E+00 0. -1.
</event>
<event>
 8    1  0.6469014E-010  0.9118800E+02  0.7816164E-02  0.1184000E+00
        -11   -1    0    0    0    0  0.00000000000E+00  0.00000000000E+00  0.45593999997E+02  0.45594000000E+02  0.51100000000E-03 0. -1.
         11   -1    0    0    0    0 -0.00000000000E+00 -0.00000000000E+00 -0.45593999997E+02  0.45594000000E+02  0.51100000000E-03 0.  1.
         23    2    1    2    0    0 -0.35527136788E-14  0.00000000000E+00  0.00000000000E+00  0.91188000000E+02  0.91188000000E+02 0.  0.
    9900012    2    3    3    0    0  0.20166688270E+02 -0.14519348661E+02  0.35582528324E+02  0.47787272779E+02  0.20000007910E+02 0.  0.
        -12    1    3    3    0    0 -0.20166688270E+02  0.14519348661E+02 -0.35582528324E+02  0.43400727221E+02  0.00000000000E+00 0.  1.
         11    1    4    4    0    0  0.53342592951E+01  0.10804514581E+01  0.35749074591E+00  0.54543099908E+01  0.51100000000E-03 0.  1.
        -11    1    4    4    0    0  0.63334554091E+01 -0.10585855978E+02  0.12519453458E+02  0.17575827700E+02  0.51100000000E-03 0. -1.
         12    1    4    4    0    0  0.84989735659E+01 -0.50139441413E+01  0.22705584120E+02  0.24757135088E+02  0.00000000000E+00 0. -1.
</event>
<event>
 8    1  0.6469014E-010  0.9118800E+02  0.7816164E-02  0.1184000E+00
        -11   -1    0    0    0    0  0.00000000000E+00  0.00000000000E+00  0.45593999997E+02  0.45594000000E+02  0.51100000000E-03 0. -1.
         11   -1    0    0    0    0 -0.00000000000E+00 -0.00000000000E+00 -0.45593999997E+02  0.45594000000E+02  0.51100000000E-03 0.  1.
         23    2    1    2    0    0 -0.35527136788E-14  0.71054273576E-14 -0.17763568394E-14  0.91188000000E+02  0.91188000000E+02 0.  0.
    9900012    2    3    3    0    0  0.18183325112E+02  0.37856018338E+02  0.10950410631E+02  0.47787275011E+02  0.20000018087E+02 0.  0.
        -12    1    3    3    0    0 -0.18183325112E+02 -0.37856018338E+02 -0.10950410631E+02  0.43400724989E+02  0.00000000000E+00 0.  1.
         11    1    4    4    0    0  0.56244364121E+01  0.11184762326E+02 -0.55529266701E+00  0.12531621741E+02  0.51100000000E-03 0. -1.
        -11    1    4    4    0    0  0.55181840915E+01  0.49587413134E+00 -0.59348228350E+00  0.55721152450E+01  0.51100000000E-03 0.  1.
        -12    1    4    4    0    0  0.70407046082E+01  0.26175381881E+02  0.12099185581E+02  0.29683538026E+02  0.00000000000E+00 0.  1.
</event>
<event>
 8    1  0.6469014E-010  0.9118800E+02  0.7816164E-02  0.1184000E+00
        -11   -1    0    0    0    0  0.00000000000E+00  0.00000000000E+00  0.45593999997E+02  0.45594000000E+02  0.51100000000E-03 0. -1.
         11   -1    0    0    0    0 -0.00000000000E+00 -0.00000000000E+00 -0.45593999997E+02  0.45594000000E+02  0.51100000000E-03 0.  1.
         23    2    1    2    0    0  0.00000000000E+00  0.00000000000E+00  0.00000000000E+00  0.91188000000E+02  0.91188000000E+02 0.  0.
    9900012    2    3    3    0    0  0.24746935738E+02  0.24188415511E+02 -0.26194139802E+02  0.47787271512E+02  0.20000002130E+02 0.  0.
         12    1    3    3    0    0 -0.24746935738E+02 -0.24188415511E+02  0.26194139802E+02  0.43400728488E+02  0.00000000000E+00 0. -1.
         11    1    4    4    0    0  0.72470098862E+01  0.99737436400E+01 -0.17866542739E+01  0.12457401344E+02  0.51100000000E-03 0. -1.
        -11    1    4    4    0    0  0.86576047103E+01  0.10829196566E+02 -0.21203774571E+02  0.25334278634E+02  0.51100000000E-03 0.  1.
        -12    1    4    4    0    0  0.88423211412E+01  0.33854753049E+01 -0.32037109571E+01  0.99955915333E+01  0.00000000000E+00 0.  1.
</event>
<event>
 8    1  0.6469014E-010  0.9118800E+02  0.7816164E-02  0.1184000E+00
        -11   -1    0    0    0    0  0.00000000000E+00  0.00000000000E+00  0.45593999997E+02  0.45594000000E+02  0.51100000000E-03 0.  1.
         11   -1    0    0    0    0 -0.00000000000E+00 -0.00000000000E+00 -0.45593999997E+02  0.45594000000E+02  0.51100000000E-03 0. -1.
         23    2    1    2    0    0  0.00000000000E+00  0.00000000000E+00  0.00000000000E+00  0.91188000000E+02  0.91188000000E+02 0.  0.
    9900012    2    3    3    0    0  0.38582920628E+02  0.17616289835E+02 -0.92004239847E+01  0.47787271512E+02  0.20000002133E+02 0.  0.
         12    1    3    3    0    0 -0.38582920628E+02 -0.17616289835E+02  0.92004239847E+01  0.43400728488E+02  0.00000000000E+00 0. -1.
         11    1    4    4    0    0  0.51554732821E+01  0.45119225931E+01  0.78090530463E+00  0.68953726226E+01  0.51100000000E-03 0. -1.
        -11    1    4    4    0    0  0.88513954147E+01  0.11315031741E+02 -0.72742434566E+01  0.16102538999E+02  0.51100000000E-03 0.  1.
        -12    1    4    4    0    0  0.24576051932E+02  0.17893355008E+01 -0.27070858328E+01  0.24789359891E+02  0.00000000000E+00 0.  1.
</event>
<event>
 8    1  0.6469014E-010  0.9118800E+02  0.7816164E-02  0.1184000E+00
        -11   -1    0    0    0    0  0.00000000000E+00  0.00000000000E+00  0.45593999997E+02  0.45594000000E+02  0.51100000000E-03 0. -1.
         11   -1    0    0    0    0 -0.00000000000E+00 -0.00000000000E+00 -0.45593999997E+02  0.45594000000E+02  0.51100000000E-03 0.  1.
         23    2    1    2    0    0  0.71054273576E-14 -0.88817841970E-15  0.35527136788E-14  0.91188000000E+02  0.91188000000E+02 0.  0.
    9900012    2    3    3    0    0  0.32206938778E+02 -0.76168859089E+01 -0.28077026370E+02  0.47787271133E+02  0.20000000405E+02 0.  0.
         12    1    3    3    0    0 -0.32206938778E+02  0.76168859089E+01  0.28077026370E+02  0.43400728867E+02  0.00000000000E+00 0. -1.
         11    1    4    4    0    0  0.78059626022E+01 -0.54437771257E+01 -0.18402992786E+02  0.20718057469E+02  0.51100000000E-03 0. -1.
        -11    1    4    4    0    0  0.58236863871E+01  0.20911307064E+01 -0.29756599989E+01  0.68660544315E+01  0.51100000000E-03 0.  1.
         12    1    4    4    0    0  0.18577289789E+02 -0.42642394896E+01 -0.66983735851E+01  0.20203159233E+02  0.00000000000E+00 0. -1.
</event>
<event>
 8    1  0.6469014E-010  0.9118800E+02  0.7816164E-02  0.1184000E+00
        -11   -1    0    0    0    0  0.00000000000E+00  0.00000000000E+00  0.45593999997E+02  0.45594000000E+02  0.51100000000E-03 0. -1.
         11   -1    0    0    0    0 -0.00000000000E+00 -0.00000000000E+00 -0.45593999997E+02  0.45594000000E+02  0.51100000000E-03 0.  1.
         23    2    1    2    0    0  0.17763568394E-14  0.00000000000E+00  0.00000000000E+00  0.91188000000E+02  0.91188000000E+02 0.  0.
    9900012    2    3    3    0    0 -0.13063554803E+02  0.13930147848E+02  0.38973357764E+02  0.47787215461E+02  0.19999746573E+02 0.  0.
        -12    1    3    3    0    0  0.13063554803E+02 -0.13930147848E+02 -0.38973357764E+02  0.43400784539E+02  0.00000000000E+00 0.  1.
         11    1    4    4    0    0 -0.31448704560E+01  0.60240642978E+01  0.20846461097E+02  0.21926114598E+02  0.51100000000E-03 0. -1.
        -11    1    4    4    0    0 -0.12700047415E+02  0.88652910218E+01  0.14847556467E+02  0.21455407769E+02  0.51100000000E-03 0.  1.
        -12    1    4    4    0    0  0.27813630678E+01 -0.95920747207E+00  0.32793402004E+01  0.44056930941E+01  0.00000000000E+00 0.  1.
</event>
<event>
 8    1  0.6469014E-010  0.9118800E+02  0.7816164E-02  0.1184000E+00
        -11   -1    0    0    0    0  0.00000000000E+00  0.00000000000E+00  0.45593999997E+02  0.45594000000E+02  0.51100000000E-03 0. -1.
         11   -1    0    0    0    0 -0.00000000000E+00 -0.00000000000E+00 -0.45593999997E+02  0.45594000000E+02  0.51100000000E-03 0.  1.
         23    2    1    2    0    0 -0.88817841970E-15  0.00000000000E+00 -0.71054273576E-14  0.91188000000E+02  0.91188000000E+02 0.  0.
    9900012    2    3    3    0    0 -0.50192149329E+01 -0.25639091093E+02 -0.34656426547E+02  0.47787269457E+02  0.19999992761E+02 0.  0.
         12    1    3    3    0    0  0.50192149329E+01  0.25639091093E+02  0.34656426547E+02  0.43400730543E+02  0.00000000000E+00 0. -1.
         11    1    4    4    0    0 -0.57438153836E+01 -0.16599746554E+01 -0.63555951709E+01  0.87258536118E+01  0.51100000000E-03 0. -1.
        -11    1    4    4    0    0  0.85398921110E+00 -0.24915285854E+02 -0.23814179083E+02  0.34476309147E+02  0.51100000000E-03 0.  1.
        -12    1    4    4    0    0 -0.12938876036E+00  0.93616941590E+00 -0.44866522935E+01  0.45851066977E+01  0.00000000000E+00 0.  1.
</event>
<event>
 8    1  0.6469014E-010  0.9118800E+02  0.7816164E-02  0.1184000E+00
        -11   -1    0    0    0    0  0.00000000000E+00  0.00000000000E+00  0.45593999997E+02  0.45594000000E+02  0.51100000000E-03 0. -1.
         11   -1    0    0    0    0 -0.00000000000E+00 -0.00000000000E+00 -0.45593999997E+02  0.45594000000E+02  0.51100000000E-03 0.  1.
         23    2    1    2    0    0  0.88817841970E-15 -0.35527136788E-14  0.00000000000E+00  0.91188000000E+02  0.91188000000E+02 0.  0.
    9900012    2    3    3    0    0 -0.64414500194E+01  0.27132793846E+02 -0.33255706885E+02  0.47787276266E+02  0.20000023808E+02 0.  0.
         12    1    3    3    0    0  0.64414500194E+01 -0.27132793846E+02  0.33255706885E+02  0.43400723734E+02  0.00000000000E+00 0. -1.
         11    1    4    4    0    0 -0.28744378802E+00 -0.18934778011E+01  0.59760891930E+00  0.20062449491E+01  0.51100000000E-03 0. -1.
        -11    1    4    4    0    0 -0.18939190414E+01  0.11698101022E+02 -0.19766584706E+02  0.23046699721E+02  0.51100000000E-03 0.  1.
         12    1    4    4    0    0 -0.42600871900E+01  0.17328170625E+02 -0.14086731098E+02  0.22734331596E+02  0.00000000000E+00 0. -1.
</event>
<event>
 8    1  0.6469014E-010  0.9118800E+02  0.7816164E-02  0.1184000E+00
        -11   -1    0    0    0    0  0.00000000000E+00  0.00000000000E+00  0.45593999997E+02  0.45594000000E+02  0.51100000000E-03 0. -1.
         11   -1    0    0    0    0 -0.00000000000E+00 -0.00000000000E+00 -0.45593999997E+02  0.45594000000E+02  0.51100000000E-03 0.  1.
         23    2    1    2    0    0  0.44408920985E-15  0.00000000000E+00  0.00000000000E+00  0.91188000000E+02  0.91188000000E+02 0.  0.
    9900012    2    3    3    0    0  0.19150094255E+01  0.14974753169E+02 -0.40690450089E+02  0.47787271642E+02  0.20000002724E+02 0.  0.
         12    1    3    3    0    0 -0.19150094255E+01 -0.14974753169E+02  0.40690450089E+02  0.43400728358E+02  0.00000000000E+00 0. -1.
         11    1    4    4    0    0  0.77440939391E+01  0.65895622587E+01 -0.94913473506E+01  0.13909672767E+02  0.51100000000E-03 0. -1.
        -11    1    4    4    0    0 -0.58537283826E+01  0.40380558881E+01 -0.10206725066E+02  0.12439825890E+02  0.51100000000E-03 0.  1.
        -12    1    4    4    0    0  0.24643868922E-01  0.43471350221E+01 -0.20992377672E+02  0.21437772985E+02  0.00000000000E+00 0.  1.
</event>
<event>
 8    1  0.6469014E-010  0.9118800E+02  0.7816164E-02  0.1184000E+00
        -11   -1    0    0    0    0  0.00000000000E+00  0.00000000000E+00  0.45593999997E+02  0.45594000000E+02  0.51100000000E-03 0. -1.
         11   -1    0    0    0    0 -0.00000000000E+00 -0.00000000000E+00 -0.45593999997E+02  0.45594000000E+02  0.51100000000E-03 0.  1.
         23    2    1    2    0    0  0.35527136788E-14 -0.35527136788E-14 -0.35527136788E-14  0.91188000000E+02  0.91188000000E+02 0.  0.
    9900012    2    3    3    0    0 -0.20544454000E+02  0.29508397154E+02  0.24306524195E+02  0.47787225684E+02  0.19999793183E+02 0.  0.
        -12    1    3    3    0    0  0.20544454000E+02 -0.29508397154E+02 -0.24306524195E+02  0.43400774316E+02  0.00000000000E+00 0.  1.
         11    1    4    4    0    0 -0.11699735262E+02  0.23337725971E+02  0.18437041746E+02  0.31960252930E+02  0.51100000000E-03 0. -1.
        -11    1    4    4    0    0 -0.79152841445E+01  0.65611676995E+01  0.42491709722E+00  0.10289859060E+02  0.51100000000E-03 0.  1.
        -12    1    4    4    0    0 -0.92943459326E+00 -0.39049651679E+00  0.54445653521E+01  0.55371136945E+01  0.00000000000E+00 0.  1.
</event>
<event>
 8    1  0.6469014E-010  0.9118800E+02  0.7816164E-02  0.1184000E+00
        -11   -1    0    0    0    0  0.00000000000E+00  0.00000000000E+00  0.45593999997E+02  0.45594000000E+02  0.51100000000E-03 0. -1.
         11   -1    0    0    0    0 -0.00000000000E+00 -0.00000000000E+00 -0.45593999997E+02  0.45594000000E+02  0.51100000000E-03 0.  1.
         23    2    1    2    0    0  0.00000000000E+00  0.17763568394E-14  0.71054273576E-14  0.91188000000E+02  0.91188000000E+02 0.  0.
    9900012    2    3    3    0    0  0.24905276975E+02  0.13308554996E+02  0.32958049945E+02  0.47787268284E+02  0.19999987414E+02 0.  0.
        -12    1    3    3    0    0 -0.24905276975E+02 -0.13308554996E+02 -0.32958049945E+02  0.43400731716E+02  0.00000000000E+00 0.  1.
         11    1    4    4    0    0  0.18919141917E+02  0.12228461568E+02  0.23903496828E+02  0.32845796748E+02  0.51100000000E-03 0. -1.
        -11    1    4    4    0    0 -0.96485712917E+00  0.39393796301E+01  0.16133431267E+01  0.43649212427E+01  0.51100000000E-03 0.  1.
         12    1    4    4    0    0  0.69509921875E+01 -0.28592862017E+01  0.74412099906E+01  0.10576550293E+02  0.00000000000E+00 0. -1.
</event>
<event>
 8    1  0.6469014E-010  0.9118800E+02  0.7816164E-02  0.1184000E+00
        -11   -1    0    0    0    0  0.00000000000E+00  0.00000000000E+00  0.45593999997E+02  0.45594000000E+02  0.51100000000E-03 0.  1.
         11   -1    0    0    0    0 -0.00000000000E+00 -0.00000000000E+00 -0.45593999997E+02  0.45594000000E+02  0.51100000000E-03 0. -1.
         23    2    1    2    0    0  0.35527136788E-14 -0.35527136788E-14  0.00000000000E+00  0.91188000000E+02  0.91188000000E+02 0.  0.
    9900012    2    3    3    0    0 -0.31538380954E+02 -0.21385157478E+02  0.20775679499E+02  0.47787270833E+02  0.19999999037E+02 0.  0.
         12    1    3    3    0    0  0.31538380954E+02  0.21385157478E+02 -0.20775679499E+02  0.43400729167E+02  0.00000000000E+00 0. -1.
         11    1    4    4    0    0 -0.25439099053E+02 -0.17985692893E+02  0.22967328935E+02  0.38705698652E+02  0.51100000000E-03 0.  1.
        -11    1    4    4    0    0 -0.11328036003E+01 -0.32665162521E+01 -0.22282009364E+01  0.41131802898E+01  0.51100000000E-03 0. -1.
        -12    1    4    4    0    0 -0.49664783006E+01 -0.13294833274E+00  0.36551500162E-01  0.49683918909E+01  0.00000000000E+00 0.  1.
</event>
<event>
 8    1  0.6469014E-010  0.9118800E+02  0.7816164E-02  0.1184000E+00
        -11   -1    0    0    0    0  0.00000000000E+00  0.00000000000E+00  0.45593999997E+02  0.45594000000E+02  0.51100000000E-03 0. -1.
         11   -1    0    0    0    0 -0.00000000000E+00 -0.00000000000E+00 -0.45593999997E+02  0.45594000000E+02  0.51100000000E-03 0.  1.
         23    2    1    2    0    0 -0.44408920985E-15  0.00000000000E+00  0.00000000000E+00  0.91188000000E+02  0.91188000000E+02 0.  0.
    9900012    2    3    3    0    0  0.34487901890E+01  0.19034091639E+02  0.38851412439E+02  0.47787273660E+02  0.20000011926E+02 0.  0.
        -12    1    3    3    0    0 -0.34487901890E+01 -0.19034091639E+02 -0.38851412439E+02  0.43400726340E+02  0.00000000000E+00 0.  1.
         11    1    4    4    0    0  0.72890302770E+01  0.10792927940E+02  0.88504143935E+01  0.15746335799E+02  0.51100000000E-03 0.  1.
        -11    1    4    4    0    0 -0.46383900046E+00  0.12530950005E+01  0.33636783976E+00  0.13778741900E+01  0.51100000000E-03 0. -1.
         12    1    4    4    0    0 -0.33764010875E+01  0.69880686990E+01  0.29664630206E+02  0.30663063671E+02  0.00000000000E+00 0. -1.
</event>
<event>
 8    1  0.6469014E-010  0.9118800E+02  0.7816164E-02  0.1184000E+00
        -11   -1    0    0    0    0  0.00000000000E+00  0.00000000000E+00  0.45593999997E+02  0.45594000000E+02  0.51100000000E-03 0.  1.
         11   -1    0    0    0    0 -0.00000000000E+00 -0.00000000000E+00 -0.45593999997E+02  0.45594000000E+02  0.51100000000E-03 0. -1.
         23    2    1    2    0    0  0.00000000000E+00 -0.22204460493E-15  0.17763568394E-14  0.91188000000E+02  0.91188000000E+02 0.  0.
    9900012    2    3    3    0    0 -0.41311784896E+02  0.11808841264E+01  0.13250099221E+02  0.47787272034E+02  0.20000004512E+02 0.  0.
         12    1    3    3    0    0  0.41311784896E+02 -0.11808841264E+01 -0.13250099221E+02  0.43400727966E+02  0.00000000000E+00 0. -1.
         11    1    4    4    0    0 -0.21309656545E+02 -0.26845583388E+01 -0.16754253561E-01  0.21478095737E+02  0.51100000000E-03 0. -1.
        -11    1    4    4    0    0 -0.98329033284E+01  0.64491579333E+01  0.96471480900E+01  0.15210032625E+02  0.51100000000E-03 0.  1.
        -12    1    4    4    0    0 -0.10169225023E+02 -0.25837154681E+01  0.36197053842E+01  0.11099143672E+02  0.00000000000E+00 0.  1.
</event>
<event>
 8    1  0.6469014E-010  0.9118800E+02  0.7816164E-02  0.1184000E+00
        -11   -1    0    0    0    0  0.00000000000E+00  0.00000000000E+00  0.45593999997E+02  0.45594000000E+02  0.51100000000E-03 0. -1.
         11   -1    0    0    0    0 -0.00000000000E+00 -0.00000000000E+00 -0.45593999997E+02  0.45594000000E+02  0.51100000000E-03 0.  1.
         23    2    1    2    0    0  0.00000000000E+00  0.00000000000E+00  0.71054273576E-14  0.91188000000E+02  0.91188000000E+02 0.  0.
    9900012    2    3    3    0    0  0.10906215715E+02 -0.31502314198E+02  0.27789964473E+02  0.47787268826E+02  0.19999989887E+02 0.  0.
        -12    1    3    3    0    0 -0.10906215715E+02  0.31502314198E+02 -0.27789964473E+02  0.43400731174E+02  0.00000000000E+00 0.  1.
         11    1    4    4    0    0  0.70911674290E+01 -0.15985357648E+02  0.11862692524E+02  0.21131488088E+02  0.51100000000E-03 0. -1.
        -11    1    4    4    0    0 -0.18380447699E+01  0.36131063821E+00 -0.15086889413E+01  0.24052227623E+01  0.51100000000E-03 0.  1.
        -12    1    4    4    0    0  0.56530930554E+01 -0.15878267188E+02  0.17435960890E+02  0.24250557976E+02  0.00000000000E+00 0.  1.
</event>
<event>
 8    1  0.7569005E-010  0.9118800E+02  0.7816164E-02  0.1184000E+00
        -11   -1    0    0    0    0  0.00000000000E+00  0.00000000000E+00  0.45593999997E+02  0.45594000000E+02  0.51100000000E-03 0. -1.
         11   -1    0    0    0    0 -0.00000000000E+00 -0.00000000000E+00 -0.45593999997E+02  0.45594000000E+02  0.51100000000E-03 0.  1.
         23    2    1    2    0    0  0.00000000000E+00  0.00000000000E+00  0.35527136788E-14  0.91188000000E+02  0.91188000000E+02 0.  0.
    9900012    2    3    3    0    0 -0.30026576877E+02 -0.39179156414E+01 -0.31091442011E+02  0.47787272492E+02  0.20000006601E+02 0.  0.
         12    1    3    3    0    0  0.30026576877E+02  0.39179156414E+01  0.31091442011E+02  0.43400727508E+02  0.00000000000E+00 0. -1.
         11    1    4    4    0    0 -0.16841781429E+02 -0.85539655658E+00 -0.72936618899E+01  0.18373209001E+02  0.51100000000E-03 0. -1.
        -11    1    4    4    0    0 -0.13470283257E+02 -0.56980865761E+01 -0.20505552999E+02  0.25187187729E+02  0.51100000000E-03 0.  1.
         12    1    4    4    0    0  0.28548780858E+00  0.26355674913E+01 -0.32922271212E+01  0.42268757620E+01  0.00000000000E+00 0. -1.
</event>
<event>
 8    1  0.6469014E-010  0.9118800E+02  0.7816164E-02  0.1184000E+00
        -11   -1    0    0    0    0  0.00000000000E+00  0.00000000000E+00  0.45593999997E+02  0.45594000000E+02  0.51100000000E-03 0. -1.
         11   -1    0    0    0    0 -0.00000000000E+00 -0.00000000000E+00 -0.45593999997E+02  0.45594000000E+02  0.51100000000E-03 0.  1.
         23    2    1    2    0    0 -0.35527136788E-14  0.00000000000E+00  0.00000000000E+00  0.91188000000E+02  0.91188000000E+02 0.  0.
    9900012    2    3    3    0    0  0.25222664363E+02 -0.11738589232E+02 -0.33311370688E+02  0.47787254709E+02  0.19999925521E+02 0.  0.
         12    1    3    3    0    0 -0.25222664363E+02  0.11738589232E+02  0.33311370688E+02  0.43400745291E+02  0.00000000000E+00 0. -1.
         11    1    4    4    0    0  0.28384988617E+00 -0.33738907491E+01 -0.68291318291E+01  0.76223848857E+01  0.51100000000E-03 0. -1.
        -11    1    4    4    0    0  0.58397235582E+01  0.31345628357E+01 -0.17236590127E+01  0.68482739475E+01  0.51100000000E-03 0.  1.
        -12    1    4    4    0    0  0.19099090918E+02 -0.11499261318E+02 -0.24758579846E+02  0.33316595876E+02  0.00000000000E+00 0.  1.
</event>
<event>
 8    1  0.6469014E-010  0.9118800E+02  0.7816164E-02  0.1184000E+00
        -11   -1    0    0    0    0  0.00000000000E+00  0.00000000000E+00  0.45593999997E+02  0.45594000000E+02  0.51100000000E-03 0.  1.
         11   -1    0    0    0    0 -0.00000000000E+00 -0.00000000000E+00 -0.45593999997E+02  0.45594000000E+02  0.51100000000E-03 0. -1.
         23    2    1    2    0    0  0.71054273576E-14  0.35527136788E-14  0.00000000000E+00  0.91188000000E+02  0.91188000000E+02 0.  0.
    9900012    2    3    3    0    0 -0.39101777347E+02 -0.18765297837E+02 -0.15931034655E+01  0.47787269899E+02  0.19999994779E+02 0.  0.
         12    1    3    3    0    0  0.39101777347E+02  0.18765297837E+02  0.15931034655E+01  0.43400730101E+02  0.00000000000E+00 0. -1.
         11    1    4    4    0    0 -0.65835611760E+01  0.30065697101E+01  0.31550185943E+01  0.78953709078E+01  0.51100000000E-03 0. -1.
        -11    1    4    4    0    0 -0.11102566684E+02 -0.87295816945E+01 -0.44764606921E+01  0.14815913205E+02  0.51100000000E-03 0.  1.
         12    1    4    4    0    0 -0.21415649488E+02 -0.13042285852E+02 -0.27166136769E+00  0.25075985786E+02  0.00000000000E+00 0. -1.
</event>
<event>
 8    1  0.6469014E-010  0.9118800E+02  0.7816164E-02  0.1184000E+00
        -11   -1    0    0    0    0  0.00000000000E+00  0.00000000000E+00  0.45593999997E+02  0.45594000000E+02  0.51100000000E-03 0. -1.
         11   -1    0    0    0    0 -0.00000000000E+00 -0.00000000000E+00 -0.45593999997E+02  0.45594000000E+02  0.51100000000E-03 0.  1.
         23    2    1    2    0    0  0.00000000000E+00  0.00000000000E+00 -0.35527136788E-14  0.91188000000E+02  0.91188000000E+02 0.  0.
    9900012    2    3    3    0    0  0.12846350665E+02 -0.35411815681E+02 -0.21554527308E+02  0.47787273477E+02  0.20000011092E+02 0.  0.
         12    1    3    3    0    0 -0.12846350665E+02  0.35411815681E+02  0.21554527308E+02  0.43400726523E+02  0.00000000000E+00 0. -1.
         11    1    4    4    0    0  0.45074803842E+01 -0.88179287909E+01  0.22007575043E+01  0.10144780995E+02  0.51100000000E-03 0. -1.
        -11    1    4    4    0    0  0.20920766607E+01 -0.19852204350E+02 -0.17244405548E+02  0.26379088788E+02  0.51100000000E-03 0.  1.
         12    1    4    4    0    0  0.62467936199E+01 -0.67416825406E+01 -0.65108792639E+01  0.11263403695E+02  0.00000000000E+00 0. -1.
</event>
<event>
 8    1  0.6469014E-010  0.9118800E+02  0.7816164E-02  0.1184000E+00
        -11   -1    0    0    0    0  0.00000000000E+00  0.00000000000E+00  0.45593999997E+02  0.45594000000E+02  0.51100000000E-03 0. -1.
         11   -1    0    0    0    0 -0.00000000000E+00 -0.00000000000E+00 -0.45593999997E+02  0.45594000000E+02  0.51100000000E-03 0.  1.
         23    2    1    2    0    0  0.35527136788E-14  0.66613381478E-15  0.00000000000E+00  0.91188000000E+02  0.91188000000E+02 0.  0.
    9900012    2    3    3    0    0 -0.23162538862E+02  0.12300129111E+01 -0.36682516608E+02  0.47787272322E+02  0.20000005824E+02 0.  0.
         12    1    3    3    0    0  0.23162538862E+02 -0.12300129111E+01  0.36682516608E+02  0.43400727678E+02  0.00000000000E+00 0. -1.
         11    1    4    4    0    0  0.23799596636E+01  0.21508580441E+01 -0.33316508486E+01  0.46249644285E+01  0.51100000000E-03 0. -1.
        -11    1    4    4    0    0 -0.52069894287E+01  0.32785717595E+01 -0.45323689096E+01  0.76422601295E+01  0.51100000000E-03 0.  1.
         12    1    4    4    0    0 -0.20335509096E+02 -0.41994168925E+01 -0.28818496850E+02  0.35520047764E+02  0.00000000000E+00 0. -1.
</event>
<event>
 8    1  0.6469014E-010  0.9118800E+02  0.7816164E-02  0.1184000E+00
        -11   -1    0    0    0    0  0.00000000000E+00  0.00000000000E+00  0.45593999997E+02  0.45594000000E+02  0.51100000000E-03 0. -1.
         11   -1    0    0    0    0 -0.00000000000E+00 -0.00000000000E+00 -0.45593999997E+02  0.45594000000E+02  0.51100000000E-03 0.  1.
         23    2    1    2    0    0  0.00000000000E+00  0.00000000000E+00  0.00000000000E+00  0.91188000000E+02  0.91188000000E+02 0.  0.
    9900012    2    3    3    0    0 -0.63892134119E+01 -0.16268216578E+02 -0.39725879604E+02  0.47787280778E+02  0.20000044381E+02 0.  0.
         12    1    3    3    0    0  0.63892134119E+01  0.16268216578E+02  0.39725879604E+02  0.43400719222E+02  0.00000000000E+00 0. -1.
         11    1    4    4    0    0 -0.41609842929E+01 -0.24354164619E+01 -0.36055560271E+01  0.60203885385E+01  0.51100000000E-03 0. -1.
        -11    1    4    4    0    0  0.46149513227E+01 -0.73468336897E+01 -0.28033575153E+02  0.29345443890E+02  0.51100000000E-03 0.  1.
        -12    1    4    4    0    0 -0.68431804416E+01 -0.64859664262E+01 -0.80867484238E+01  0.12421448350E+02  0.00000000000E+00 0.  1.
</event>
<event>
 8    1  0.6469014E-010  0.9118800E+02  0.7816164E-02  0.1184000E+00
        -11   -1    0    0    0    0  0.00000000000E+00  0.00000000000E+00  0.45593999997E+02  0.45594000000E+02  0.51100000000E-03 0. -1.
         11   -1    0    0    0    0 -0.00000000000E+00 -0.00000000000E+00 -0.45593999997E+02  0.45594000000E+02  0.51100000000E-03 0.  1.
         23    2    1    2    0    0  0.00000000000E+00  0.00000000000E+00  0.00000000000E+00  0.91188000000E+02  0.91188000000E+02 0.  0.
    9900012    2    3    3    0    0 -0.31351502793E+02  0.30858981867E+01 -0.29852700707E+02  0.47787271498E+02  0.20000002069E+02 0.  0.
         12    1    3    3    0    0  0.31351502793E+02 -0.30858981867E+01  0.29852700707E+02  0.43400728502E+02  0.00000000000E+00 0. -1.
         11    1    4    4    0    0 -0.98159053107E+01  0.49807035129E-01 -0.22247908555E+01  0.10064997388E+02  0.51100000000E-03 0. -1.
        -11    1    4    4    0    0 -0.40619523891E+01  0.37516048853E+01 -0.15455474456E+02  0.16414800863E+02  0.51100000000E-03 0.  1.
        -12    1    4    4    0    0 -0.17473645093E+02 -0.71551373379E+00 -0.12172435395E+02  0.21307473247E+02  0.00000000000E+00 0.  1.
</event>
<event>
 8    1  0.6469014E-010  0.9118800E+02  0.7816164E-02  0.1184000E+00
        -11   -1    0    0    0    0  0.00000000000E+00  0.00000000000E+00  0.45593999997E+02  0.45594000000E+02  0.51100000000E-03 0. -1.
         11   -1    0    0    0    0 -0.00000000000E+00 -0.00000000000E+00 -0.45593999997E+02  0.45594000000E+02  0.51100000000E-03 0.  1.
         23    2    1    2    0    0  0.00000000000E+00 -0.66613381478E-15 -0.71054273576E-14  0.91188000000E+02  0.91188000000E+02 0.  0.
    9900012    2    3    3    0    0 -0.28253393746E+02  0.15236255013E+01  0.32909689771E+02  0.47787269895E+02  0.19999994759E+02 0.  0.
        -12    1    3    3    0    0  0.28253393746E+02 -0.15236255013E+01 -0.32909689771E+02  0.43400730105E+02  0.00000000000E+00 0.  1.
         11    1    4    4    0    0 -0.12325790561E+02  0.52143715758E+01  0.20829622931E+02  0.24758593975E+02  0.51100000000E-03 0. -1.
        -11    1    4    4    0    0 -0.87752467895E+01  0.33078556107E+00  0.44692576037E+00  0.87928447161E+01  0.51100000000E-03 0.  1.
         12    1    4    4    0    0 -0.71523563950E+01 -0.40215316356E+01  0.11633141079E+02  0.14235831204E+02  0.00000000000E+00 0. -1.
</event>
<event>
 8    1  0.6469014E-010  0.9118800E+02  0.7816164E-02  0.1184000E+00
        -11   -1    0    0    0    0  0.00000000000E+00  0.00000000000E+00  0.45593999997E+02  0.45594000000E+02  0.51100000000E-03 0. -1.
         11   -1    0    0    0    0 -0.00000000000E+00 -0.00000000000E+00 -0.45593999997E+02  0.45594000000E+02  0.51100000000E-03 0.  1.
         23    2    1    2    0    0 -0.17763568394E-14  0.00000000000E+00  0.88817841970E-15  0.91188000000E+02  0.91188000000E+02 0.  0.
    9900012    2    3    3    0    0  0.12691908080E+02 -0.41284164257E+02  0.42606828750E+01  0.47787306829E+02  0.20000163157E+02 0.  0.
        -12    1    3    3    0    0 -0.12691908080E+02  0.41284164257E+02 -0.42606828750E+01  0.43400693171E+02  0.00000000000E+00 0.  1.
         11    1    4    4    0    0  0.87392333725E+01 -0.13482923318E+02 -0.34310307008E+01  0.16429710681E+02  0.51100000000E-03 0. -1.
        -11    1    4    4    0    0 -0.18293869556E+01 -0.19000415703E+02  0.82891291265E+01  0.20810384799E+02  0.51100000000E-03 0.  1.
        -12    1    4    4    0    0  0.57820616635E+01 -0.88008252363E+01 -0.59741555072E+00  0.10547211350E+02  0.00000000000E+00 0.  1.
</event>
<event>
 8    1  0.6469014E-010  0.9118800E+02  0.7816164E-02  0.1184000E+00
        -11   -1    0    0    0    0  0.00000000000E+00  0.00000000000E+00  0.45593999997E+02  0.45594000000E+02  0.51100000000E-03 0. -1.
         11   -1    0    0    0    0 -0.00000000000E+00 -0.00000000000E+00 -0.45593999997E+02  0.45594000000E+02  0.51100000000E-03 0.  1.
         23    2    1    2    0    0  0.00000000000E+00  0.44408920985E-15  0.71054273576E-14  0.91188000000E+02  0.91188000000E+02 0.  0.
    9900012    2    3    3    0    0  0.24833528960E+02 -0.25441361156E+01 -0.35502805517E+02  0.47787239767E+02  0.19999857395E+02 0.  0.
         12    1    3    3    0    0 -0.24833528960E+02  0.25441361156E+01  0.35502805517E+02  0.43400760233E+02  0.00000000000E+00 0. -1.
         11    1    4    4    0    0  0.26804996629E+01 -0.53101215020E+00 -0.98705822606E+01  0.10241847820E+02  0.51100000000E-03 0.  1.
        -11    1    4    4    0    0  0.32315220781E+00  0.31993588293E+01  0.32358134311E+00  0.32318770730E+01  0.51100000000E-03 0. -1.
        -12    1    4    4    0    0  0.21829877090E+02 -0.52124827947E+01 -0.25955804599E+02  0.34313514874E+02  0.00000000000E+00 0.  1.
</event>
<event>
 8    1  0.6469014E-010  0.9118800E+02  0.7816164E-02  0.1184000E+00
        -11   -1    0    0    0    0  0.00000000000E+00  0.00000000000E+00  0.45593999997E+02  0.45594000000E+02  0.51100000000E-03 0. -1.
         11   -1    0    0    0    0 -0.00000000000E+00 -0.00000000000E+00 -0.45593999997E+02  0.45594000000E+02  0.51100000000E-03 0.  1.
         23    2    1    2    0    0  0.00000000000E+00 -0.11102230246E-15  0.71054273576E-14  0.91188000000E+02  0.91188000000E+02 0.  0.
    9900012    2    3    3    0    0 -0.11960367324E+01  0.51312143080E+00  0.43381211715E+02  0.47787270429E+02  0.19999997194E+02 0.  0.
        -12    1    3    3    0    0  0.11960367324E+01 -0.51312143080E+00 -0.43381211715E+02  0.43400729571E+02  0.00000000000E+00 0.  1.
         11    1    4    4    0    0  0.23567535536E+01  0.22741314473E+01  0.31257467531E+02  0.31428573589E+02  0.51100000000E-03 0. -1.
        -11    1    4    4    0    0 -0.31983239576E+01  0.24642275712E+01  0.60280922818E+00  0.40822877026E+01  0.51100000000E-03 0.  1.
        -12    1    4    4    0    0 -0.35446632849E+00 -0.42252375877E+01  0.11520934955E+02  0.12276409137E+02  0.00000000000E+00 0.  1.
</event>
<event>
 8    1  0.6469014E-010  0.9118800E+02  0.7816164E-02  0.1184000E+00
        -11   -1    0    0    0    0  0.00000000000E+00  0.00000000000E+00  0.45593999997E+02  0.45594000000E+02  0.51100000000E-03 0. -1.
         11   -1    0    0    0    0 -0.00000000000E+00 -0.00000000000E+00 -0.45593999997E+02  0.45594000000E+02  0.51100000000E-03 0.  1.
         23    2    1    2    0    0 -0.88817841970E-15  0.00000000000E+00  0.00000000000E+00  0.91188000000E+02  0.91188000000E+02 0.  0.
    9900012    2    3    3    0    0  0.58030520677E+01  0.14151804834E+02 -0.40616165437E+02  0.47787287009E+02  0.20000072787E+02 0.  0.
         12    1    3    3    0    0 -0.58030520677E+01 -0.14151804834E+02  0.40616165437E+02  0.43400712991E+02  0.00000000000E+00 0. -1.
         11    1    4    4    0    0 -0.16447753647E+01  0.42573651462E+01 -0.13578786038E+00  0.45660576642E+01  0.51100000000E-03 0. -1.
        -11    1    4    4    0    0  0.78518850371E+01  0.35129931034E+01 -0.20157124762E+02  0.21915813882E+02  0.51100000000E-03 0.  1.
         12    1    4    4    0    0 -0.40405760463E+00  0.63814465844E+01 -0.20323252814E+02  0.21305415462E+02  0.00000000000E+00 0. -1.
</event>
<event>
 8    1  0.6469014E-010  0.9118800E+02  0.7816164E-02  0.1184000E+00
        -11   -1    0    0    0    0  0.00000000000E+00  0.00000000000E+00  0.45593999997E+02  0.45594000000E+02  0.51100000000E-03 0. -1.
         11   -1    0    0    0    0 -0.00000000000E+00 -0.00000000000E+00 -0.45593999997E+02  0.45594000000E+02  0.51100000000E-03 0.  1.
         23    2    1    2    0    0  0.17763568394E-14  0.00000000000E+00  0.00000000000E+00  0.91188000000E+02  0.91188000000E+02 0.  0.
    9900012    2    3    3    0    0 -0.14635656076E+02  0.13592971669E+02 -0.38531181540E+02  0.47787271222E+02  0.20000000811E+02 0.  0.
         12    1    3    3    0    0  0.14635656076E+02 -0.13592971669E+02  0.38531181540E+02  0.43400728778E+02  0.00000000000E+00 0. -1.
         11    1    4    4    0    0 -0.97681220332E+01 -0.32081927533E+00 -0.27161862586E+02  0.28866692095E+02  0.51100000000E-03 0. -1.
        -11    1    4    4    0    0 -0.53167028644E+01  0.12967706273E+02 -0.10102147987E+02  0.17276635365E+02  0.51100000000E-03 0.  1.
         12    1    4    4    0    0  0.44916882162E+00  0.94608467152E+00 -0.12671709665E+01  0.16439437625E+01  0.00000000000E+00 0. -1.
</event>
<event>
 8    1  0.6469014E-010  0.9118800E+02  0.7816164E-02  0.1184000E+00
        -11   -1    0    0    0    0  0.00000000000E+00  0.00000000000E+00  0.45593999997E+02  0.45594000000E+02  0.51100000000E-03 0. -1.
         11   -1    0    0    0    0 -0.00000000000E+00 -0.00000000000E+00 -0.45593999997E+02  0.45594000000E+02  0.51100000000E-03 0.  1.
         23    2    1    2    0    0  0.35527136788E-14  0.00000000000E+00  0.00000000000E+00  0.91188000000E+02  0.91188000000E+02 0.  0.
    9900012    2    3    3    0    0  0.21160425094E+02  0.10697517875E+02 -0.36351379527E+02  0.47787271062E+02  0.20000000080E+02 0.  0.
         12    1    3    3    0    0 -0.21160425094E+02 -0.10697517875E+02  0.36351379527E+02  0.43400728938E+02  0.00000000000E+00 0. -1.
         11    1    4    4    0    0  0.16336529267E+02  0.55569701944E+01 -0.36108816743E+02  0.40020104361E+02  0.51100000000E-03 0.  1.
        -11    1    4    4    0    0  0.39748725330E+01  0.19390931987E+01  0.19118221310E+00  0.44267646184E+01  0.51100000000E-03 0. -1.
        -12    1    4    4    0    0  0.84902329360E+00  0.32014544817E+01 -0.43374499749E+00  0.33404020827E+01  0.00000000000E+00 0.  1.
</event>
<event>
 8    1  0.6469014E-010  0.9118800E+02  0.7816164E-02  0.1184000E+00
        -11   -1    0    0    0    0  0.00000000000E+00  0.00000000000E+00  0.45593999997E+02  0.45594000000E+02  0.51100000000E-03 0. -1.
         11   -1    0    0    0    0 -0.00000000000E+00 -0.00000000000E+00 -0.45593999997E+02  0.45594000000E+02  0.51100000000E-03 0.  1.
         23    2    1    2    0    0  0.00000000000E+00  0.00000000000E+00 -0.71054273576E-14  0.91188000000E+02  0.91188000000E+02 0.  0.
    9900012    2    3    3    0    0 -0.10748324851E+02 -0.12434416887E+02  0.40168171731E+02  0.47787271543E+02  0.20000002272E+02 0.  0.
        -12    1    3    3    0    0  0.10748324851E+02  0.12434416887E+02 -0.40168171731E+02  0.43400728457E+02  0.00000000000E+00 0.  1.
         11    1    4    4    0    0 -0.11245035082E+02 -0.18023634493E+01  0.26543582140E+02  0.28883578052E+02  0.51100000000E-03 0. -1.
        -11    1    4    4    0    0 -0.15875343101E+01 -0.10767997942E+02  0.10350323513E+02  0.15019961450E+02  0.51100000000E-03 0.  1.
         12    1    4    4    0    0  0.20842445416E+01  0.13594450426E+00  0.32742660773E+01  0.38837320405E+01  0.00000000000E+00 0. -1.
</event>
<event>
 8    1  0.6469014E-010  0.9118800E+02  0.7816164E-02  0.1184000E+00
        -11   -1    0    0    0    0  0.00000000000E+00  0.00000000000E+00  0.45593999997E+02  0.45594000000E+02  0.51100000000E-03 0. -1.
         11   -1    0    0    0    0 -0.00000000000E+00 -0.00000000000E+00 -0.45593999997E+02  0.45594000000E+02  0.51100000000E-03 0.  1.
         23    2    1    2    0    0 -0.17763568394E-14  0.00000000000E+00  0.00000000000E+00  0.91188000000E+02  0.91188000000E+02 0.  0.
    9900012    2    3    3    0    0 -0.15516854441E+02 -0.11448125618E+02 -0.38881756545E+02  0.47787270237E+02  0.19999996319E+02 0.  0.
         12    1    3    3    0    0  0.15516854441E+02  0.11448125618E+02  0.38881756545E+02  0.43400729763E+02  0.00000000000E+00 0. -1.
         11    1    4    4    0    0 -0.11962897393E+01  0.47683798680E+01 -0.35569501434E+01  0.60679856864E+01  0.51100000000E-03 0. -1.
        -11    1    4    4    0    0 -0.10815251854E+02 -0.10654914109E+02 -0.28184552611E+02  0.32013526415E+02  0.51100000000E-03 0.  1.
        -12    1    4    4    0    0 -0.35053128477E+01 -0.55615913772E+01 -0.71402537904E+01  0.97057581362E+01  0.00000000000E+00 0.  1.
</event>
<event>
 8    1  0.6469014E-010  0.9118800E+02  0.7816164E-02  0.1184000E+00
        -11   -1    0    0    0    0  0.00000000000E+00  0.00000000000E+00  0.45593999997E+02  0.45594000000E+02  0.51100000000E-03 0. -1.
         11   -1    0    0    0    0 -0.00000000000E+00 -0.00000000000E+00 -0.45593999997E+02  0.45594000000E+02  0.51100000000E-03 0.  1.
         23    2    1    2    0    0  0.00000000000E+00  0.00000000000E+00  0.00000000000E+00  0.91188000000E+02  0.91188000000E+02 0.  0.
    9900012    2    3    3    0    0  0.36258540100E+02 -0.23126870105E+02 -0.58386071946E+01  0.47787272068E+02  0.20000004668E+02 0.  0.
        -12    1    3    3    0    0 -0.36258540100E+02  0.23126870105E+02  0.58386071946E+01  0.43400727932E+02  0.00000000000E+00 0.  1.
         11    1    4    4    0    0  0.58446648088E+01 -0.52624241034E+01 -0.32378201051E+01  0.85050980868E+01  0.51100000000E-03 0. -1.
        -11    1    4    4    0    0  0.27893800237E+02 -0.90882905046E+01 -0.51872739894E+01  0.29792095053E+02  0.51100000000E-03 0.  1.
        -12    1    4    4    0    0  0.25200750543E+01 -0.87761554970E+01  0.25864868999E+01  0.94900789285E+01  0.00000000000E+00 0.  1.
</event>
<event>
 8    1  0.6469014E-010  0.9118800E+02  0.7816164E-02  0.1184000E+00
        -11   -1    0    0    0    0  0.00000000000E+00  0.00000000000E+00  0.45593999997E+02  0.45594000000E+02  0.51100000000E-03 0. -1.
         11   -1    0    0    0    0 -0.00000000000E+00 -0.00000000000E+00 -0.45593999997E+02  0.45594000000E+02  0.51100000000E-03 0.  1.
         23    2    1    2    0    0  0.00000000000E+00 -0.88817841970E-15  0.00000000000E+00  0.91188000000E+02  0.91188000000E+02 0.  0.
    9900012    2    3    3    0    0 -0.93114686973E+01  0.79227401544E+01  0.41643126242E+02  0.47787271618E+02  0.20000002615E+02 0.  0.
        -12    1    3    3    0    0  0.93114686973E+01 -0.79227401544E+01 -0.41643126242E+02  0.43400728382E+02  0.00000000000E+00 0.  1.
         11    1    4    4    0    0 -0.16595083335E+01  0.73284891146E-01  0.16704298274E+01  0.23557747459E+01  0.51100000000E-03 0. -1.
        -11    1    4    4    0    0 -0.41103407278E+01  0.10795732043E+02  0.39063495044E+02  0.40735726047E+02  0.51100000000E-03 0.  1.
        -12    1    4    4    0    0 -0.35416196361E+01 -0.29462767800E+01  0.90920137124E+00  0.46957708254E+01  0.00000000000E+00 0.  1.
</event>
<event>
 8    1  0.6469014E-010  0.9118800E+02  0.7816164E-02  0.1184000E+00
        -11   -1    0    0    0    0  0.00000000000E+00  0.00000000000E+00  0.45593999997E+02  0.45594000000E+02  0.51100000000E-03 0. -1.
         11   -1    0    0    0    0 -0.00000000000E+00 -0.00000000000E+00 -0.45593999997E+02  0.45594000000E+02  0.51100000000E-03 0.  1.
         23    2    1    2    0    0  0.00000000000E+00  0.00000000000E+00  0.35527136788E-14  0.91188000000E+02  0.91188000000E+02 0.  0.
    9900012    2    3    3    0    0  0.18061463931E+02 -0.27203103554E+02  0.28590174470E+02  0.47787269608E+02  0.19999993452E+02 0.  0.
        -12    1    3    3    0    0 -0.18061463931E+02  0.27203103554E+02 -0.28590174470E+02  0.43400730392E+02  0.00000000000E+00 0.  1.
         11    1    4    4    0    0  0.10591777606E+01 -0.17929376698E+01  0.11437466606E+02  0.11625494641E+02  0.51100000000E-03 0. -1.
        -11    1    4    4    0    0  0.75251614042E+01 -0.17533040325E+02  0.13272100979E+02  0.23241863563E+02  0.51100000000E-03 0.  1.
         12    1    4    4    0    0  0.94771247663E+01 -0.78771255593E+01  0.38806068845E+01  0.12919911405E+02  0.00000000000E+00 0. -1.
</event>
<event>
 8    1  0.6469014E-010  0.9118800E+02  0.7816164E-02  0.1184000E+00
        -11   -1    0    0    0    0  0.00000000000E+00  0.00000000000E+00  0.45593999997E+02  0.45594000000E+02  0.51100000000E-03 0.  1.
         11   -1    0    0    0    0 -0.00000000000E+00 -0.00000000000E+00 -0.45593999997E+02  0.45594000000E+02  0.51100000000E-03 0. -1.
         23    2    1    2    0    0  0.35527136788E-14  0.00000000000E+00  0.35527136788E-14  0.91188000000E+02  0.91188000000E+02 0.  0.
    9900012    2    3    3    0    0 -0.24259702739E+02 -0.26806510602E+02 -0.24010449425E+02  0.47787264186E+02  0.19999968727E+02 0.  0.
         12    1    3    3    0    0  0.24259702739E+02  0.26806510602E+02  0.24010449425E+02  0.43400735814E+02  0.00000000000E+00 0. -1.
         11    1    4    4    0    0 -0.79195922604E+01 -0.32715231275E+01 -0.97271779519E+01  0.12963055053E+02  0.51100000000E-03 0. -1.
        -11    1    4    4    0    0 -0.18030085903E+02 -0.23913810532E+02 -0.14034626927E+02  0.33074538320E+02  0.51100000000E-03 0.  1.
        -12    1    4    4    0    0  0.16899754241E+01  0.37882305721E+00 -0.24864454626E+00  0.17496708128E+01  0.00000000000E+00 0.  1.
</event>
<event>
 8    1  0.6469014E-010  0.9118800E+02  0.7816164E-02  0.1184000E+00
        -11   -1    0    0    0    0  0.00000000000E+00  0.00000000000E+00  0.45593999997E+02  0.45594000000E+02  0.51100000000E-03 0. -1.
         11   -1    0    0    0    0 -0.00000000000E+00 -0.00000000000E+00 -0.45593999997E+02  0.45594000000E+02  0.51100000000E-03 0.  1.
         23    2    1    2    0    0  0.00000000000E+00  0.35527136788E-14  0.71054273576E-14  0.91188000000E+02  0.91188000000E+02 0.  0.
    9900012    2    3    3    0    0  0.77146471813E+01 -0.20389478104E+02 -0.37528344041E+02  0.47787271839E+02  0.20000003621E+02 0.  0.
         12    1    3    3    0    0 -0.77146471813E+01  0.20389478104E+02  0.37528344041E+02  0.43400728161E+02  0.00000000000E+00 0. -1.
         11    1    4    4    0    0  0.65705811701E+01 -0.48288459802E+01 -0.17389438655E+02  0.19206323631E+02  0.51100000000E-03 0. -1.
        -11    1    4    4    0    0 -0.18788182975E+01 -0.10829826140E+02 -0.43455446392E+01  0.11819426843E+02  0.51100000000E-03 0.  1.
        -12    1    4    4    0    0  0.30228843087E+01 -0.47308059838E+01 -0.15793360746E+02  0.16761521365E+02  0.00000000000E+00 0.  1.
</event>
<event>
 8    1  0.8969558E-010  0.9118800E+02  0.7816164E-02  0.1184000E+00
        -11   -1    0    0    0    0  0.00000000000E+00  0.00000000000E+00  0.45593999997E+02  0.45594000000E+02  0.51100000000E-03 0. -1.
         11   -1    0    0    0    0 -0.00000000000E+00 -0.00000000000E+00 -0.45593999997E+02  0.45594000000E+02  0.51100000000E-03 0.  1.
         23    2    1    2    0    0  0.00000000000E+00  0.00000000000E+00 -0.71054273576E-14  0.91188000000E+02  0.91188000000E+02 0.  0.
    9900012    2    3    3    0    0 -0.80740797590E+01  0.39105874685E+01 -0.42463394862E+02  0.47787270035E+02  0.19999995396E+02 0.  0.
         12    1    3    3    0    0  0.80740797590E+01 -0.39105874685E+01  0.42463394862E+02  0.43400729965E+02  0.00000000000E+00 0. -1.
         11    1    4    4    0    0 -0.15385221891E+01  0.33876231816E+01 -0.15903537965E+00  0.37240211949E+01  0.51100000000E-03 0. -1.
        -11    1    4    4    0    0 -0.10942746699E+01  0.45921125571E+01 -0.25570167940E+02  0.26002277276E+02  0.51100000000E-03 0.  1.
         12    1    4    4    0    0 -0.54412829000E+01 -0.40691482702E+01 -0.16734191543E+02  0.18060971564E+02  0.00000000000E+00 0. -1.
</event>
<event>
 8    1  0.6469014E-010  0.9118800E+02  0.7816164E-02  0.1184000E+00
        -11   -1    0    0    0    0  0.00000000000E+00  0.00000000000E+00  0.45593999997E+02  0.45594000000E+02  0.51100000000E-03 0. -1.
         11   -1    0    0    0    0 -0.00000000000E+00 -0.00000000000E+00 -0.45593999997E+02  0.45594000000E+02  0.51100000000E-03 0.  1.
         23    2    1    2    0    0  0.00000000000E+00 -0.35527136788E-14  0.00000000000E+00  0.91188000000E+02  0.91188000000E+02 0.  0.
    9900012    2    3    3    0    0  0.49375732043E+01  0.26966755193E+02  0.33645768109E+02  0.47787271591E+02  0.20000002493E+02 0.  0.
        -12    1    3    3    0    0 -0.49375732043E+01 -0.26966755193E+02 -0.33645768109E+02  0.43400728409E+02  0.00000000000E+00 0.  1.
         11    1    4    4    0    0  0.78706683582E+01  0.30730128128E+01  0.50097439915E+01  0.98228490406E+01  0.51100000000E-03 0.  1.
        -11    1    4    4    0    0 -0.41315737558E+01  0.82046971968E+01  0.10901386167E+02  0.14255777019E+02  0.51100000000E-03 0. -1.
         12    1    4    4    0    0  0.11984786019E+01  0.15689045183E+02  0.17734637951E+02  0.23708645532E+02  0.00000000000E+00 0. -1.
</event>
<event>
 8    1  0.6469014E-010  0.9118800E+02  0.7816164E-02  0.1184000E+00
        -11   -1    0    0    0    0  0.00000000000E+00  0.00000000000E+00  0.45593999997E+02  0.45594000000E+02  0.51100000000E-03 0. -1.
         11   -1    0    0    0    0 -0.00000000000E+00 -0.00000000000E+00 -0.45593999997E+02  0.45594000000E+02  0.51100000000E-03 0.  1.
         23    2    1    2    0    0  0.00000000000E+00  0.88817841970E-15  0.00000000000E+00  0.91188000000E+02  0.91188000000E+02 0.  0.
    9900012    2    3    3    0    0 -0.37581456980E+02 -0.51703778857E+01  0.21083757903E+02  0.47787267708E+02  0.19999984786E+02 0.  0.
        -12    1    3    3    0    0  0.37581456980E+02  0.51703778857E+01 -0.21083757903E+02  0.43400732292E+02  0.00000000000E+00 0.  1.
         11    1    4    4    0    0 -0.18261086795E+02 -0.10335321102E+02  0.15257199114E+02  0.25943559476E+02  0.51100000000E-03 0. -1.
        -11    1    4    4    0    0 -0.70347076770E+01  0.52018042943E+01  0.19851218174E+01  0.89714318204E+01  0.51100000000E-03 0.  1.
         12    1    4    4    0    0 -0.12285662509E+02 -0.36861078060E-01  0.38414369707E+01  0.12872276411E+02  0.00000000000E+00 0. -1.
</event>
<event>
 8    1  0.6469014E-010  0.9118800E+02  0.7816164E-02  0.1184000E+00
        -11   -1    0    0    0    0  0.00000000000E+00  0.00000000000E+00  0.45593999997E+02  0.45594000000E+02  0.51100000000E-03 0. -1.
         11   -1    0    0    0    0 -0.00000000000E+00 -0.00000000000E+00 -0.45593999997E+02  0.45594000000E+02  0.51100000000E-03 0.  1.
         23    2    1    2    0    0 -0.17763568394E-14  0.00000000000E+00 -0.17763568394E-14  0.91188000000E+02  0.91188000000E+02 0.  0.
    9900012    2    3    3    0    0 -0.97568060387E+01 -0.40309156720E+02 -0.12790620564E+02  0.47787270122E+02  0.19999995792E+02 0.  0.
         12    1    3    3    0    0  0.97568060387E+01  0.40309156720E+02  0.12790620564E+02  0.43400729878E+02  0.00000000000E+00 0. -1.
         11    1    4    4    0    0 -0.10901569225E+01 -0.61805695497E+01 -0.93928794206E+01  0.11296639595E+02  0.51100000000E-03 0. -1.
        -11    1    4    4    0    0 -0.41866001711E+01 -0.53680452895E+01 -0.28445118221E+01  0.73779928836E+01  0.51100000000E-03 0.  1.
         12    1    4    4    0    0 -0.44800489451E+01 -0.28760541881E+02 -0.55322932168E+00  0.29112637643E+02  0.00000000000E+00 0. -1.
</event>
<event>
 8    1  0.6469014E-010  0.9118800E+02  0.7816164E-02  0.1184000E+00
        -11   -1    0    0    0    0  0.00000000000E+00  0.00000000000E+00  0.45593999997E+02  0.45594000000E+02  0.51100000000E-03 0. -1.
         11   -1    0    0    0    0 -0.00000000000E+00 -0.00000000000E+00 -0.45593999997E+02  0.45594000000E+02  0.51100000000E-03 0.  1.
         23    2    1    2    0    0 -0.35527136788E-14  0.00000000000E+00  0.35527136788E-14  0.91188000000E+02  0.91188000000E+02 0.  0.
    9900012    2    3    3    0    0 -0.27380290775E+02 -0.20755556101E+02  0.26516978074E+02  0.47787267769E+02  0.19999985068E+02 0.  0.
        -12    1    3    3    0    0  0.27380290775E+02  0.20755556101E+02 -0.26516978074E+02  0.43400732231E+02  0.00000000000E+00 0.  1.
         11    1    4    4    0    0 -0.23321040156E+02 -0.23384440011E+02  0.24621223904E+02  0.41193538515E+02  0.51100000000E-03 0. -1.
        -11    1    4    4    0    0 -0.43371931028E+01  0.15504267863E+01  0.25871789259E+01  0.52828555050E+01  0.51100000000E-03 0.  1.
         12    1    4    4    0    0  0.27794248383E+00  0.10784571243E+01 -0.69142475613E+00  0.13108737493E+01  0.00000000000E+00 0. -1.
</event>
<event>
 8    1  0.7191001E-010  0.9118800E+02  0.7816164E-02  0.1184000E+00
        -11   -1    0    0    0    0  0.00000000000E+00  0.00000000000E+00  0.45593999997E+02  0.45594000000E+02  0.51100000000E-03 0. -1.
         11   -1    0    0    0    0 -0.00000000000E+00 -0.00000000000E+00 -0.45593999997E+02  0.45594000000E+02  0.51100000000E-03 0.  1.
         23    2    1    2    0    0  0.35527136788E-14  0.17763568394E-14  0.71054273576E-14  0.91188000000E+02  0.91188000000E+02 0.  0.
    9900012    2    3    3    0    0  0.25360842463E+02  0.11589880358E+02 -0.33258465407E+02  0.47787272145E+02  0.20000005016E+02 0.  0.
         12    1    3    3    0    0 -0.25360842463E+02 -0.11589880358E+02  0.33258465407E+02  0.43400727855E+02  0.00000000000E+00 0. -1.
         11    1    4    4    0    0  0.26868969153E+01  0.35442661920E+01  0.10330961420E+01  0.45660185909E+01  0.51100000000E-03 0. -1.
        -11    1    4    4    0    0  0.19495632001E+02  0.42191623871E+01 -0.20693750645E+02  0.28742169619E+02  0.51100000000E-03 0.  1.
         12    1    4    4    0    0  0.31783135472E+01  0.38264517792E+01 -0.13597810904E+02  0.14479083935E+02  0.00000000000E+00 0. -1.
</event>
<event>
 8    1  0.6469014E-010  0.9118800E+02  0.7816164E-02  0.1184000E+00
        -11   -1    0    0    0    0  0.00000000000E+00  0.00000000000E+00  0.45593999997E+02  0.45594000000E+02  0.51100000000E-03 0. -1.
         11   -1    0    0    0    0 -0.00000000000E+00 -0.00000000000E+00 -0.45593999997E+02  0.45594000000E+02  0.51100000000E-03 0.  1.
         23    2    1    2    0    0 -0.17763568394E-14  0.00000000000E+00 -0.71054273576E-14  0.91188000000E+02  0.91188000000E+02 0.  0.
    9900012    2    3    3    0    0  0.10923924025E+02 -0.20990527620E+02 -0.36382531093E+02  0.47787274953E+02  0.20000017820E+02 0.  0.
         12    1    3    3    0    0 -0.10923924025E+02  0.20990527620E+02  0.36382531093E+02  0.43400725047E+02  0.00000000000E+00 0. -1.
         11    1    4    4    0    0  0.10420466989E+02 -0.12171994279E+02 -0.12378924904E+02  0.20247996420E+02  0.51100000000E-03 0. -1.
        -11    1    4    4    0    0 -0.33785036237E+01 -0.75670477059E+01 -0.20677543178E+02  0.22276339238E+02  0.51100000000E-03 0.  1.
        -12    1    4    4    0    0  0.38819606599E+01 -0.12514856347E+01 -0.33260630115E+01  0.52629392943E+01  0.00000000000E+00 0.  1.
</event>
<event>
 8    1  0.6469014E-010  0.9118800E+02  0.7816164E-02  0.1184000E+00
        -11   -1    0    0    0    0  0.00000000000E+00  0.00000000000E+00  0.45593999997E+02  0.45594000000E+02  0.51100000000E-03 0. -1.
         11   -1    0    0    0    0 -0.00000000000E+00 -0.00000000000E+00 -0.45593999997E+02  0.45594000000E+02  0.51100000000E-03 0.  1.
         23    2    1    2    0    0  0.00000000000E+00  0.00000000000E+00  0.00000000000E+00  0.91188000000E+02  0.91188000000E+02 0.  0.
    9900012    2    3    3    0    0 -0.30409758063E+02 -0.25223970634E+02  0.17961660446E+02  0.47787270444E+02  0.19999997264E+02 0.  0.
        -12    1    3    3    0    0  0.30409758063E+02  0.25223970634E+02 -0.17961660446E+02  0.43400729556E+02  0.00000000000E+00 0.  1.
         11    1    4    4    0    0 -0.27484454542E+02 -0.12890471109E+02  0.99941492026E+01  0.31960014165E+02  0.51100000000E-03 0. -1.
        -11    1    4    4    0    0 -0.16833518076E+01 -0.10909111187E+02  0.84211970493E+01  0.13883765347E+02  0.51100000000E-03 0.  1.
        -12    1    4    4    0    0 -0.12419517130E+01 -0.14243883374E+01 -0.45368580580E+00  0.19434909322E+01  0.00000000000E+00 0.  1.
</event>
<event>
 8    1  0.6469014E-010  0.9118800E+02  0.7816164E-02  0.1184000E+00
        -11   -1    0    0    0    0  0.00000000000E+00  0.00000000000E+00  0.45593999997E+02  0.45594000000E+02  0.51100000000E-03 0. -1.
         11   -1    0    0    0    0 -0.00000000000E+00 -0.00000000000E+00 -0.45593999997E+02  0.45594000000E+02  0.51100000000E-03 0.  1.
         23    2    1    2    0    0  0.35527136788E-14  0.00000000000E+00  0.00000000000E+00  0.91188000000E+02  0.91188000000E+02 0.  0.
    9900012    2    3    3    0    0  0.21972493185E+02  0.20507225823E+01  0.37371477066E+02  0.47787271689E+02  0.20000002938E+02 0.  0.
        -12    1    3    3    0    0 -0.21972493185E+02 -0.20507225823E+01 -0.37371477066E+02  0.43400728311E+02  0.00000000000E+00 0.  1.
         11    1    4    4    0    0  0.56051348009E+01  0.29628486225E+01  0.22808247778E+02  0.23673026318E+02  0.51100000000E-03 0. -1.
        -11    1    4    4    0    0  0.82440402461E+01 -0.46220577902E+01  0.39496266015E+01  0.10243396329E+02  0.51100000000E-03 0.  1.
         12    1    4    4    0    0  0.81233181383E+01  0.37099317501E+01  0.10613602686E+02  0.13870849042E+02  0.00000000000E+00 0. -1.
</event>
<event>
 8    1  0.6469014E-010  0.9118800E+02  0.7816164E-02  0.1184000E+00
        -11   -1    0    0    0    0  0.00000000000E+00  0.00000000000E+00  0.45593999997E+02  0.45594000000E+02  0.51100000000E-03 0. -1.
         11   -1    0    0    0    0 -0.00000000000E+00 -0.00000000000E+00 -0.45593999997E+02  0.45594000000E+02  0.51100000000E-03 0.  1.
         23    2    1    2    0    0 -0.35527136788E-14  0.00000000000E+00  0.35527136788E-14  0.91188000000E+02  0.91188000000E+02 0.  0.
    9900012    2    3    3    0    0 -0.23827369654E+02 -0.30760828330E+02 -0.19226314588E+02  0.47787271010E+02  0.19999999845E+02 0.  0.
         12    1    3    3    0    0  0.23827369654E+02  0.30760828330E+02  0.19226314588E+02  0.43400728990E+02  0.00000000000E+00 0. -1.
         11    1    4    4    0    0 -0.16646163065E+02 -0.13236572140E+02 -0.13286194592E+02  0.25076374415E+02  0.51100000000E-03 0.  1.
        -11    1    4    4    0    0  0.19465057153E+01 -0.56069429536E+01 -0.48416363875E+01  0.76595128406E+01  0.51100000000E-03 0. -1.
        -12    1    4    4    0    0 -0.91277123038E+01 -0.11917313237E+02 -0.10984836086E+01  0.15051383755E+02  0.00000000000E+00 0.  1.
</event>
<event>
 8    1  0.6469014E-010  0.9118800E+02  0.7816164E-02  0.1184000E+00
        -11   -1    0    0    0    0  0.00000000000E+00  0.00000000000E+00  0.45593999997E+02  0.45594000000E+02  0.51100000000E-03 0. -1.
         11   -1    0    0    0    0 -0.00000000000E+00 -0.00000000000E+00 -0.45593999997E+02  0.45594000000E+02  0.51100000000E-03 0.  1.
         23    2    1    2    0    0  0.00000000000E+00  0.00000000000E+00  0.00000000000E+00  0.91188000000E+02  0.91188000000E+02 0.  0.
    9900012    2    3    3    0    0 -0.19772106834E+02  0.34044305857E+02  0.18266707993E+02  0.47787267392E+02  0.19999983348E+02 0.  0.
        -12    1    3    3    0    0  0.19772106834E+02 -0.34044305857E+02 -0.18266707993E+02  0.43400732608E+02  0.00000000000E+00 0.  1.
         11    1    4    4    0    0 -0.15520735534E+02  0.14015527542E+02  0.70404182277E+01  0.22065713967E+02  0.51100000000E-03 0. -1.
        -11    1    4    4    0    0  0.17900938983E+01  0.12945525468E+02  0.32612760805E+01  0.13469483574E+02  0.51100000000E-03 0.  1.
        -12    1    4    4    0    0 -0.60414651984E+01  0.70832528475E+01  0.79650136846E+01  0.12252069851E+02  0.00000000000E+00 0.  1.
</event>
<event>
 8    1  0.6469014E-010  0.9118800E+02  0.7816164E-02  0.1184000E+00
        -11   -1    0    0    0    0  0.00000000000E+00  0.00000000000E+00  0.45593999997E+02  0.45594000000E+02  0.51100000000E-03 0. -1.
         11   -1    0    0    0    0 -0.00000000000E+00 -0.00000000000E+00 -0.45593999997E+02  0.45594000000E+02  0.51100000000E-03 0.  1.
         23    2    1    2    0    0 -0.17763568394E-14  0.00000000000E+00 -0.71054273576E-14  0.91188000000E+02  0.91188000000E+02 0.  0.
    9900012    2    3    3    0    0 -0.15633894452E+02  0.11521798723E+02 -0.38813057244E+02  0.47787263668E+02  0.19999966366E+02 0.  0.
         12    1    3    3    0    0  0.15633894452E+02 -0.11521798723E+02  0.38813057244E+02  0.43400736332E+02  0.00000000000E+00 0. -1.
         11    1    4    4    0    0 -0.17724809840E+01 -0.54304602999E+00 -0.65707955206E+01  0.68272938902E+01  0.51100000000E-03 0. -1.
        -11    1    4    4    0    0 -0.11785144976E+02  0.11113902434E+02 -0.34270179309E+02  0.37905852576E+02  0.51100000000E-03 0.  1.
        -12    1    4    4    0    0 -0.20762684921E+01  0.95094231918E+00  0.20279175851E+01  0.30541172010E+01  0.00000000000E+00 0.  1.
</event>
<event>
 8    1  0.6469014E-010  0.9118800E+02  0.7816164E-02  0.1184000E+00
        -11   -1    0    0    0    0  0.00000000000E+00  0.00000000000E+00  0.45593999997E+02  0.45594000000E+02  0.51100000000E-03 0. -1.
         11   -1    0    0    0    0 -0.00000000000E+00 -0.00000000000E+00 -0.45593999997E+02  0.45594000000E+02  0.51100000000E-03 0.  1.
         23    2    1    2    0    0  0.00000000000E+00  0.00000000000E+00  0.17763568394E-14  0.91188000000E+02  0.91188000000E+02 0.  0.
    9900012    2    3    3    0    0 -0.18227472555E+02 -0.38084371547E+02  0.10048024702E+02  0.47787275211E+02  0.20000018995E+02 0.  0.
        -12    1    3    3    0    0  0.18227472555E+02  0.38084371547E+02 -0.10048024702E+02  0.43400724789E+02  0.00000000000E+00 0.  1.
         11    1    4    4    0    0 -0.37558230779E+01  0.16025586041E+00  0.29767096482E+01  0.47950692929E+01  0.51100000000E-03 0. -1.
        -11    1    4    4    0    0 -0.14381502620E+02 -0.38334575571E+02  0.53792115249E+01  0.41295317153E+02  0.51100000000E-03 0.  1.
        -12    1    4    4    0    0 -0.90146856869E-01  0.89948164505E-01  0.16921035288E+01  0.16968887649E+01  0.00000000000E+00 0.  1.
</event>
<event>
 8    1  0.6469014E-010  0.9118800E+02  0.7816164E-02  0.1184000E+00
        -11   -1    0    0    0    0  0.00000000000E+00  0.00000000000E+00  0.45593999997E+02  0.45594000000E+02  0.51100000000E-03 0. -1.
         11   -1    0    0    0    0 -0.00000000000E+00 -0.00000000000E+00 -0.45593999997E+02  0.45594000000E+02  0.51100000000E-03 0.  1.
         23    2    1    2    0    0  0.00000000000E+00  0.00000000000E+00  0.00000000000E+00  0.91188000000E+02  0.91188000000E+02 0.  0.
    9900012    2    3    3    0    0 -0.18408175995E+02 -0.19369397916E+02 -0.34199249694E+02  0.47787271910E+02  0.20000003946E+02 0.  0.
         12    1    3    3    0    0  0.18408175995E+02  0.19369397916E+02  0.34199249694E+02  0.43400728090E+02  0.00000000000E+00 0. -1.
         11    1    4    4    0    0  0.13695006703E+01 -0.51934574003E+01 -0.67745619579E+00  0.54135458817E+01  0.51100000000E-03 0. -1.
        -11    1    4    4    0    0 -0.18789857628E+02 -0.10985580794E+02 -0.24596421449E+02  0.32843959618E+02  0.51100000000E-03 0.  1.
        -12    1    4    4    0    0 -0.98781903774E+00 -0.31903597222E+01 -0.89253720492E+01  0.95297664097E+01  0.00000000000E+00 0.  1.
</event>
<event>
 8    1  0.6469014E-010  0.9118800E+02  0.7816164E-02  0.1184000E+00
        -11   -1    0    0    0    0  0.00000000000E+00  0.00000000000E+00  0.45593999997E+02  0.45594000000E+02  0.51100000000E-03 0. -1.
         11   -1    0    0    0    0 -0.00000000000E+00 -0.00000000000E+00 -0.45593999997E+02  0.45594000000E+02  0.51100000000E-03 0.  1.
         23    2    1    2    0    0 -0.17763568394E-14  0.00000000000E+00  0.71054273576E-14  0.91188000000E+02  0.91188000000E+02 0.  0.
    9900012    2    3    3    0    0  0.10089016495E+02 -0.21228858496E+02 -0.36485211012E+02  0.47787270635E+02  0.19999998132E+02 0.  0.
         12    1    3    3    0    0 -0.10089016495E+02  0.21228858496E+02  0.36485211012E+02  0.43400729365E+02  0.00000000000E+00 0. -1.
         11    1    4    4    0    0  0.11376195874E+02 -0.17663273727E+02 -0.20208101249E+02  0.29150924988E+02  0.51100000000E-03 0. -1.
        -11    1    4    4    0    0 -0.37299430584E+01 -0.84582878757E+00 -0.29876449527E+01  0.48532385250E+01  0.51100000000E-03 0.  1.
        -12    1    4    4    0    0  0.24427636793E+01 -0.27197559809E+01 -0.13289464810E+02  0.13783107121E+02  0.00000000000E+00 0.  1.
</event>
<event>
 8    1  0.6469014E-010  0.9118800E+02  0.7816164E-02  0.1184000E+00
        -11   -1    0    0    0    0  0.00000000000E+00  0.00000000000E+00  0.45593999997E+02  0.45594000000E+02  0.51100000000E-03 0. -1.
         11   -1    0    0    0    0 -0.00000000000E+00 -0.00000000000E+00 -0.45593999997E+02  0.45594000000E+02  0.51100000000E-03 0.  1.
         23    2    1    2    0    0 -0.35527136788E-14  0.00000000000E+00 -0.35527136788E-14  0.91188000000E+02  0.91188000000E+02 0.  0.
    9900012    2    3    3    0    0  0.24719551725E+02 -0.17812609356E+02  0.30907570675E+02  0.47787271728E+02  0.20000003114E+02 0.  0.
        -12    1    3    3    0    0 -0.24719551725E+02  0.17812609356E+02 -0.30907570675E+02  0.43400728272E+02  0.00000000000E+00 0.  1.
         11    1    4    4    0    0  0.12879815439E+02 -0.35893308504E+01  0.11533463512E+02  0.17657681686E+02  0.51100000000E-03 0. -1.
        -11    1    4    4    0    0 -0.19563132603E+01 -0.53073147118E+01  0.92241679124E+01  0.10820352349E+02  0.51100000000E-03 0.  1.
        -12    1    4    4    0    0  0.13796049546E+02 -0.89159637936E+01  0.10149939251E+02  0.19309237692E+02  0.00000000000E+00 0.  1.
</event>
<event>
 8    1  0.6469014E-010  0.9118800E+02  0.7816164E-02  0.1184000E+00
        -11   -1    0    0    0    0  0.00000000000E+00  0.00000000000E+00  0.45593999997E+02  0.45594000000E+02  0.51100000000E-03 0. -1.
         11   -1    0    0    0    0 -0.00000000000E+00 -0.00000000000E+00 -0.45593999997E+02  0.45594000000E+02  0.51100000000E-03 0.  1.
         23    2    1    2    0    0 -0.88817841970E-15  0.00000000000E+00  0.71054273576E-14  0.91188000000E+02  0.91188000000E+02 0.  0.
    9900012    2    3    3    0    0 -0.48035174101E+01 -0.26369949615E+02  0.34134667852E+02  0.47787267614E+02  0.19999984361E+02 0.  0.
        -12    1    3    3    0    0  0.48035174101E+01  0.26369949615E+02 -0.34134667852E+02  0.43400732386E+02  0.00000000000E+00 0.  1.
         11    1    4    4    0    0 -0.82109026132E+01 -0.20671024391E+02  0.34287778694E+02  0.40870061648E+02  0.51100000000E-03 0. -1.
        -11    1    4    4    0    0  0.30169822304E+01 -0.32490546074E+01 -0.15270002485E+00  0.44364236925E+01  0.51100000000E-03 0.  1.
         12    1    4    4    0    0  0.39040297274E+00 -0.24498706169E+01 -0.41081698135E-03  0.24807822737E+01  0.00000000000E+00 0. -1.
</event>
<event>
 8    1  0.6469014E-010  0.9118800E+02  0.7816164E-02  0.1184000E+00
        -11   -1    0    0    0    0  0.00000000000E+00  0.00000000000E+00  0.45593999997E+02  0.45594000000E+02  0.51100000000E-03 0. -1.
         11   -1    0    0    0    0 -0.00000000000E+00 -0.00000000000E+00 -0.45593999997E+02  0.45594000000E+02  0.51100000000E-03 0.  1.
         23    2    1    2    0    0 -0.44408920985E-15  0.00000000000E+00  0.00000000000E+00  0.91188000000E+02  0.91188000000E+02 0.  0.
    9900012    2    3    3    0    0 -0.27736005890E+01 -0.38977477253E+02  0.18886192449E+02  0.47787252789E+02  0.19999916768E+02 0.  0.
        -12    1    3    3    0    0  0.27736005890E+01  0.38977477253E+02 -0.18886192449E+02  0.43400747211E+02  0.00000000000E+00 0.  1.
         11    1    4    4    0    0 -0.32985464559E+01 -0.14355042011E+02  0.78945984148E+01  0.16711442914E+02  0.51100000000E-03 0. -1.
        -11    1    4    4    0    0  0.66091255302E+00 -0.24361247723E+02  0.47518994666E+01  0.24829171247E+02  0.51100000000E-03 0.  1.
        -12    1    4    4    0    0 -0.13596668615E+00 -0.26118751874E+00  0.62396945677E+01  0.62466386288E+01  0.00000000000E+00 0.  1.
</event>
<event>
 8    1  0.6469014E-010  0.9118800E+02  0.7816164E-02  0.1184000E+00
        -11   -1    0    0    0    0  0.00000000000E+00  0.00000000000E+00  0.45593999997E+02  0.45594000000E+02  0.51100000000E-03 0. -1.
         11   -1    0    0    0    0 -0.00000000000E+00 -0.00000000000E+00 -0.45593999997E+02  0.45594000000E+02  0.51100000000E-03 0.  1.
         23    2    1    2    0    0  0.00000000000E+00  0.35527136788E-14 -0.35527136788E-14  0.91188000000E+02  0.91188000000E+02 0.  0.
    9900012    2    3    3    0    0  0.16527926207E+02 -0.29088824654E+02  0.27645811939E+02  0.47787274404E+02  0.20000015319E+02 0.  0.
        -12    1    3    3    0    0 -0.16527926207E+02  0.29088824654E+02 -0.27645811939E+02  0.43400725596E+02  0.00000000000E+00 0.  1.
         11    1    4    4    0    0  0.14518069248E+02 -0.25526076991E+02  0.21979739945E+02  0.36680565829E+02  0.51100000000E-03 0. -1.
        -11    1    4    4    0    0  0.26065816642E+01  0.48123114919E+00 -0.13591316620E+01  0.29787733258E+01  0.51100000000E-03 0.  1.
         12    1    4    4    0    0 -0.59672470515E+00 -0.40439788126E+01  0.70252036559E+01  0.81279352493E+01  0.00000000000E+00 0. -1.
</event>
<event>
 8    1  0.6469014E-010  0.9118800E+02  0.7816164E-02  0.1184000E+00
        -11   -1    0    0    0    0  0.00000000000E+00  0.00000000000E+00  0.45593999997E+02  0.45594000000E+02  0.51100000000E-03 0.  1.
         11   -1    0    0    0    0 -0.00000000000E+00 -0.00000000000E+00 -0.45593999997E+02  0.45594000000E+02  0.51100000000E-03 0. -1.
         23    2    1    2    0    0 -0.71054273576E-14  0.00000000000E+00  0.00000000000E+00  0.91188000000E+02  0.91188000000E+02 0.  0.
    9900012    2    3    3    0    0  0.34389481376E+02  0.23182002547E+02  0.12789898975E+02  0.47787272044E+02  0.20000004556E+02 0.  0.
        -12    1    3    3    0    0 -0.34389481376E+02 -0.23182002547E+02 -0.12789898975E+02  0.43400727956E+02  0.00000000000E+00 0.  1.
         11    1    4    4    0    0  0.17657356070E+02  0.12617020157E+02  0.37882571194E+01  0.22030032076E+02  0.51100000000E-03 0. -1.
        -11    1    4    4    0    0  0.10452782100E+02  0.10962067575E+01  0.97964786120E+01  0.14367787454E+02  0.51100000000E-03 0.  1.
        -12    1    4    4    0    0  0.62793432058E+01  0.94687756322E+01 -0.79483675658E+00  0.11389452513E+02  0.00000000000E+00 0.  1.
</event>
<event>
 8    1  0.6469014E-010  0.9118800E+02  0.7816164E-02  0.1184000E+00
        -11   -1    0    0    0    0  0.00000000000E+00  0.00000000000E+00  0.45593999997E+02  0.45594000000E+02  0.51100000000E-03 0. -1.
         11   -1    0    0    0    0 -0.00000000000E+00 -0.00000000000E+00 -0.45593999997E+02  0.45594000000E+02  0.51100000000E-03 0.  1.
         23    2    1    2    0    0  0.00000000000E+00  0.00000000000E+00  0.71054273576E-14  0.91188000000E+02  0.91188000000E+02 0.  0.
    9900012    2    3    3    0    0 -0.21385685882E+02  0.18192832004E+02  0.33095256575E+02  0.47787277601E+02  0.20000029893E+02 0.  0.
        -12    1    3    3    0    0  0.21385685882E+02 -0.18192832004E+02 -0.33095256575E+02  0.43400722399E+02  0.00000000000E+00 0.  1.
         11    1    4    4    0    0 -0.65600492292E+01  0.23594711222E+01  0.18638247444E+02  0.19899387375E+02  0.51100000000E-03 0. -1.
        -11    1    4    4    0    0 -0.14969491540E+02  0.13366844388E+02  0.15344251699E+02  0.25262705047E+02  0.51100000000E-03 0.  1.
        -12    1    4    4    0    0  0.14385488623E+00  0.24665164941E+01 -0.88724256807E+00  0.26251851779E+01  0.00000000000E+00 0.  1.
</event>
<event>
 8    1  0.6469014E-010  0.9118800E+02  0.7816164E-02  0.1184000E+00
        -11   -1    0    0    0    0  0.00000000000E+00  0.00000000000E+00  0.45593999997E+02  0.45594000000E+02  0.51100000000E-03 0. -1.
         11   -1    0    0    0    0 -0.00000000000E+00 -0.00000000000E+00 -0.45593999997E+02  0.45594000000E+02  0.51100000000E-03 0.  1.
         23    2    1    2    0    0 -0.35527136788E-14  0.17763568394E-14  0.00000000000E+00  0.91188000000E+02  0.91188000000E+02 0.  0.
    9900012    2    3    3    0    0  0.28690385788E+02  0.14392247002E+02  0.29212126654E+02  0.47787270120E+02  0.19999995786E+02 0.  0.
        -12    1    3    3    0    0 -0.28690385788E+02 -0.14392247002E+02 -0.29212126654E+02  0.43400729880E+02  0.00000000000E+00 0.  1.
         11    1    4    4    0    0  0.16754339837E+01  0.79474774402E+01  0.44842916987E+01  0.92778418286E+01  0.51100000000E-03 0. -1.
        -11    1    4    4    0    0  0.92488702828E+01 -0.16206287237E+01  0.11902852749E+02  0.15160670922E+02  0.51100000000E-03 0.  1.
         12    1    4    4    0    0  0.17766081521E+02  0.80653982859E+01  0.12824982207E+02  0.23348757370E+02  0.00000000000E+00 0. -1.
</event>
<event>
 8    1  0.6469014E-010  0.9118800E+02  0.7816164E-02  0.1184000E+00
        -11   -1    0    0    0    0  0.00000000000E+00  0.00000000000E+00  0.45593999997E+02  0.45594000000E+02  0.51100000000E-03 0. -1.
         11   -1    0    0    0    0 -0.00000000000E+00 -0.00000000000E+00 -0.45593999997E+02  0.45594000000E+02  0.51100000000E-03 0.  1.
         23    2    1    2    0    0  0.88817841970E-15  0.71054273576E-14  0.00000000000E+00  0.91188000000E+02  0.91188000000E+02 0.  0.
    9900012    2    3    3    0    0  0.43439046187E+01  0.36315585613E+02 -0.23365186775E+02  0.47787271679E+02  0.20000002895E+02 0.  0.
         12    1    3    3    0    0 -0.43439046187E+01 -0.36315585613E+02  0.23365186775E+02  0.43400728321E+02  0.00000000000E+00 0. -1.
         11    1    4    4    0    0 -0.31227124533E+01  0.65214133247E+01 -0.89214763315E+00  0.72853340677E+01  0.51100000000E-03 0. -1.
        -11    1    4    4    0    0  0.28525805903E+00  0.10841250252E+02 -0.15799923170E+02  0.19163810989E+02  0.51100000000E-03 0.  1.
        -12    1    4    4    0    0  0.71813590129E+01  0.18952922036E+02 -0.66731159711E+01  0.21338126622E+02  0.00000000000E+00 0.  1.
</event>
<event>
 8    1  0.6469014E-010  0.9118800E+02  0.7816164E-02  0.1184000E+00
        -11   -1    0    0    0    0  0.00000000000E+00  0.00000000000E+00  0.45593999997E+02  0.45594000000E+02  0.51100000000E-03 0. -1.
         11   -1    0    0    0    0 -0.00000000000E+00 -0.00000000000E+00 -0.45593999997E+02  0.45594000000E+02  0.51100000000E-03 0.  1.
         23    2    1    2    0    0  0.00000000000E+00 -0.35527136788E-14  0.71054273576E-14  0.91188000000E+02  0.91188000000E+02 0.  0.
    9900012    2    3    3    0    0  0.42296461464E+01 -0.18570007389E+02  0.38998566732E+02  0.47787270880E+02  0.19999999252E+02 0.  0.
        -12    1    3    3    0    0 -0.42296461464E+01  0.18570007389E+02 -0.38998566732E+02  0.43400729120E+02  0.00000000000E+00 0.  1.
         11    1    4    4    0    0  0.17572334932E+01 -0.11303916878E+02  0.13143550281E+02  0.17424675624E+02  0.51100000000E-03 0. -1.
        -11    1    4    4    0    0 -0.35262110276E+01  0.15628426671E+01  0.13476220910E+02  0.14017316851E+02  0.51100000000E-03 0.  1.
        -12    1    4    4    0    0  0.59986236808E+01 -0.88289331779E+01  0.12378795541E+02  0.16345278406E+02  0.00000000000E+00 0.  1.
</event>
<event>
 8    1  0.6469014E-010  0.9118800E+02  0.7816164E-02  0.1184000E+00
        -11   -1    0    0    0    0  0.00000000000E+00  0.00000000000E+00  0.45593999997E+02  0.45594000000E+02  0.51100000000E-03 0. -1.
         11   -1    0    0    0    0 -0.00000000000E+00 -0.00000000000E+00 -0.45593999997E+02  0.45594000000E+02  0.51100000000E-03 0.  1.
         23    2    1    2    0    0  0.00000000000E+00  0.00000000000E+00  0.00000000000E+00  0.91188000000E+02  0.91188000000E+02 0.  0.
    9900012    2    3    3    0    0  0.18128595026E+02 -0.52425931027E+01  0.39083155723E+02  0.47787264968E+02  0.19999972295E+02 0.  0.
        -12    1    3    3    0    0 -0.18128595026E+02  0.52425931027E+01 -0.39083155723E+02  0.43400735032E+02  0.00000000000E+00 0.  1.
         11    1    4    4    0    0  0.20329118581E+02 -0.30738463710E+01  0.22092754561E+02  0.30179652054E+02  0.51100000000E-03 0. -1.
        -11    1    4    4    0    0 -0.23290857285E+01 -0.27675027185E+01  0.10856589834E+02  0.11443306109E+02  0.51100000000E-03 0.  1.
         12    1    4    4    0    0  0.12856217338E+00  0.59875598670E+00  0.61338113285E+01  0.61643068043E+01  0.00000000000E+00 0. -1.
</event>
<event>
 8    1  0.6469014E-010  0.9118800E+02  0.7816164E-02  0.1184000E+00
        -11   -1    0    0    0    0  0.00000000000E+00  0.00000000000E+00  0.45593999997E+02  0.45594000000E+02  0.51100000000E-03 0. -1.
         11   -1    0    0    0    0 -0.00000000000E+00 -0.00000000000E+00 -0.45593999997E+02  0.45594000000E+02  0.51100000000E-03 0.  1.
         23    2    1    2    0    0  0.00000000000E+00  0.00000000000E+00 -0.35527136788E-14  0.91188000000E+02  0.91188000000E+02 0.  0.
    9900012    2    3    3    0    0 -0.12140263338E+02 -0.34837689545E+02 -0.22859855572E+02  0.47787267247E+02  0.19999982685E+02 0.  0.
         12    1    3    3    0    0  0.12140263338E+02  0.34837689545E+02  0.22859855572E+02  0.43400732753E+02  0.00000000000E+00 0. -1.
         11    1    4    4    0    0  0.40348053342E+01 -0.18904349778E+01 -0.14787859372E+01  0.46946998413E+01  0.51100000000E-03 0. -1.
        -11    1    4    4    0    0 -0.13407389243E+02 -0.24875206505E+02 -0.19558704778E+02  0.34366799645E+02  0.51100000000E-03 0.  1.
         12    1    4    4    0    0 -0.27676794291E+01 -0.80720480617E+01 -0.18223648565E+01  0.87257677601E+01  0.00000000000E+00 0. -1.
</event>
<event>
 8    1  0.6469014E-010  0.9118800E+02  0.7816164E-02  0.1184000E+00
        -11   -1    0    0    0    0  0.00000000000E+00  0.00000000000E+00  0.45593999997E+02  0.45594000000E+02  0.51100000000E-03 0. -1.
         11   -1    0    0    0    0 -0.00000000000E+00 -0.00000000000E+00 -0.45593999997E+02  0.45594000000E+02  0.51100000000E-03 0.  1.
         23    2    1    2    0    0  0.00000000000E+00 -0.11102230246E-15  0.00000000000E+00  0.91188000000E+02  0.91188000000E+02 0.  0.
    9900012    2    3    3    0    0  0.26077178137E+02 -0.37438547171E+00 -0.34690975141E+02  0.47787272583E+02  0.20000007014E+02 0.  0.
         12    1    3    3    0    0 -0.26077178137E+02  0.37438547171E+00  0.34690975141E+02  0.43400727417E+02  0.00000000000E+00 0. -1.
         11    1    4    4    0    0 -0.10783662389E+01  0.11159699644E+01 -0.10480315586E+01  0.18726006289E+01  0.51100000000E-03 0. -1.
        -11    1    4    4    0    0  0.13396906492E+02  0.11353796534E+01 -0.27518438852E+02  0.30627286325E+02  0.51100000000E-03 0.  1.
        -12    1    4    4    0    0  0.13758637884E+02 -0.26257350894E+01 -0.61245047311E+01  0.15287385629E+02  0.00000000000E+00 0.  1.
</event>
<event>
 8    1  0.6469014E-010  0.9118800E+02  0.7816164E-02  0.1184000E+00
        -11   -1    0    0    0    0  0.00000000000E+00  0.00000000000E+00  0.45593999997E+02  0.45594000000E+02  0.51100000000E-03 0. -1.
         11   -1    0    0    0    0 -0.00000000000E+00 -0.00000000000E+00 -0.45593999997E+02  0.45594000000E+02  0.51100000000E-03 0.  1.
         23    2    1    2    0    0  0.00000000000E+00  0.35527136788E-14  0.00000000000E+00  0.91188000000E+02  0.91188000000E+02 0.  0.
    9900012    2    3    3    0    0 -0.21997853716E+01 -0.30104050520E+02  0.31185419301E+02  0.47787270855E+02  0.19999999135E+02 0.  0.
        -12    1    3    3    0    0  0.21997853716E+01  0.30104050520E+02 -0.31185419301E+02  0.43400729145E+02  0.00000000000E+00 0.  1.
         11    1    4    4    0    0 -0.50401859035E+00 -0.85320074116E+01  0.38070753830E+01  0.93564420825E+01  0.51100000000E-03 0. -1.
        -11    1    4    4    0    0 -0.12854691366E+01 -0.22786830585E+02  0.18276346778E+02  0.29238962547E+02  0.51100000000E-03 0.  1.
        -12    1    4    4    0    0 -0.41029764474E+00  0.12147874766E+01  0.91019971399E+01  0.91918662254E+01  0.00000000000E+00 0.  1.
</event>
<event>
 8    1  0.6469014E-010  0.9118800E+02  0.7816164E-02  0.1184000E+00
        -11   -1    0    0    0    0  0.00000000000E+00  0.00000000000E+00  0.45593999997E+02  0.45594000000E+02  0.51100000000E-03 0. -1.
         11   -1    0    0    0    0 -0.00000000000E+00 -0.00000000000E+00 -0.45593999997E+02  0.45594000000E+02  0.51100000000E-03 0.  1.
         23    2    1    2    0    0  0.35527136788E-14  0.00000000000E+00  0.00000000000E+00  0.91188000000E+02  0.91188000000E+02 0.  0.
    9900012    2    3    3    0    0  0.20689247229E+02  0.52304214372E+01 -0.37791812151E+02  0.47787270456E+02  0.19999997317E+02 0.  0.
         12    1    3    3    0    0 -0.20689247229E+02 -0.52304214372E+01  0.37791812151E+02  0.43400729544E+02  0.00000000000E+00 0. -1.
         11    1    4    4    0    0 -0.92751539319E+00 -0.23147372263E+01 -0.23756489403E+01  0.34441256336E+01  0.51100000000E-03 0. -1.
        -11    1    4    4    0    0  0.18118551685E+02  0.83039494717E+01 -0.35555740263E+02  0.40760865519E+02  0.51100000000E-03 0.  1.
        -12    1    4    4    0    0  0.34982109375E+01 -0.75879080818E+00  0.13957705215E+00  0.35822793033E+01  0.00000000000E+00 0.  1.
</event>
<event>
 8    1  0.6469014E-010  0.9118800E+02  0.7816164E-02  0.1184000E+00
        -11   -1    0    0    0    0  0.00000000000E+00  0.00000000000E+00  0.45593999997E+02  0.45594000000E+02  0.51100000000E-03 0. -1.
         11   -1    0    0    0    0 -0.00000000000E+00 -0.00000000000E+00 -0.45593999997E+02  0.45594000000E+02  0.51100000000E-03 0.  1.
         23    2    1    2    0    0  0.35527136788E-14 -0.66613381478E-15  0.00000000000E+00  0.91188000000E+02  0.91188000000E+02 0.  0.
    9900012    2    3    3    0    0  0.22908458803E+02  0.63611001016E+00 -0.36856765343E+02  0.47787271063E+02  0.20000000087E+02 0.  0.
         12    1    3    3    0    0 -0.22908458803E+02 -0.63611001016E+00  0.36856765343E+02  0.43400728937E+02  0.00000000000E+00 0. -1.
         11    1    4    4    0    0 -0.28042950280E+00  0.27812415801E+00  0.18744264471E+01  0.19155856859E+01  0.51100000000E-03 0. -1.
        -11    1    4    4    0    0  0.22643312435E+02 -0.14502482495E+01 -0.35716505717E+02  0.42314200913E+02  0.51100000000E-03 0.  1.
        -12    1    4    4    0    0  0.54557587139E+00  0.18082341017E+01 -0.30146860733E+01  0.35574844649E+01  0.00000000000E+00 0.  1.
</event>
<event>
 8    1  0.6469014E-010  0.9118800E+02  0.7816164E-02  0.1184000E+00
        -11   -1    0    0    0    0  0.00000000000E+00  0.00000000000E+00  0.45593999997E+02  0.45594000000E+02  0.51100000000E-03 0. -1.
         11   -1    0    0    0    0 -0.00000000000E+00 -0.00000000000E+00 -0.45593999997E+02  0.45594000000E+02  0.51100000000E-03 0.  1.
         23    2    1    2    0    0 -0.71054273576E-14  0.44408920985E-15  0.00000000000E+00  0.91188000000E+02  0.91188000000E+02 0.  0.
    9900012    2    3    3    0    0  0.36795280661E+02  0.28802638983E+01  0.22834953717E+02  0.47787266017E+02  0.19999977076E+02 0.  0.
        -12    1    3    3    0    0 -0.36795280661E+02 -0.28802638983E+01 -0.22834953717E+02  0.43400733983E+02  0.00000000000E+00 0.  1.
         11    1    4    4    0    0  0.27894168391E+01  0.46698272643E+01  0.73611115185E+01  0.91528190209E+01  0.51100000000E-03 0. -1.
        -11    1    4    4    0    0  0.30198456702E+02  0.55141635657E+00  0.15920730810E+02  0.34142649531E+02  0.51100000000E-03 0.  1.
        -12    1    4    4    0    0  0.38074071196E+01 -0.23409797225E+01 -0.44688861140E+00  0.44917974650E+01  0.00000000000E+00 0.  1.
</event>
<event>
 8    1  0.6469014E-010  0.9118800E+02  0.7816164E-02  0.1184000E+00
        -11   -1    0    0    0    0  0.00000000000E+00  0.00000000000E+00  0.45593999997E+02  0.45594000000E+02  0.51100000000E-03 0.  1.
         11   -1    0    0    0    0 -0.00000000000E+00 -0.00000000000E+00 -0.45593999997E+02  0.45594000000E+02  0.51100000000E-03 0. -1.
         23    2    1    2    0    0  0.00000000000E+00  0.00000000000E+00  0.35527136788E-14  0.91188000000E+02  0.91188000000E+02 0.  0.
    9900012    2    3    3    0    0 -0.95908531578E+01  0.37370805924E+02  0.19876161389E+02  0.47787269692E+02  0.19999993835E+02 0.  0.
         12    1    3    3    0    0  0.95908531578E+01 -0.37370805924E+02 -0.19876161389E+02  0.43400730308E+02  0.00000000000E+00 0. -1.
         11    1    4    4    0    0 -0.18367062628E+01  0.14565039677E+01  0.71458213416E+01  0.75204824719E+01  0.51100000000E-03 0. -1.
        -11    1    4    4    0    0 -0.16073231111E+01  0.11145185622E+02  0.91236699916E+01  0.14492756967E+02  0.51100000000E-03 0.  1.
         12    1    4    4    0    0 -0.61468237839E+01  0.24769116334E+02  0.36066700563E+01  0.25774030253E+02  0.00000000000E+00 0. -1.
</event>
<event>
 8    1  0.6469014E-010  0.9118800E+02  0.7816164E-02  0.1184000E+00
        -11   -1    0    0    0    0  0.00000000000E+00  0.00000000000E+00  0.45593999997E+02  0.45594000000E+02  0.51100000000E-03 0. -1.
         11   -1    0    0    0    0 -0.00000000000E+00 -0.00000000000E+00 -0.45593999997E+02  0.45594000000E+02  0.51100000000E-03 0.  1.
         23    2    1    2    0    0  0.00000000000E+00  0.00000000000E+00  0.00000000000E+00  0.91188000000E+02  0.91188000000E+02 0.  0.
    9900012    2    3    3    0    0  0.17990708412E+02  0.10268419295E+01  0.39482947358E+02  0.47787272753E+02  0.20000007788E+02 0.  0.
        -12    1    3    3    0    0 -0.17990708412E+02 -0.10268419295E+01 -0.39482947358E+02  0.43400727247E+02  0.00000000000E+00 0.  1.
         11    1    4    4    0    0 -0.56000390304E+00  0.18611422554E+01  0.13916531887E+01  0.23904296110E+01  0.51100000000E-03 0. -1.
        -11    1    4    4    0    0  0.15834527395E+02  0.17402085160E+01  0.14596901983E+02  0.21606252133E+02  0.51100000000E-03 0.  1.
        -12    1    4    4    0    0  0.27161849204E+01 -0.25745088420E+01  0.23494392187E+02  0.23790591009E+02  0.00000000000E+00 0.  1.
</event>
<event>
 8    1  0.6469014E-010  0.9118800E+02  0.7816164E-02  0.1184000E+00
        -11   -1    0    0    0    0  0.00000000000E+00  0.00000000000E+00  0.45593999997E+02  0.45594000000E+02  0.51100000000E-03 0. -1.
         11   -1    0    0    0    0 -0.00000000000E+00 -0.00000000000E+00 -0.45593999997E+02  0.45594000000E+02  0.51100000000E-03 0.  1.
         23    2    1    2    0    0  0.00000000000E+00  0.00000000000E+00 -0.71054273576E-14  0.91188000000E+02  0.91188000000E+02 0.  0.
    9900012    2    3    3    0    0  0.27322771076E+02 -0.72872148370E+01 -0.32923939739E+02  0.47787272733E+02  0.20000007700E+02 0.  0.
         12    1    3    3    0    0 -0.27322771076E+02  0.72872148370E+01  0.32923939739E+02  0.43400727267E+02  0.00000000000E+00 0. -1.
         11    1    4    4    0    0 -0.24410384223E+01 -0.25084213509E+01 -0.49520562351E+01  0.60641328703E+01  0.51100000000E-03 0. -1.
        -11    1    4    4    0    0  0.27764678386E+02 -0.34245114319E+01 -0.23076842560E+02  0.36264932197E+02  0.51100000000E-03 0.  1.
         12    1    4    4    0    0  0.19991311122E+01 -0.13542820542E+01 -0.48950409438E+01  0.54582076662E+01  0.00000000000E+00 0. -1.
</event>
<event>
 8    1  0.6469014E-010  0.9118800E+02  0.7816164E-02  0.1184000E+00
        -11   -1    0    0    0    0  0.00000000000E+00  0.00000000000E+00  0.45593999997E+02  0.45594000000E+02  0.51100000000E-03 0. -1.
         11   -1    0    0    0    0 -0.00000000000E+00 -0.00000000000E+00 -0.45593999997E+02  0.45594000000E+02  0.51100000000E-03 0.  1.
         23    2    1    2    0    0  0.88817841970E-15  0.00000000000E+00  0.00000000000E+00  0.91188000000E+02  0.91188000000E+02 0.  0.
    9900012    2    3    3    0    0 -0.44080532297E+01  0.38937198874E+02  0.18657093000E+02  0.47787268340E+02  0.19999987668E+02 0.  0.
        -12    1    3    3    0    0  0.44080532297E+01 -0.38937198874E+02 -0.18657093000E+02  0.43400731660E+02  0.00000000000E+00 0.  1.
         11    1    4    4    0    0 -0.48506484768E+01  0.33328876282E+02  0.20195458927E+02  0.39270846011E+02  0.51100000000E-03 0. -1.
        -11    1    4    4    0    0  0.15938277087E+01  0.21422369043E+01  0.20728628214E+01  0.33802701455E+01  0.51100000000E-03 0.  1.
         12    1    4    4    0    0 -0.11512324617E+01  0.34660856878E+01 -0.36112287487E+01  0.51361521834E+01  0.00000000000E+00 0. -1.
</event>
<event>
 8    1  0.6469014E-010  0.9118800E+02  0.7816164E-02  0.1184000E+00
        -11   -1    0    0    0    0  0.00000000000E+00  0.00000000000E+00  0.45593999997E+02  0.45594000000E+02  0.51100000000E-03 0. -1.
         11   -1    0    0    0    0 -0.00000000000E+00 -0.00000000000E+00 -0.45593999997E+02  0.45594000000E+02  0.51100000000E-03 0.  1.
         23    2    1    2    0    0  0.00000000000E+00  0.00000000000E+00  0.00000000000E+00  0.91188000000E+02  0.91188000000E+02 0.  0.
    9900012    2    3    3    0    0 -0.38383990898E+02 -0.19737198894E+02  0.45536508549E+01  0.47787268283E+02  0.19999987411E+02 0.  0.
         12    1    3    3    0    0  0.38383990898E+02  0.19737198894E+02 -0.45536508549E+01  0.43400731717E+02  0.00000000000E+00 0. -1.
         11    1    4    4    0    0 -0.50550557997E+01 -0.24884634432E+01  0.80782951193E+01  0.98491061392E+01  0.51100000000E-03 0. -1.
        -11    1    4    4    0    0 -0.35230512123E+01 -0.66748118597E+00 -0.10717552462E+01  0.37424698458E+01  0.51100000000E-03 0.  1.
         12    1    4    4    0    0 -0.29805883886E+02 -0.16581254265E+02 -0.24528890181E+01  0.34195692298E+02  0.00000000000E+00 0. -1.
</event>
<event>
 8    1  0.6469014E-010  0.9118800E+02  0.7816164E-02  0.1184000E+00
        -11   -1    0    0    0    0  0.00000000000E+00  0.00000000000E+00  0.45593999997E+02  0.45594000000E+02  0.51100000000E-03 0. -1.
         11   -1    0    0    0    0 -0.00000000000E+00 -0.00000000000E+00 -0.45593999997E+02  0.45594000000E+02  0.51100000000E-03 0.  1.
         23    2    1    2    0    0 -0.88817841970E-15  0.00000000000E+00  0.71054273576E-14  0.91188000000E+02  0.91188000000E+02 0.  0.
    9900012    2    3    3    0    0  0.72322559272E+01  0.19672797796E+02 -0.38003924302E+02  0.47787276950E+02  0.20000026925E+02 0.  0.
         12    1    3    3    0    0 -0.72322559272E+01 -0.19672797796E+02  0.38003924302E+02  0.43400723050E+02  0.00000000000E+00 0. -1.
         11    1    4    4    0    0 -0.48261576306E+00  0.32898090956E+01 -0.26517194325E+01  0.42529258247E+01  0.51100000000E-03 0. -1.
        -11    1    4    4    0    0 -0.27979010218E-01  0.17244616295E+02 -0.20719181442E+02  0.26956669933E+02  0.51100000000E-03 0.  1.
        -12    1    4    4    0    0  0.77428507004E+01 -0.86162759470E+00 -0.14633023428E+02  0.16577681192E+02  0.00000000000E+00 0.  1.
</event>
<event>
 8    1  0.6469014E-010  0.9118800E+02  0.7816164E-02  0.1184000E+00
        -11   -1    0    0    0    0  0.00000000000E+00  0.00000000000E+00  0.45593999997E+02  0.45594000000E+02  0.51100000000E-03 0. -1.
         11   -1    0    0    0    0 -0.00000000000E+00 -0.00000000000E+00 -0.45593999997E+02  0.45594000000E+02  0.51100000000E-03 0.  1.
         23    2    1    2    0    0  0.00000000000E+00 -0.88817841970E-15 -0.35527136788E-14  0.91188000000E+02  0.91188000000E+02 0.  0.
    9900012    2    3    3    0    0 -0.35422366472E+02  0.59652388506E+01  0.24357672590E+02  0.47787258820E+02  0.19999944263E+02 0.  0.
        -12    1    3    3    0    0  0.35422366472E+02 -0.59652388506E+01 -0.24357672590E+02  0.43400741180E+02  0.00000000000E+00 0.  1.
         11    1    4    4    0    0 -0.94046896847E+01 -0.21464120568E+00  0.94894968617E+01  0.13362066078E+02  0.51100000000E-03 0. -1.
        -11    1    4    4    0    0 -0.21659479369E+02  0.10360377390E+02  0.15131900463E+02  0.28380360782E+02  0.51100000000E-03 0.  1.
        -12    1    4    4    0    0 -0.43581974175E+01 -0.41804973342E+01 -0.26372473484E+00  0.60448319602E+01  0.00000000000E+00 0.  1.
</event>
<event>
 8    1  0.6469014E-010  0.9118800E+02  0.7816164E-02  0.1184000E+00
        -11   -1    0    0    0    0  0.00000000000E+00  0.00000000000E+00  0.45593999997E+02  0.45594000000E+02  0.51100000000E-03 0. -1.
         11   -1    0    0    0    0 -0.00000000000E+00 -0.00000000000E+00 -0.45593999997E+02  0.45594000000E+02  0.51100000000E-03 0.  1.
         23    2    1    2    0    0  0.00000000000E+00  0.00000000000E+00  0.00000000000E+00  0.91188000000E+02  0.91188000000E+02 0.  0.
    9900012    2    3    3    0    0 -0.21556139976E+02  0.23148223462E+02  0.29717270802E+02  0.47787267241E+02  0.19999982659E+02 0.  0.
        -12    1    3    3    0    0  0.21556139976E+02 -0.23148223462E+02 -0.29717270802E+02  0.43400732759E+02  0.00000000000E+00 0.  1.
         11    1    4    4    0    0 -0.11188045078E+02  0.45779625643E+01  0.10941592920E+02  0.16304862765E+02  0.51100000000E-03 0. -1.
        -11    1    4    4    0    0 -0.50955797539E+01  0.97284261920E+01  0.11126724555E+01  0.11038353566E+02  0.51100000000E-03 0.  1.
        -12    1    4    4    0    0 -0.52725151445E+01  0.88418347054E+01  0.17663005426E+02  0.20444050909E+02  0.00000000000E+00 0.  1.
</event>
<event>
 8    1  0.6469014E-010  0.9118800E+02  0.7816164E-02  0.1184000E+00
        -11   -1    0    0    0    0  0.00000000000E+00  0.00000000000E+00  0.45593999997E+02  0.45594000000E+02  0.51100000000E-03 0. -1.
         11   -1    0    0    0    0 -0.00000000000E+00 -0.00000000000E+00 -0.45593999997E+02  0.45594000000E+02  0.51100000000E-03 0.  1.
         23    2    1    2    0    0  0.00000000000E+00  0.00000000000E+00  0.00000000000E+00  0.91188000000E+02  0.91188000000E+02 0.  0.
    9900012    2    3    3    0    0 -0.89541002908E+01 -0.36364825896E+02 -0.21932788422E+02  0.47787266338E+02  0.19999978539E+02 0.  0.
         12    1    3    3    0    0  0.89541002908E+01  0.36364825896E+02  0.21932788422E+02  0.43400733662E+02  0.00000000000E+00 0. -1.
         11    1    4    4    0    0  0.27204171253E+00 -0.28486002435E+01  0.16121204519E+01  0.32844272945E+01  0.51100000000E-03 0. -1.
        -11    1    4    4    0    0 -0.77192675103E+01 -0.18882747465E+02 -0.53207119460E+01  0.21082106598E+02  0.51100000000E-03 0.  1.
        -12    1    4    4    0    0 -0.15068744931E+01 -0.14633478188E+02 -0.18224196928E+02  0.23420732445E+02  0.00000000000E+00 0.  1.
</event>
<event>
 8    1  0.6469014E-010  0.9118800E+02  0.7816164E-02  0.1184000E+00
        -11   -1    0    0    0    0  0.00000000000E+00  0.00000000000E+00  0.45593999997E+02  0.45594000000E+02  0.51100000000E-03 0. -1.
         11   -1    0    0    0    0 -0.00000000000E+00 -0.00000000000E+00 -0.45593999997E+02  0.45594000000E+02  0.51100000000E-03 0.  1.
         23    2    1    2    0    0  0.00000000000E+00  0.00000000000E+00  0.00000000000E+00  0.91188000000E+02  0.91188000000E+02 0.  0.
    9900012    2    3    3    0    0 -0.38012996942E+02 -0.13049525131E+02  0.16381235303E+02  0.47787275205E+02  0.20000018968E+02 0.  0.
        -12    1    3    3    0    0  0.38012996942E+02  0.13049525131E+02 -0.16381235303E+02  0.43400724795E+02  0.00000000000E+00 0.  1.
         11    1    4    4    0    0 -0.23480982894E+02 -0.13519587203E+02  0.70121790182E+01  0.27987612450E+02  0.51100000000E-03 0. -1.
        -11    1    4    4    0    0 -0.14395288730E+02  0.28925648253E+01  0.65429550860E+01  0.16074872641E+02  0.51100000000E-03 0.  1.
        -12    1    4    4    0    0 -0.13672531823E+00 -0.24225027540E+01  0.28261011992E+01  0.37247901140E+01  0.00000000000E+00 0.  1.
</event>
<event>
 8    1  0.6469014E-010  0.9118800E+02  0.7816164E-02  0.1184000E+00
        -11   -1    0    0    0    0  0.00000000000E+00  0.00000000000E+00  0.45593999997E+02  0.45594000000E+02  0.51100000000E-03 0. -1.
         11   -1    0    0    0    0 -0.00000000000E+00 -0.00000000000E+00 -0.45593999997E+02  0.45594000000E+02  0.51100000000E-03 0.  1.
         23    2    1    2    0    0 -0.71054273576E-14  0.00000000000E+00  0.00000000000E+00  0.91188000000E+02  0.91188000000E+02 0.  0.
    9900012    2    3    3    0    0 -0.36410319456E+02  0.12705022504E+02 -0.19912163115E+02  0.47787271900E+02  0.20000003902E+02 0.  0.
         12    1    3    3    0    0  0.36410319456E+02 -0.12705022504E+02  0.19912163115E+02  0.43400728100E+02  0.00000000000E+00 0. -1.
         11    1    4    4    0    0 -0.24790676969E+02  0.17133264322E+02 -0.14531662748E+02  0.33455875917E+02  0.51100000000E-03 0.  1.
        -11    1    4    4    0    0 -0.10553931567E+02 -0.34601682430E+01 -0.61533497934E+01  0.12697320573E+02  0.51100000000E-03 0. -1.
        -12    1    4    4    0    0 -0.10657109196E+01 -0.96807357520E+00  0.77284942631E+00  0.16340754104E+01  0.00000000000E+00 0.  1.
</event>
<event>
 8    1  0.6469014E-010  0.9118800E+02  0.7816164E-02  0.1184000E+00
        -11   -1    0    0    0    0  0.00000000000E+00  0.00000000000E+00  0.45593999997E+02  0.45594000000E+02  0.51100000000E-03 0. -1.
         11   -1    0    0    0    0 -0.00000000000E+00 -0.00000000000E+00 -0.45593999997E+02  0.45594000000E+02  0.51100000000E-03 0.  1.
         23    2    1    2    0    0  0.00000000000E+00  0.71054273576E-14  0.00000000000E+00  0.91188000000E+02  0.91188000000E+02 0.  0.
    9900012    2    3    3    0    0  0.30798676416E+02 -0.27731950121E+02  0.12884246951E+02  0.47787270213E+02  0.19999996211E+02 0.  0.
        -12    1    3    3    0    0 -0.30798676416E+02  0.27731950121E+02 -0.12884246951E+02  0.43400729787E+02  0.00000000000E+00 0.  1.
         11    1    4    4    0    0  0.38416681660E+01 -0.73172508460E+01 -0.32775154987E+01  0.88905951627E+01  0.51100000000E-03 0. -1.
        -11    1    4    4    0    0 -0.20510097704E-01 -0.34094080321E+00 -0.10621064215E+01  0.11156754040E+01  0.51100000000E-03 0.  1.
         12    1    4    4    0    0  0.26977518348E+02 -0.20073758472E+02  0.17223868872E+02  0.37780999647E+02  0.00000000000E+00 0. -1.
</event>
<event>
 8    1  0.6469014E-010  0.9118800E+02  0.7816164E-02  0.1184000E+00
        -11   -1    0    0    0    0  0.00000000000E+00  0.00000000000E+00  0.45593999997E+02  0.45594000000E+02  0.51100000000E-03 0. -1.
         11   -1    0    0    0    0 -0.00000000000E+00 -0.00000000000E+00 -0.45593999997E+02  0.45594000000E+02  0.51100000000E-03 0.  1.
         23    2    1    2    0    0 -0.88817841970E-15  0.00000000000E+00  0.17763568394E-14  0.91188000000E+02  0.91188000000E+02 0.  0.
    9900012    2    3    3    0    0  0.50309887672E+01 -0.41653587087E+02  0.11103645525E+02  0.47787272942E+02  0.20000008653E+02 0.  0.
        -12    1    3    3    0    0 -0.50309887672E+01  0.41653587087E+02 -0.11103645525E+02  0.43400727058E+02  0.00000000000E+00 0.  1.
         11    1    4    4    0    0 -0.38448148695E+01 -0.20619093172E+02 -0.81998114897E+00  0.20990521050E+02  0.51100000000E-03 0. -1.
        -11    1    4    4    0    0  0.21138874747E+00 -0.60402430930E+01  0.52986112137E+00  0.60671224558E+01  0.51100000000E-03 0.  1.
         12    1    4    4    0    0  0.86644148892E+01 -0.14994250822E+02  0.11393765553E+02  0.20729629436E+02  0.00000000000E+00 0. -1.
</event>
<event>
 8    1  0.6469014E-010  0.9118800E+02  0.7816164E-02  0.1184000E+00
        -11   -1    0    0    0    0  0.00000000000E+00  0.00000000000E+00  0.45593999997E+02  0.45594000000E+02  0.51100000000E-03 0. -1.
         11   -1    0    0    0    0 -0.00000000000E+00 -0.00000000000E+00 -0.45593999997E+02  0.45594000000E+02  0.51100000000E-03 0.  1.
         23    2    1    2    0    0  0.35527136788E-14  0.00000000000E+00  0.00000000000E+00  0.91188000000E+02  0.91188000000E+02 0.  0.
    9900012    2    3    3    0    0 -0.30297286969E+02  0.22954812493E+02 -0.20946944432E+02  0.47787268494E+02  0.19999988372E+02 0.  0.
         12    1    3    3    0    0  0.30297286969E+02 -0.22954812493E+02  0.20946944432E+02  0.43400731506E+02  0.00000000000E+00 0. -1.
         11    1    4    4    0    0 -0.63640023331E+01  0.87707746691E+01 -0.21973043733E+01  0.11056905569E+02  0.51100000000E-03 0. -1.
        -11    1    4    4    0    0 -0.22073208350E+02  0.16123256674E+02 -0.19896136174E+02  0.33808906631E+02  0.51100000000E-03 0.  1.
        -12    1    4    4    0    0 -0.18600762855E+01 -0.19392188505E+01  0.11464961158E+01  0.29214562947E+01  0.00000000000E+00 0.  1.
</event>
<event>
 8    1  0.6469014E-010  0.9118800E+02  0.7816164E-02  0.1184000E+00
        -11   -1    0    0    0    0  0.00000000000E+00  0.00000000000E+00  0.45593999997E+02  0.45594000000E+02  0.51100000000E-03 0. -1.
         11   -1    0    0    0    0 -0.00000000000E+00 -0.00000000000E+00 -0.45593999997E+02  0.45594000000E+02  0.51100000000E-03 0.  1.
         23    2    1    2    0    0 -0.17763568394E-14  0.00000000000E+00 -0.35527136788E-14  0.91188000000E+02  0.91188000000E+02 0.  0.
    9900012    2    3    3    0    0 -0.11951694616E+02  0.30182572916E+02 -0.28806125227E+02  0.47787267718E+02  0.19999984835E+02 0.  0.
         12    1    3    3    0    0  0.11951694616E+02 -0.30182572916E+02  0.28806125227E+02  0.43400732282E+02  0.00000000000E+00 0. -1.
         11    1    4    4    0    0 -0.34726111159E+01  0.11182645857E+01 -0.39169423518E+01  0.53527545521E+01  0.51100000000E-03 0. -1.
        -11    1    4    4    0    0 -0.13022277416E+01  0.91582147993E+01  0.64401685983E+00  0.92727263185E+01  0.51100000000E-03 0.  1.
        -12    1    4    4    0    0 -0.71768557586E+01  0.19906093531E+02 -0.25533199735E+02  0.33161786848E+02  0.00000000000E+00 0.  1.
</event>
<event>
 8    1  0.6469014E-010  0.9118800E+02  0.7816164E-02  0.1184000E+00
        -11   -1    0    0    0    0  0.00000000000E+00  0.00000000000E+00  0.45593999997E+02  0.45594000000E+02  0.51100000000E-03 0. -1.
         11   -1    0    0    0    0 -0.00000000000E+00 -0.00000000000E+00 -0.45593999997E+02  0.45594000000E+02  0.51100000000E-03 0.  1.
         23    2    1    2    0    0  0.00000000000E+00  0.00000000000E+00  0.00000000000E+00  0.91188000000E+02  0.91188000000E+02 0.  0.
    9900012    2    3    3    0    0  0.14845374527E+02  0.15856370147E+02  0.37574107907E+02  0.47787271848E+02  0.20000003665E+02 0.  0.
        -12    1    3    3    0    0 -0.14845374527E+02 -0.15856370147E+02 -0.37574107907E+02  0.43400728152E+02  0.00000000000E+00 0.  1.
         11    1    4    4    0    0  0.10563020424E+02  0.85707562616E+01  0.20623092848E+02  0.24705206379E+02  0.51100000000E-03 0. -1.
        -11    1    4    4    0    0 -0.46802185038E+01  0.13684680474E+01  0.61751796977E+01  0.78682904496E+01  0.51100000000E-03 0.  1.
        -12    1    4    4    0    0  0.89625726072E+01  0.59171458380E+01  0.10775835362E+02  0.15213775020E+02  0.00000000000E+00 0.  1.
</event>
<event>
 8    1  0.6469014E-010  0.9118800E+02  0.7816164E-02  0.1184000E+00
        -11   -1    0    0    0    0  0.00000000000E+00  0.00000000000E+00  0.45593999997E+02  0.45594000000E+02  0.51100000000E-03 0.  1.
         11   -1    0    0    0    0 -0.00000000000E+00 -0.00000000000E+00 -0.45593999997E+02  0.45594000000E+02  0.51100000000E-03 0. -1.
         23    2    1    2    0    0  0.00000000000E+00 -0.44408920985E-15  0.00000000000E+00  0.91188000000E+02  0.91188000000E+02 0.  0.
    9900012    2    3    3    0    0  0.34828101912E+02 -0.32001918111E+01 -0.25697966103E+02  0.47787269911E+02  0.19999994833E+02 0.  0.
         12    1    3    3    0    0 -0.34828101912E+02  0.32001918111E+01  0.25697966103E+02  0.43400730089E+02  0.00000000000E+00 0. -1.
         11    1    4    4    0    0  0.23245127126E+01  0.56224768125E+01 -0.20775789440E+01  0.64289920973E+01  0.51100000000E-03 0. -1.
        -11    1    4    4    0    0  0.17358001198E+02 -0.67901071217E+01 -0.13835443600E+02  0.23212609938E+02  0.51100000000E-03 0.  1.
        -12    1    4    4    0    0  0.15145588002E+02 -0.20325615019E+01 -0.97849435597E+01  0.18145667875E+02  0.00000000000E+00 0.  1.
</event>
<event>
 8    1  0.6469014E-010  0.9118800E+02  0.7816164E-02  0.1184000E+00
        -11   -1    0    0    0    0  0.00000000000E+00  0.00000000000E+00  0.45593999997E+02  0.45594000000E+02  0.51100000000E-03 0. -1.
         11   -1    0    0    0    0 -0.00000000000E+00 -0.00000000000E+00 -0.45593999997E+02  0.45594000000E+02  0.51100000000E-03 0.  1.
         23    2    1    2    0    0 -0.22204460493E-15 -0.17763568394E-14  0.00000000000E+00  0.91188000000E+02  0.91188000000E+02 0.  0.
    9900012    2    3    3    0    0 -0.14286544385E+01 -0.12860657098E+02  0.41426872839E+02  0.47787270194E+02  0.19999996121E+02 0.  0.
        -12    1    3    3    0    0  0.14286544385E+01  0.12860657098E+02 -0.41426872839E+02  0.43400729806E+02  0.00000000000E+00 0.  1.
         11    1    4    4    0    0  0.20647699251E+01 -0.16062865629E+02  0.27065431070E+02  0.31540711569E+02  0.51100000000E-03 0. -1.
        -11    1    4    4    0    0 -0.12279287194E+01  0.46390236348E+01  0.78012290555E+01  0.91590132799E+01  0.51100000000E-03 0.  1.
         12    1    4    4    0    0 -0.22654956441E+01 -0.14368151040E+01  0.65602127141E+01  0.70875453445E+01  0.00000000000E+00 0. -1.
</event>
<event>
 8    1  0.6469014E-010  0.9118800E+02  0.7816164E-02  0.1184000E+00
        -11   -1    0    0    0    0  0.00000000000E+00  0.00000000000E+00  0.45593999997E+02  0.45594000000E+02  0.51100000000E-03 0. -1.
         11   -1    0    0    0    0 -0.00000000000E+00 -0.00000000000E+00 -0.45593999997E+02  0.45594000000E+02  0.51100000000E-03 0.  1.
         23    2    1    2    0    0  0.00000000000E+00  0.00000000000E+00  0.00000000000E+00  0.91188000000E+02  0.91188000000E+02 0.  0.
    9900012    2    3    3    0    0 -0.28686404687E+02  0.48029618228E+01 -0.32212498503E+02  0.47787270560E+02  0.19999997793E+02 0.  0.
         12    1    3    3    0    0  0.28686404687E+02 -0.48029618228E+01  0.32212498503E+02  0.43400729440E+02  0.00000000000E+00 0. -1.
         11    1    4    4    0    0 -0.31020537409E+01  0.73195526226E+01 -0.32450181957E+01  0.85865436211E+01  0.51100000000E-03 0. -1.
        -11    1    4    4    0    0 -0.24597184527E+02 -0.13400155403E+01 -0.25749407205E+02  0.35634942121E+02  0.51100000000E-03 0.  1.
        -12    1    4    4    0    0 -0.98716641833E+00 -0.11765752595E+01 -0.32180731020E+01  0.35657848180E+01  0.00000000000E+00 0.  1.
</event>
<event>
 8    1  0.6469014E-010  0.9118800E+02  0.7816164E-02  0.1184000E+00
        -11   -1    0    0    0    0  0.00000000000E+00  0.00000000000E+00  0.45593999997E+02  0.45594000000E+02  0.51100000000E-03 0. -1.
         11   -1    0    0    0    0 -0.00000000000E+00 -0.00000000000E+00 -0.45593999997E+02  0.45594000000E+02  0.51100000000E-03 0.  1.
         23    2    1    2    0    0  0.00000000000E+00  0.00000000000E+00  0.00000000000E+00  0.91188000000E+02  0.91188000000E+02 0.  0.
    9900012    2    3    3    0    0 -0.22371442118E+02 -0.23959642507E+02  0.28444282428E+02  0.47787273113E+02  0.20000009430E+02 0.  0.
        -12    1    3    3    0    0  0.22371442118E+02  0.23959642507E+02 -0.28444282428E+02  0.43400726887E+02  0.00000000000E+00 0.  1.
         11    1    4    4    0    0 -0.19930523922E+02 -0.27284742150E+02  0.25584854678E+02  0.42382398789E+02  0.51100000000E-03 0. -1.
        -11    1    4    4    0    0 -0.22190042898E+01  0.25122210528E+01  0.12299753057E+01  0.35704445340E+01  0.51100000000E-03 0.  1.
         12    1    4    4    0    0 -0.22191390578E+00  0.81287858964E+00  0.16294524447E+01  0.18344297895E+01  0.00000000000E+00 0. -1.
</event>
<event>
 8    1  0.6469014E-010  0.9118800E+02  0.7816164E-02  0.1184000E+00
        -11   -1    0    0    0    0  0.00000000000E+00  0.00000000000E+00  0.45593999997E+02  0.45594000000E+02  0.51100000000E-03 0. -1.
         11   -1    0    0    0    0 -0.00000000000E+00 -0.00000000000E+00 -0.45593999997E+02  0.45594000000E+02  0.51100000000E-03 0.  1.
         23    2    1    2    0    0  0.00000000000E+00  0.00000000000E+00  0.00000000000E+00  0.91188000000E+02  0.91188000000E+02 0.  0.
    9900012    2    3    3    0    0  0.34661924714E+02  0.10110908712E+02  0.24082046931E+02  0.47787257101E+02  0.19999936425E+02 0.  0.
        -12    1    3    3    0    0 -0.34661924714E+02 -0.10110908712E+02 -0.24082046931E+02  0.43400742899E+02  0.00000000000E+00 0.  1.
         11    1    4    4    0    0  0.16657669231E+02 -0.33840656191E+01  0.14330713299E+02  0.22232840310E+02  0.51100000000E-03 0. -1.
        -11    1    4    4    0    0  0.11460131613E+02  0.12441834598E+02  0.79197214606E+01  0.18677683289E+02  0.51100000000E-03 0.  1.
        -12    1    4    4    0    0  0.65441238694E+01  0.10531397323E+01  0.18316121714E+01  0.68767335022E+01  0.00000000000E+00 0.  1.
</event>
<event>
 8    1  0.6469014E-010  0.9118800E+02  0.7816164E-02  0.1184000E+00
        -11   -1    0    0    0    0  0.00000000000E+00  0.00000000000E+00  0.45593999997E+02  0.45594000000E+02  0.51100000000E-03 0. -1.
         11   -1    0    0    0    0 -0.00000000000E+00 -0.00000000000E+00 -0.45593999997E+02  0.45594000000E+02  0.51100000000E-03 0.  1.
         23    2    1    2    0    0  0.00000000000E+00  0.00000000000E+00  0.35527136788E-14  0.91188000000E+02  0.91188000000E+02 0.  0.
    9900012    2    3    3    0    0  0.38441882298E+02  0.12148609589E+02  0.16070349592E+02  0.47787272292E+02  0.20000005690E+02 0.  0.
        -12    1    3    3    0    0 -0.38441882298E+02 -0.12148609589E+02 -0.16070349592E+02  0.43400727708E+02  0.00000000000E+00 0.  1.
         11    1    4    4    0    0  0.19811840026E+02  0.10900951763E+02  0.69332119223E+01  0.23651832537E+02  0.51100000000E-03 0. -1.
        -11    1    4    4    0    0  0.67201370008E+01 -0.54534767040E+01  0.30619246092E+01  0.91801978217E+01  0.51100000000E-03 0.  1.
        -12    1    4    4    0    0  0.11909905271E+02  0.67011345304E+01  0.60752130602E+01  0.14955241933E+02  0.00000000000E+00 0.  1.
</event>
<event>
 8    1  0.6469014E-010  0.9118800E+02  0.7816164E-02  0.1184000E+00
        -11   -1    0    0    0    0  0.00000000000E+00  0.00000000000E+00  0.45593999997E+02  0.45594000000E+02  0.51100000000E-03 0. -1.
         11   -1    0    0    0    0 -0.00000000000E+00 -0.00000000000E+00 -0.45593999997E+02  0.45594000000E+02  0.51100000000E-03 0.  1.
         23    2    1    2    0    0  0.00000000000E+00  0.00000000000E+00 -0.35527136788E-14  0.91188000000E+02  0.91188000000E+02 0.  0.
    9900012    2    3    3    0    0  0.14891709562E+02 -0.26310813500E+02 -0.31138420163E+02  0.47787272691E+02  0.20000007506E+02 0.  0.
         12    1    3    3    0    0 -0.14891709562E+02  0.26310813500E+02  0.31138420163E+02  0.43400727309E+02  0.00000000000E+00 0. -1.
         11    1    4    4    0    0  0.14972923641E+02 -0.15169073645E+02 -0.21152918492E+02  0.30028906051E+02  0.51100000000E-03 0. -1.
        -11    1    4    4    0    0  0.11036683516E+00 -0.10130849588E+02 -0.28161455115E+01  0.10515558474E+02  0.51100000000E-03 0.  1.
         12    1    4    4    0    0 -0.19158091483E+00 -0.10108902666E+01 -0.71693561596E+01  0.72428081655E+01  0.00000000000E+00 0. -1.
</event>
<event>
 8    1  0.6469014E-010  0.9118800E+02  0.7816164E-02  0.1184000E+00
        -11   -1    0    0    0    0  0.00000000000E+00  0.00000000000E+00  0.45593999997E+02  0.45594000000E+02  0.51100000000E-03 0.  1.
         11   -1    0    0    0    0 -0.00000000000E+00 -0.00000000000E+00 -0.45593999997E+02  0.45594000000E+02  0.51100000000E-03 0. -1.
         23    2    1    2    0    0  0.35527136788E-14  0.35527136788E-14 -0.35527136788E-14  0.91188000000E+02  0.91188000000E+02 0.  0.
    9900012    2    3    3    0    0 -0.23402651566E+02 -0.18822657449E+02 -0.31331265480E+02  0.47787254265E+02  0.19999923497E+02 0.  0.
         12    1    3    3    0    0  0.23402651566E+02  0.18822657449E+02  0.31331265480E+02  0.43400745735E+02  0.00000000000E+00 0. -1.
         11    1    4    4    0    0 -0.20921378015E+01 -0.10924698314E+02 -0.60585754696E+01  0.12666191646E+02  0.51100000000E-03 0. -1.
        -11    1    4    4    0    0 -0.50408982139E+01  0.17777816994E+01 -0.70364926871E+01  0.88364807570E+01  0.51100000000E-03 0.  1.
         12    1    4    4    0    0 -0.16269615551E+02 -0.96757408346E+01 -0.18236197323E+02  0.26284581862E+02  0.00000000000E+00 0. -1.
</event>
<event>
 8    1  0.6469014E-010  0.9118800E+02  0.7816164E-02  0.1184000E+00
        -11   -1    0    0    0    0  0.00000000000E+00  0.00000000000E+00  0.45593999997E+02  0.45594000000E+02  0.51100000000E-03 0. -1.
         11   -1    0    0    0    0 -0.00000000000E+00 -0.00000000000E+00 -0.45593999997E+02  0.45594000000E+02  0.51100000000E-03 0.  1.
         23    2    1    2    0    0  0.88817841970E-15  0.71054273576E-14  0.00000000000E+00  0.91188000000E+02  0.91188000000E+02 0.  0.
    9900012    2    3    3    0    0 -0.69221836198E+01  0.36867544380E+02 -0.21828667794E+02  0.47787271983E+02  0.20000004281E+02 0.  0.
         12    1    3    3    0    0  0.69221836198E+01 -0.36867544380E+02  0.21828667794E+02  0.43400728017E+02  0.00000000000E+00 0. -1.
         11    1    4    4    0    0  0.40674257803E+01  0.14961588602E+02 -0.14781893630E+02  0.21421892203E+02  0.51100000000E-03 0. -1.
        -11    1    4    4    0    0 -0.97770473233E+01  0.21203098042E+02 -0.49891844856E+01  0.23875803296E+02  0.51100000000E-03 0.  1.
        -12    1    4    4    0    0 -0.12125620768E+01  0.70285773592E+00 -0.20575896783E+01  0.24895764843E+01  0.00000000000E+00 0.  1.
</event>
<event>
 8    1  0.6469014E-010  0.9118800E+02  0.7816164E-02  0.1184000E+00
        -11   -1    0    0    0    0  0.00000000000E+00  0.00000000000E+00  0.45593999997E+02  0.45594000000E+02  0.51100000000E-03 0. -1.
         11   -1    0    0    0    0 -0.00000000000E+00 -0.00000000000E+00 -0.45593999997E+02  0.45594000000E+02  0.51100000000E-03 0.  1.
         23    2    1    2    0    0  0.00000000000E+00 -0.17763568394E-14 -0.71054273576E-14  0.91188000000E+02  0.91188000000E+02 0.  0.
    9900012    2    3    3    0    0  0.99534349368E+01  0.12176366144E+02  0.40451061386E+02  0.47787272739E+02  0.20000007725E+02 0.  0.
        -12    1    3    3    0    0 -0.99534349368E+01 -0.12176366144E+02 -0.40451061386E+02  0.43400727261E+02  0.00000000000E+00 0.  1.
         11    1    4    4    0    0  0.22948072062E+00  0.50721764796E+01  0.50323366225E+00  0.51022426462E+01  0.51100000000E-03 0. -1.
        -11    1    4    4    0    0  0.97351777533E+01  0.89167411163E+01  0.35880975756E+02  0.38232530383E+02  0.51100000000E-03 0.  1.
        -12    1    4    4    0    0 -0.11223537081E-01 -0.18125514518E+01  0.40668519683E+01  0.44524997097E+01  0.00000000000E+00 0.  1.
</event>
<event>
 8    1  0.6469014E-010  0.9118800E+02  0.7816164E-02  0.1184000E+00
        -11   -1    0    0    0    0  0.00000000000E+00  0.00000000000E+00  0.45593999997E+02  0.45594000000E+02  0.51100000000E-03 0. -1.
         11   -1    0    0    0    0 -0.00000000000E+00 -0.00000000000E+00 -0.45593999997E+02  0.45594000000E+02  0.51100000000E-03 0.  1.
         23    2    1    2    0    0  0.00000000000E+00  0.00000000000E+00  0.00000000000E+00  0.91188000000E+02  0.91188000000E+02 0.  0.
    9900012    2    3    3    0    0 -0.56864262819E+01  0.38028499176E+02 -0.20127615336E+02  0.47787273133E+02  0.20000009522E+02 0.  0.
         12    1    3    3    0    0  0.56864262819E+01 -0.38028499176E+02  0.20127615336E+02  0.43400726867E+02  0.00000000000E+00 0. -1.
         11    1    4    4    0    0 -0.70777835770E+01  0.73153310264E+01  0.58235248442E+00  0.10195500138E+02  0.51100000000E-03 0. -1.
        -11    1    4    4    0    0  0.28394999097E+01  0.26870828329E+02 -0.16254448035E+02  0.31532701375E+02  0.51100000000E-03 0.  1.
         12    1    4    4    0    0 -0.14481426146E+01  0.38423398210E+01 -0.44555197861E+01  0.60590716201E+01  0.00000000000E+00 0. -1.
</event>
<event>
 8    1  0.6469014E-010  0.9118800E+02  0.7816164E-02  0.1184000E+00
        -11   -1    0    0    0    0  0.00000000000E+00  0.00000000000E+00  0.45593999997E+02  0.45594000000E+02  0.51100000000E-03 0.  1.
         11   -1    0    0    0    0 -0.00000000000E+00 -0.00000000000E+00 -0.45593999997E+02  0.45594000000E+02  0.51100000000E-03 0. -1.
         23    2    1    2    0    0  0.00000000000E+00  0.35527136788E-14  0.00000000000E+00  0.91188000000E+02  0.91188000000E+02 0.  0.
    9900012    2    3    3    0    0 -0.29310217734E+02  0.31957603078E+02 -0.18016868441E+01  0.47787270357E+02  0.19999996864E+02 0.  0.
        -12    1    3    3    0    0  0.29310217734E+02 -0.31957603078E+02  0.18016868441E+01  0.43400729643E+02  0.00000000000E+00 0.  1.
         11    1    4    4    0    0 -0.17752988961E+02  0.26521659150E+02 -0.20626534289E+01  0.31981581583E+02  0.51100000000E-03 0. -1.
        -11    1    4    4    0    0 -0.81247478052E+00 -0.54799659866E+00 -0.29385444023E+01  0.30976537906E+01  0.51100000000E-03 0.  1.
         12    1    4    4    0    0 -0.10744753992E+02  0.59839405275E+01  0.31995109871E+01  0.12708034983E+02  0.00000000000E+00 0. -1.
</event>
<event>
 8    1  0.6469014E-010  0.9118800E+02  0.7816164E-02  0.1184000E+00
        -11   -1    0    0    0    0  0.00000000000E+00  0.00000000000E+00  0.45593999997E+02  0.45594000000E+02  0.51100000000E-03 0. -1.
         11   -1    0    0    0    0 -0.00000000000E+00 -0.00000000000E+00 -0.45593999997E+02  0.45594000000E+02  0.51100000000E-03 0.  1.
         23    2    1    2    0    0 -0.35527136788E-14  0.00000000000E+00  0.00000000000E+00  0.91188000000E+02  0.91188000000E+02 0.  0.
    9900012    2    3    3    0    0  0.23806069064E+02 -0.60064533651E+01 -0.35788487309E+02  0.47787283068E+02  0.20000054821E+02 0.  0.
         12    1    3    3    0    0 -0.23806069064E+02  0.60064533651E+01  0.35788487309E+02  0.43400716932E+02  0.00000000000E+00 0. -1.
         11    1    4    4    0    0  0.71359053218E+01 -0.23636147811E+01 -0.33604929673E+00  0.75246760054E+01  0.51100000000E-03 0. -1.
        -11    1    4    4    0    0  0.17015990297E+02 -0.30411920704E+01 -0.28910529161E+02  0.33683994294E+02  0.51100000000E-03 0.  1.
         12    1    4    4    0    0 -0.34582655462E+00 -0.60164651355E+00 -0.65419088517E+01  0.65786127684E+01  0.00000000000E+00 0. -1.
</event>
<event>
 8    1  0.6469014E-010  0.9118800E+02  0.7816164E-02  0.1184000E+00
        -11   -1    0    0    0    0  0.00000000000E+00  0.00000000000E+00  0.45593999997E+02  0.45594000000E+02  0.51100000000E-03 0.  1.
         11   -1    0    0    0    0 -0.00000000000E+00 -0.00000000000E+00 -0.45593999997E+02  0.45594000000E+02  0.51100000000E-03 0. -1.
         23    2    1    2    0    0 -0.44408920985E-15  0.00000000000E+00  0.00000000000E+00  0.91188000000E+02  0.91188000000E+02 0.  0.
    9900012    2    3    3    0    0  0.12153794863E+01 -0.41335559760E+02 -0.13172603823E+02  0.47787272594E+02  0.20000007063E+02 0.  0.
         12    1    3    3    0    0 -0.12153794863E+01  0.41335559760E+02  0.13172603823E+02  0.43400727406E+02  0.00000000000E+00 0. -1.
         11    1    4    4    0    0 -0.15442216490E+01 -0.61214617123E+00  0.86212522890E+00  0.18715244074E+01  0.51100000000E-03 0. -1.
        -11    1    4    4    0    0  0.42717049025E+01 -0.71834075704E+01  0.21712961299E+01  0.86350063255E+01  0.51100000000E-03 0.  1.
        -12    1    4    4    0    0 -0.15121037673E+01 -0.33540006018E+02 -0.16206025182E+02  0.37280741861E+02  0.00000000000E+00 0.  1.
</event>
<event>
 8    1  0.6469014E-010  0.9118800E+02  0.7816164E-02  0.1184000E+00
        -11   -1    0    0    0    0  0.00000000000E+00  0.00000000000E+00  0.45593999997E+02  0.45594000000E+02  0.51100000000E-03 0. -1.
         11   -1    0    0    0    0 -0.00000000000E+00 -0.00000000000E+00 -0.45593999997E+02  0.45594000000E+02  0.51100000000E-03 0.  1.
         23    2    1    2    0    0 -0.35527136788E-14  0.27755575616E-16  0.71054273576E-14  0.91188000000E+02  0.91188000000E+02 0.  0.
    9900012    2    3    3    0    0 -0.22160290644E+02 -0.15697144246E+00  0.37316485625E+02  0.47787271655E+02  0.20000002782E+02 0.  0.
        -12    1    3    3    0    0  0.22160290644E+02  0.15697144246E+00 -0.37316485625E+02  0.43400728345E+02  0.00000000000E+00 0.  1.
         11    1    4    4    0    0 -0.39012497238E+01  0.33485888991E+00 -0.15153489959E+01  0.41985905640E+01  0.51100000000E-03 0. -1.
        -11    1    4    4    0    0  0.38808618797E+00 -0.10715805744E+01  0.24657083988E+01  0.27163604300E+01  0.51100000000E-03 0.  1.
         12    1    4    4    0    0 -0.18647127108E+02  0.57975024201E+00  0.36366126223E+02  0.40872320661E+02  0.00000000000E+00 0. -1.
</event>
<event>
 8    1  0.6469014E-010  0.9118800E+02  0.7816164E-02  0.1184000E+00
        -11   -1    0    0    0    0  0.00000000000E+00  0.00000000000E+00  0.45593999997E+02  0.45594000000E+02  0.51100000000E-03 0. -1.
         11   -1    0    0    0    0 -0.00000000000E+00 -0.00000000000E+00 -0.45593999997E+02  0.45594000000E+02  0.51100000000E-03 0.  1.
         23    2    1    2    0    0  0.00000000000E+00  0.35527136788E-14  0.00000000000E+00  0.91188000000E+02  0.91188000000E+02 0.  0.
    9900012    2    3    3    0    0  0.15053322567E+02  0.17983383126E+02 -0.36518747440E+02  0.47787268398E+02  0.19999987935E+02 0.  0.
         12    1    3    3    0    0 -0.15053322567E+02 -0.17983383126E+02  0.36518747440E+02  0.43400731602E+02  0.00000000000E+00 0. -1.
         11    1    4    4    0    0  0.52008739184E+01 -0.32524775988E+01 -0.32013659539E+01  0.69192806185E+01  0.51100000000E-03 0. -1.
        -11    1    4    4    0    0  0.59796359553E+01  0.15024112729E+02 -0.20528804077E+02  0.26132581322E+02  0.51100000000E-03 0.  1.
         12    1    4    4    0    0  0.38728126928E+01  0.62117479958E+01 -0.12788577410E+02  0.14735406458E+02  0.00000000000E+00 0. -1.
</event>
<event>
 8    1  0.6469014E-010  0.9118800E+02  0.7816164E-02  0.1184000E+00
        -11   -1    0    0    0    0  0.00000000000E+00  0.00000000000E+00  0.45593999997E+02  0.45594000000E+02  0.51100000000E-03 0. -1.
         11   -1    0    0    0    0 -0.00000000000E+00 -0.00000000000E+00 -0.45593999997E+02  0.45594000000E+02  0.51100000000E-03 0.  1.
         23    2    1    2    0    0  0.00000000000E+00 -0.71054273576E-14 -0.17763568394E-14  0.91188000000E+02  0.91188000000E+02 0.  0.
    9900012    2    3    3    0    0  0.66421691315E+01  0.39925413547E+02  0.15667358507E+02  0.47787272123E+02  0.20000004918E+02 0.  0.
        -12    1    3    3    0    0 -0.66421691315E+01 -0.39925413547E+02 -0.15667358507E+02  0.43400727877E+02  0.00000000000E+00 0.  1.
         11    1    4    4    0    0  0.12005887569E+02  0.18357342824E+02  0.68002135413E+01  0.22964674531E+02  0.51100000000E-03 0. -1.
        -11    1    4    4    0    0 -0.28043493527E+01  0.74297798749E+01  0.52731436894E-02  0.79414124908E+01  0.51100000000E-03 0.  1.
         12    1    4    4    0    0 -0.25593690843E+01  0.14138290848E+02  0.88618718225E+01  0.16881185101E+02  0.00000000000E+00 0. -1.
</event>
<event>
 8    1  0.6469014E-010  0.9118800E+02  0.7816164E-02  0.1184000E+00
        -11   -1    0    0    0    0  0.00000000000E+00  0.00000000000E+00  0.45593999997E+02  0.45594000000E+02  0.51100000000E-03 0.  1.
         11   -1    0    0    0    0 -0.00000000000E+00 -0.00000000000E+00 -0.45593999997E+02  0.45594000000E+02  0.51100000000E-03 0. -1.
         23    2    1    2    0    0 -0.88817841970E-15  0.71054273576E-14  0.88817841970E-15  0.91188000000E+02  0.91188000000E+02 0.  0.
    9900012    2    3    3    0    0  0.72147664412E+01 -0.42461784603E+02 -0.53448509310E+01  0.47787269154E+02  0.19999991381E+02 0.  0.
         12    1    3    3    0    0 -0.72147664412E+01  0.42461784603E+02  0.53448509310E+01  0.43400730846E+02  0.00000000000E+00 0. -1.
         11    1    4    4    0    0 -0.23277846422E+01 -0.11492975288E+01 -0.15808918253E+01  0.30395205830E+01  0.51100000000E-03 0. -1.
        -11    1    4    4    0    0  0.12785648608E+02 -0.31902696526E+02 -0.86144501997E+00  0.34380182428E+02  0.51100000000E-03 0.  1.
        -12    1    4    4    0    0 -0.32430975247E+01 -0.94097905484E+01 -0.29025140857E+01  0.10367566143E+02  0.00000000000E+00 0.  1.
</event>
<event>
 8    1  0.6469014E-010  0.9118800E+02  0.7816164E-02  0.1184000E+00
        -11   -1    0    0    0    0  0.00000000000E+00  0.00000000000E+00  0.45593999997E+02  0.45594000000E+02  0.51100000000E-03 0. -1.
         11   -1    0    0    0    0 -0.00000000000E+00 -0.00000000000E+00 -0.45593999997E+02  0.45594000000E+02  0.51100000000E-03 0.  1.
         23    2    1    2    0    0  0.35527136788E-14  0.00000000000E+00 -0.71054273576E-14  0.91188000000E+02  0.91188000000E+02 0.  0.
    9900012    2    3    3    0    0 -0.23401278815E+02  0.22176119073E+01  0.36484046598E+02  0.47787270641E+02  0.19999998159E+02 0.  0.
        -12    1    3    3    0    0  0.23401278815E+02 -0.22176119073E+01 -0.36484046598E+02  0.43400729359E+02  0.00000000000E+00 0.  1.
         11    1    4    4    0    0 -0.14629890512E+02  0.55559954809E+01  0.15262056422E+02  0.21859394975E+02  0.51100000000E-03 0. -1.
        -11    1    4    4    0    0  0.22554604439E+01 -0.16114691812E+01  0.12328492744E+01  0.30337851490E+01  0.51100000000E-03 0.  1.
        -12    1    4    4    0    0 -0.11026848746E+02 -0.17269143923E+01  0.19989140902E+02  0.22894090516E+02  0.00000000000E+00 0.  1.
</event>
<event>
 8    1  0.6469014E-010  0.9118800E+02  0.7816164E-02  0.1184000E+00
        -11   -1    0    0    0    0  0.00000000000E+00  0.00000000000E+00  0.45593999997E+02  0.45594000000E+02  0.51100000000E-03 0. -1.
         11   -1    0    0    0    0 -0.00000000000E+00 -0.00000000000E+00 -0.45593999997E+02  0.45594000000E+02  0.51100000000E-03 0.  1.
         23    2    1    2    0    0 -0.44408920985E-15  0.00000000000E+00  0.71054273576E-14  0.91188000000E+02  0.91188000000E+02 0.  0.
    9900012    2    3    3    0    0  0.37706099495E+01  0.58669508195E+01  0.42836722337E+02  0.47787269685E+02  0.19999993803E+02 0.  0.
        -12    1    3    3    0    0 -0.37706099495E+01 -0.58669508195E+01 -0.42836722337E+02  0.43400730315E+02  0.00000000000E+00 0.  1.
         11    1    4    4    0    0  0.40106674545E+01  0.34929175699E+01  0.15071298968E+02  0.15982176930E+02  0.51100000000E-03 0. -1.
        -11    1    4    4    0    0  0.67408182065E+01  0.45017625268E+01  0.12721535371E+02  0.15084493972E+02  0.51100000000E-03 0.  1.
        -12    1    4    4    0    0 -0.69808757116E+01 -0.21277292772E+01  0.15043887998E+02  0.16720598784E+02  0.00000000000E+00 0.  1.
</event>
<event>
 8    1  0.6469014E-010  0.9118800E+02  0.7816164E-02  0.1184000E+00
        -11   -1    0    0    0    0  0.00000000000E+00  0.00000000000E+00  0.45593999997E+02  0.45594000000E+02  0.51100000000E-03 0. -1.
         11   -1    0    0    0    0 -0.00000000000E+00 -0.00000000000E+00 -0.45593999997E+02  0.45594000000E+02  0.51100000000E-03 0.  1.
         23    2    1    2    0    0  0.00000000000E+00  0.00000000000E+00  0.00000000000E+00  0.91188000000E+02  0.91188000000E+02 0.  0.
    9900012    2    3    3    0    0 -0.22733759965E+02 -0.55927731148E+01  0.36544747041E+02  0.47787291601E+02  0.20000093724E+02 0.  0.
        -12    1    3    3    0    0  0.22733759965E+02  0.55927731148E+01 -0.36544747041E+02  0.43400708399E+02  0.00000000000E+00 0.  1.
         11    1    4    4    0    0 -0.52643820770E+00 -0.25568581853E+01  0.22101617153E+01  0.34204496832E+01  0.51100000000E-03 0. -1.
        -11    1    4    4    0    0 -0.21477449627E+02  0.28324601556E+01  0.30135578477E+02  0.37114104642E+02  0.51100000000E-03 0.  1.
        -12    1    4    4    0    0 -0.72987213106E+00 -0.58683750851E+01  0.41990068486E+01  0.72527372751E+01  0.00000000000E+00 0.  1.
</event>
<event>
 8    1  0.6469014E-010  0.9118800E+02  0.7816164E-02  0.1184000E+00
        -11   -1    0    0    0    0  0.00000000000E+00  0.00000000000E+00  0.45593999997E+02  0.45594000000E+02  0.51100000000E-03 0. -1.
         11   -1    0    0    0    0 -0.00000000000E+00 -0.00000000000E+00 -0.45593999997E+02  0.45594000000E+02  0.51100000000E-03 0.  1.
         23    2    1    2    0    0  0.00000000000E+00 -0.44408920985E-15  0.71054273576E-14  0.91188000000E+02  0.91188000000E+02 0.  0.
    9900012    2    3    3    0    0 -0.29634697619E+02  0.25159118023E+01  0.31608211224E+02  0.47787261158E+02  0.19999954925E+02 0.  0.
        -12    1    3    3    0    0  0.29634697619E+02 -0.25159118023E+01 -0.31608211224E+02  0.43400738842E+02  0.00000000000E+00 0.  1.
         11    1    4    4    0    0  0.11332845611E+01  0.74770459554E+00 -0.15056191120E+01  0.20273838389E+01  0.51100000000E-03 0.  1.
        -11    1    4    4    0    0 -0.25127519070E+02  0.17349779348E+00  0.22972321231E+02  0.34046289947E+02  0.51100000000E-03 0. -1.
         12    1    4    4    0    0 -0.56404631102E+01  0.15947094133E+01  0.10141509105E+02  0.11713587373E+02  0.00000000000E+00 0. -1.
</event>
<event>
 8    1  0.6469014E-010  0.9118800E+02  0.7816164E-02  0.1184000E+00
        -11   -1    0    0    0    0  0.00000000000E+00  0.00000000000E+00  0.45593999997E+02  0.45594000000E+02  0.51100000000E-03 0. -1.
         11   -1    0    0    0    0 -0.00000000000E+00 -0.00000000000E+00 -0.45593999997E+02  0.45594000000E+02  0.51100000000E-03 0.  1.
         23    2    1    2    0    0  0.00000000000E+00  0.00000000000E+00  0.00000000000E+00  0.91188000000E+02  0.91188000000E+02 0.  0.
    9900012    2    3    3    0    0 -0.19699923479E+02 -0.13318836204E+02  0.36306265086E+02  0.47787271119E+02  0.20000000340E+02 0.  0.
        -12    1    3    3    0    0  0.19699923479E+02  0.13318836204E+02 -0.36306265086E+02  0.43400728881E+02  0.00000000000E+00 0.  1.
         11    1    4    4    0    0 -0.14901193614E+02 -0.10254067234E+02  0.28920442619E+02  0.34111339281E+02  0.51100000000E-03 0. -1.
        -11    1    4    4    0    0 -0.74309773556E+01 -0.38692523305E+01  0.69577568020E+01  0.10890404861E+02  0.51100000000E-03 0.  1.
         12    1    4    4    0    0  0.26322474907E+01  0.80448336033E+00  0.42806566475E+00  0.27855269776E+01  0.00000000000E+00 0. -1.
</event>
<event>
 8    1  0.6469014E-010  0.9118800E+02  0.7816164E-02  0.1184000E+00
        -11   -1    0    0    0    0  0.00000000000E+00  0.00000000000E+00  0.45593999997E+02  0.45594000000E+02  0.51100000000E-03 0. -1.
         11   -1    0    0    0    0 -0.00000000000E+00 -0.00000000000E+00 -0.45593999997E+02  0.45594000000E+02  0.51100000000E-03 0.  1.
         23    2    1    2    0    0  0.00000000000E+00 -0.11102230246E-14 -0.71054273576E-14  0.91188000000E+02  0.91188000000E+02 0.  0.
    9900012    2    3    3    0    0 -0.39665776593E+01 -0.13941742393E+01  0.43196595306E+02  0.47787270673E+02  0.19999998305E+02 0.  0.
        -12    1    3    3    0    0  0.39665776593E+01  0.13941742393E+01 -0.43196595306E+02  0.43400729327E+02  0.00000000000E+00 0.  1.
         11    1    4    4    0    0 -0.38202278994E+01 -0.94103276089E+01  0.23419224467E+02  0.25526623000E+02  0.51100000000E-03 0. -1.
        -11    1    4    4    0    0  0.25308149257E+01  0.37457497792E+01  0.54978867726E+01  0.71177541979E+01  0.51100000000E-03 0.  1.
         12    1    4    4    0    0 -0.26771646856E+01  0.42704035905E+01  0.14279484066E+02  0.15142893475E+02  0.00000000000E+00 0. -1.
</event>
<event>
 8    1  0.6469014E-010  0.9118800E+02  0.7816164E-02  0.1184000E+00
        -11   -1    0    0    0    0  0.00000000000E+00  0.00000000000E+00  0.45593999997E+02  0.45594000000E+02  0.51100000000E-03 0. -1.
         11   -1    0    0    0    0 -0.00000000000E+00 -0.00000000000E+00 -0.45593999997E+02  0.45594000000E+02  0.51100000000E-03 0.  1.
         23    2    1    2    0    0 -0.17763568394E-14  0.00000000000E+00 -0.35527136788E-14  0.91188000000E+02  0.91188000000E+02 0.  0.
    9900012    2    3    3    0    0 -0.15757873565E+02  0.29981567667E+02 -0.27137018780E+02  0.47787276880E+02  0.20000026606E+02 0.  0.
         12    1    3    3    0    0  0.15757873565E+02 -0.29981567667E+02  0.27137018780E+02  0.43400723120E+02  0.00000000000E+00 0. -1.
         11    1    4    4    0    0 -0.19372721070E+02  0.18935155273E+02 -0.15926172469E+02  0.31424280368E+02  0.51100000000E-03 0.  1.
        -11    1    4    4    0    0  0.33316971005E+01  0.61823030803E+01 -0.61060208872E+01  0.93061575466E+01  0.51100000000E-03 0. -1.
        -12    1    4    4    0    0  0.28315040505E+00  0.48641093143E+01 -0.51048254240E+01  0.70568389653E+01  0.00000000000E+00 0.  1.
</event>
<event>
 8    1  0.6469014E-010  0.9118800E+02  0.7816164E-02  0.1184000E+00
        -11   -1    0    0    0    0  0.00000000000E+00  0.00000000000E+00  0.45593999997E+02  0.45594000000E+02  0.51100000000E-03 0. -1.
         11   -1    0    0    0    0 -0.00000000000E+00 -0.00000000000E+00 -0.45593999997E+02  0.45594000000E+02  0.51100000000E-03 0.  1.
         23    2    1    2    0    0  0.00000000000E+00  0.35527136788E-14  0.00000000000E+00  0.91188000000E+02  0.91188000000E+02 0.  0.
    9900012    2    3    3    0    0  0.40717824612E+01 -0.28698496033E+02  0.32302321604E+02  0.47787273417E+02  0.20000010816E+02 0.  0.
        -12    1    3    3    0    0 -0.40717824612E+01  0.28698496033E+02 -0.32302321604E+02  0.43400726583E+02  0.00000000000E+00 0.  1.
         11    1    4    4    0    0  0.30540086087E+01 -0.25363635015E+02  0.15709759711E+02  0.29990623538E+02  0.51100000000E-03 0. -1.
        -11    1    4    4    0    0 -0.15258684317E+01  0.61567996667E+00  0.57272040640E+01  0.59588759799E+01  0.51100000000E-03 0.  1.
         12    1    4    4    0    0  0.25436422842E+01 -0.39505409853E+01  0.10865357828E+02  0.11837773899E+02  0.00000000000E+00 0. -1.
</event>
<event>
 8    1  0.6469014E-010  0.9118800E+02  0.7816164E-02  0.1184000E+00
        -11   -1    0    0    0    0  0.00000000000E+00  0.00000000000E+00  0.45593999997E+02  0.45594000000E+02  0.51100000000E-03 0. -1.
         11   -1    0    0    0    0 -0.00000000000E+00 -0.00000000000E+00 -0.45593999997E+02  0.45594000000E+02  0.51100000000E-03 0.  1.
         23    2    1    2    0    0  0.00000000000E+00  0.00000000000E+00  0.00000000000E+00  0.91188000000E+02  0.91188000000E+02 0.  0.
    9900012    2    3    3    0    0  0.18830845909E+02  0.35434616376E+02 -0.16535122714E+02  0.47787273295E+02  0.20000010261E+02 0.  0.
         12    1    3    3    0    0 -0.18830845909E+02 -0.35434616376E+02  0.16535122714E+02  0.43400726705E+02  0.00000000000E+00 0. -1.
         11    1    4    4    0    0  0.13816738957E+02  0.10581400869E+02 -0.30066440205E+01  0.17660923766E+02  0.51100000000E-03 0. -1.
        -11    1    4    4    0    0  0.15469124592E+01  0.22809097144E+02 -0.12013184464E+02  0.25825654917E+02  0.51100000000E-03 0.  1.
        -12    1    4    4    0    0  0.34671944929E+01  0.20441183625E+01 -0.15152942305E+01  0.43006946109E+01  0.00000000000E+00 0.  1.
</event>
<event>
 8    1  0.6469014E-010  0.9118800E+02  0.7816164E-02  0.1184000E+00
        -11   -1    0    0    0    0  0.00000000000E+00  0.00000000000E+00  0.45593999997E+02  0.45594000000E+02  0.51100000000E-03 0. -1.
         11   -1    0    0    0    0 -0.00000000000E+00 -0.00000000000E+00 -0.45593999997E+02  0.45594000000E+02  0.51100000000E-03 0.  1.
         23    2    1    2    0    0  0.00000000000E+00  0.00000000000E+00  0.00000000000E+00  0.91188000000E+02  0.91188000000E+02 0.  0.
    9900012    2    3    3    0    0  0.29613090900E+02 -0.93813164155E+01  0.30309719982E+02  0.47787269871E+02  0.19999994648E+02 0.  0.
        -12    1    3    3    0    0 -0.29613090900E+02  0.93813164155E+01 -0.30309719982E+02  0.43400730129E+02  0.00000000000E+00 0.  1.
         11    1    4    4    0    0  0.18466254928E+02  0.26256360635E+01  0.11078065690E+02  0.21693779650E+02  0.51100000000E-03 0. -1.
        -11    1    4    4    0    0  0.18768426858E+01 -0.57825749318E+01  0.95172776468E+01  0.11293329242E+02  0.51100000000E-03 0.  1.
         12    1    4    4    0    0  0.92699932869E+01 -0.62243775472E+01  0.97143766448E+01  0.14800160978E+02  0.00000000000E+00 0. -1.
</event>
<event>
 8    1  0.6469014E-010  0.9118800E+02  0.7816164E-02  0.1184000E+00
        -11   -1    0    0    0    0  0.00000000000E+00  0.00000000000E+00  0.45593999997E+02  0.45594000000E+02  0.51100000000E-03 0. -1.
         11   -1    0    0    0    0 -0.00000000000E+00 -0.00000000000E+00 -0.45593999997E+02  0.45594000000E+02  0.51100000000E-03 0.  1.
         23    2    1    2    0    0 -0.17763568394E-14 -0.35527136788E-14  0.00000000000E+00  0.91188000000E+02  0.91188000000E+02 0.  0.
    9900012    2    3    3    0    0 -0.36812517489E+01 -0.12855928119E+02 -0.41289185679E+02  0.47787270095E+02  0.19999995669E+02 0.  0.
         12    1    3    3    0    0  0.36812517489E+01  0.12855928119E+02  0.41289185679E+02  0.43400729905E+02  0.00000000000E+00 0. -1.
         11    1    4    4    0    0  0.54534454761E+01 -0.14980732837E+01 -0.62686836717E+01  0.84427890156E+01  0.51100000000E-03 0. -1.
        -11    1    4    4    0    0 -0.10182177855E+02 -0.11205166149E+02 -0.35155679723E+02  0.38277334172E+02  0.51100000000E-03 0.  1.
         12    1    4    4    0    0  0.10474806302E+01 -0.15268868653E+00  0.13517771513E+00  0.10671469066E+01  0.00000000000E+00 0. -1.
</event>
<event>
 8    1  0.6469014E-010  0.9118800E+02  0.7816164E-02  0.1184000E+00
        -11   -1    0    0    0    0  0.00000000000E+00  0.00000000000E+00  0.45593999997E+02  0.45594000000E+02  0.51100000000E-03 0. -1.
         11   -1    0    0    0    0 -0.00000000000E+00 -0.00000000000E+00 -0.45593999997E+02  0.45594000000E+02  0.51100000000E-03 0.  1.
         23    2    1    2    0    0  0.35527136788E-14 -0.35527136788E-14  0.00000000000E+00  0.91188000000E+02  0.91188000000E+02 0.  0.
    9900012    2    3    3    0    0  0.24462594386E+02 -0.21168362054E+02 -0.28932773046E+02  0.47787269219E+02  0.19999991677E+02 0.  0.
         12    1    3    3    0    0 -0.24462594386E+02  0.21168362054E+02  0.28932773046E+02  0.43400730781E+02  0.00000000000E+00 0. -1.
         11    1    4    4    0    0  0.62209095214E+01 -0.83617385360E+01 -0.21678710185E+02  0.24053791015E+02  0.51100000000E-03 0. -1.
        -11    1    4    4    0    0  0.14793597733E+02 -0.11839174586E+02 -0.67640582229E+01  0.20118873544E+02  0.51100000000E-03 0.  1.
         12    1    4    4    0    0  0.34480871322E+01 -0.96744893254E+00 -0.49000463789E+00  0.36146046608E+01  0.00000000000E+00 0. -1.
</event>
<event>
 8    1  0.6469014E-010  0.9118800E+02  0.7816164E-02  0.1184000E+00
        -11   -1    0    0    0    0  0.00000000000E+00  0.00000000000E+00  0.45593999997E+02  0.45594000000E+02  0.51100000000E-03 0. -1.
         11   -1    0    0    0    0 -0.00000000000E+00 -0.00000000000E+00 -0.45593999997E+02  0.45594000000E+02  0.51100000000E-03 0.  1.
         23    2    1    2    0    0  0.00000000000E+00  0.35527136788E-14  0.00000000000E+00  0.91188000000E+02  0.91188000000E+02 0.  0.
    9900012    2    3    3    0    0  0.13966509674E+02  0.16372041889E+02  0.37689734650E+02  0.47787271364E+02  0.20000001459E+02 0.  0.
        -12    1    3    3    0    0 -0.13966509674E+02 -0.16372041889E+02 -0.37689734650E+02  0.43400728636E+02  0.00000000000E+00 0.  1.
         11    1    4    4    0    0  0.10942898040E+02  0.13691320723E+02  0.30296600308E+02  0.35001189568E+02  0.51100000000E-03 0. -1.
        -11    1    4    4    0    0 -0.23684697470E+01  0.51534180164E-01 -0.91409489150E+00  0.25392665173E+01  0.51100000000E-03 0.  1.
         12    1    4    4    0    0  0.53920813815E+01  0.26291869850E+01  0.83072292335E+01  0.10246815279E+02  0.00000000000E+00 0. -1.
</event>
<event>
 8    1  0.7789585E-010  0.9118800E+02  0.7816164E-02  0.1184000E+00
        -11   -1    0    0    0    0  0.00000000000E+00  0.00000000000E+00  0.45593999997E+02  0.45594000000E+02  0.51100000000E-03 0. -1.
         11   -1    0    0    0    0 -0.00000000000E+00 -0.00000000000E+00 -0.45593999997E+02  0.45594000000E+02  0.51100000000E-03 0.  1.
         23    2    1    2    0    0 -0.17763568394E-14 -0.88817841970E-15 -0.71054273576E-14  0.91188000000E+02  0.91188000000E+02 0.  0.
    9900012    2    3    3    0    0 -0.11480237479E+02 -0.57526375208E+01 -0.41457621374E+02  0.47787273497E+02  0.20000011181E+02 0.  0.
         12    1    3    3    0    0  0.11480237479E+02  0.57526375208E+01  0.41457621374E+02  0.43400726503E+02  0.00000000000E+00 0. -1.
         11    1    4    4    0    0 -0.91895863416E+01 -0.82036480961E+01 -0.13424835754E+02  0.18220168893E+02  0.51100000000E-03 0. -1.
        -11    1    4    4    0    0 -0.21693887926E+00 -0.13413647059E+01 -0.22524364416E+02  0.22565312193E+02  0.51100000000E-03 0.  1.
         12    1    4    4    0    0 -0.20737122585E+01  0.37923752812E+01 -0.55084212037E+01  0.70017924106E+01  0.00000000000E+00 0. -1.
</event>
<event>
 8    1  0.6469014E-010  0.9118800E+02  0.7816164E-02  0.1184000E+00
        -11   -1    0    0    0    0  0.00000000000E+00  0.00000000000E+00  0.45593999997E+02  0.45594000000E+02  0.51100000000E-03 0. -1.
         11   -1    0    0    0    0 -0.00000000000E+00 -0.00000000000E+00 -0.45593999997E+02  0.45594000000E+02  0.51100000000E-03 0.  1.
         23    2    1    2    0    0  0.00000000000E+00  0.00000000000E+00  0.00000000000E+00  0.91188000000E+02  0.91188000000E+02 0.  0.
    9900012    2    3    3    0    0 -0.23720046986E+02  0.18618389454E+02 -0.31214390354E+02  0.47787271665E+02  0.20000002828E+02 0.  0.
         12    1    3    3    0    0  0.23720046986E+02 -0.18618389454E+02  0.31214390354E+02  0.43400728335E+02  0.00000000000E+00 0. -1.
         11    1    4    4    0    0 -0.17524039358E+02  0.18491821905E+02 -0.18720264028E+02  0.31614675680E+02  0.51100000000E-03 0.  1.
        -11    1    4    4    0    0 -0.60851500896E+01  0.25846095023E+01 -0.50122208464E+01  0.82964821440E+01  0.51100000000E-03 0. -1.
         12    1    4    4    0    0 -0.11085753841E+00 -0.24580419534E+01 -0.74819054794E+01  0.78761138413E+01  0.00000000000E+00 0. -1.
</event>
<event>
 8    1  0.6469014E-010  0.9118800E+02  0.7816164E-02  0.1184000E+00
        -11   -1    0    0    0    0  0.00000000000E+00  0.00000000000E+00  0.45593999997E+02  0.45594000000E+02  0.51100000000E-03 0. -1.
         11   -1    0    0    0    0 -0.00000000000E+00 -0.00000000000E+00 -0.45593999997E+02  0.45594000000E+02  0.51100000000E-03 0.  1.
         23    2    1    2    0    0  0.00000000000E+00  0.17763568394E-14  0.00000000000E+00  0.91188000000E+02  0.91188000000E+02 0.  0.
    9900012    2    3    3    0    0  0.10492312717E+02 -0.12480733324E+02  0.40221460596E+02  0.47787271632E+02  0.20000002677E+02 0.  0.
        -12    1    3    3    0    0 -0.10492312717E+02  0.12480733324E+02 -0.40221460596E+02  0.43400728368E+02  0.00000000000E+00 0.  1.
         11    1    4    4    0    0  0.81998290809E+01 -0.46061314510E+01  0.55753088496E+01  0.10933330368E+02  0.51100000000E-03 0. -1.
        -11    1    4    4    0    0 -0.88930552867E+00  0.23466231221E+00 -0.19509191803E+00  0.94020840333E+00  0.51100000000E-03 0.  1.
         12    1    4    4    0    0  0.31817891650E+01 -0.81092641856E+01  0.34841243664E+02  0.35913732861E+02  0.00000000000E+00 0. -1.
</event>
<event>
 8    1  0.6469014E-010  0.9118800E+02  0.7816164E-02  0.1184000E+00
        -11   -1    0    0    0    0  0.00000000000E+00  0.00000000000E+00  0.45593999997E+02  0.45594000000E+02  0.51100000000E-03 0. -1.
         11   -1    0    0    0    0 -0.00000000000E+00 -0.00000000000E+00 -0.45593999997E+02  0.45594000000E+02  0.51100000000E-03 0.  1.
         23    2    1    2    0    0  0.16653345369E-15  0.35527136788E-14  0.00000000000E+00  0.91188000000E+02  0.91188000000E+02 0.  0.
    9900012    2    3    3    0    0 -0.28929885038E+00 -0.19919479980E+02 -0.38558450307E+02  0.47787268825E+02  0.19999989880E+02 0.  0.
         12    1    3    3    0    0  0.28929885038E+00  0.19919479980E+02  0.38558450307E+02  0.43400731175E+02  0.00000000000E+00 0. -1.
         11    1    4    4    0    0  0.11967443066E+01 -0.78151315341E+01 -0.14398403099E+01  0.80362689234E+01  0.51100000000E-03 0. -1.
        -11    1    4    4    0    0  0.14644023397E+01 -0.67978611961E+01 -0.27586606556E+02  0.28449538706E+02  0.51100000000E-03 0.  1.
         12    1    4    4    0    0 -0.29504454967E+01 -0.53064872495E+01 -0.95320034410E+01  0.11301461196E+02  0.00000000000E+00 0. -1.
</event>
<event>
 8    1  0.6469014E-010  0.9118800E+02  0.7816164E-02  0.1184000E+00
        -11   -1    0    0    0    0  0.00000000000E+00  0.00000000000E+00  0.45593999997E+02  0.45594000000E+02  0.51100000000E-03 0. -1.
         11   -1    0    0    0    0 -0.00000000000E+00 -0.00000000000E+00 -0.45593999997E+02  0.45594000000E+02  0.51100000000E-03 0.  1.
         23    2    1    2    0    0  0.88817841970E-15  0.00000000000E+00 -0.71054273576E-14  0.91188000000E+02  0.91188000000E+02 0.  0.
    9900012    2    3    3    0    0  0.57372300379E+01 -0.17025047337E+02 -0.39507638099E+02  0.47787291324E+02  0.20000092464E+02 0.  0.
         12    1    3    3    0    0 -0.57372300379E+01  0.17025047337E+02  0.39507638099E+02  0.43400708676E+02  0.00000000000E+00 0. -1.
         11    1    4    4    0    0 -0.43416376583E+01 -0.23873884788E+01 -0.16883471071E+02  0.17595483425E+02  0.51100000000E-03 0. -1.
        -11    1    4    4    0    0  0.99984160243E+01 -0.15751266372E+02 -0.22197510608E+02  0.28996554843E+02  0.51100000000E-03 0.  1.
        -12    1    4    4    0    0  0.80451671937E-01  0.11136075139E+01 -0.42665642062E+00  0.11952530559E+01  0.00000000000E+00 0.  1.
</event>
<event>
 8    1  0.6469014E-010  0.9118800E+02  0.7816164E-02  0.1184000E+00
        -11   -1    0    0    0    0  0.00000000000E+00  0.00000000000E+00  0.45593999997E+02  0.45594000000E+02  0.51100000000E-03 0. -1.
         11   -1    0    0    0    0 -0.00000000000E+00 -0.00000000000E+00 -0.45593999997E+02  0.45594000000E+02  0.51100000000E-03 0.  1.
         23    2    1    2    0    0  0.44408920985E-15  0.00000000000E+00  0.00000000000E+00  0.91188000000E+02  0.91188000000E+02 0.  0.
    9900012    2    3    3    0    0 -0.27269250134E+01  0.29444383844E+01 -0.43214783091E+02  0.47787270570E+02  0.19999997839E+02 0.  0.
         12    1    3    3    0    0  0.27269250134E+01 -0.29444383844E+01  0.43214783091E+02  0.43400729430E+02  0.00000000000E+00 0. -1.
         11    1    4    4    0    0 -0.64637318790E+01  0.23170331225E+01 -0.40169299698E+02  0.40751946098E+02  0.51100000000E-03 0. -1.
        -11    1    4    4    0    0  0.69091735757E+00  0.81442655956E+00 -0.37536277925E+01  0.39026118538E+01  0.51100000000E-03 0.  1.
         12    1    4    4    0    0  0.30458895081E+01 -0.18702129771E+00  0.70814439926E+00  0.31327126187E+01  0.00000000000E+00 0. -1.
</event>
<event>
 8    1  0.6666914E-010  0.9118800E+02  0.7816164E-02  0.1184000E+00
        -11   -1    0    0    0    0  0.00000000000E+00  0.00000000000E+00  0.45593999997E+02  0.45594000000E+02  0.51100000000E-03 0. -1.
         11   -1    0    0    0    0 -0.00000000000E+00 -0.00000000000E+00 -0.45593999997E+02  0.45594000000E+02  0.51100000000E-03 0.  1.
         23    2    1    2    0    0  0.55511151231E-15  0.00000000000E+00  0.35527136788E-14  0.91188000000E+02  0.91188000000E+02 0.  0.
    9900012    2    3    3    0    0 -0.73744491077E+00  0.34346393513E+02 -0.26521776167E+02  0.47787272086E+02  0.20000004751E+02 0.  0.
         12    1    3    3    0    0  0.73744491077E+00 -0.34346393513E+02  0.26521776167E+02  0.43400727914E+02  0.00000000000E+00 0. -1.
         11    1    4    4    0    0  0.34195476463E+00 -0.18363358801E+01 -0.11513371487E+01  0.21942287978E+01  0.51100000000E-03 0. -1.
        -11    1    4    4    0    0 -0.51496763553E+01  0.20621440899E+02 -0.10582507439E+02  0.23743471846E+02  0.51100000000E-03 0.  1.
         12    1    4    4    0    0  0.40702766799E+01  0.15561288494E+02 -0.14787931580E+02  0.21849571443E+02  0.00000000000E+00 0. -1.
</event>
<event>
 8    1  0.6469014E-010  0.9118800E+02  0.7816164E-02  0.1184000E+00
        -11   -1    0    0    0    0  0.00000000000E+00  0.00000000000E+00  0.45593999997E+02  0.45594000000E+02  0.51100000000E-03 0. -1.
         11   -1    0    0    0    0 -0.00000000000E+00 -0.00000000000E+00 -0.45593999997E+02  0.45594000000E+02  0.51100000000E-03 0.  1.
         23    2    1    2    0    0  0.00000000000E+00 -0.88817841970E-15  0.00000000000E+00  0.91188000000E+02  0.91188000000E+02 0.  0.
    9900012    2    3    3    0    0 -0.14311224584E+02 -0.64939495158E+01  0.40455420411E+02  0.47787267633E+02  0.19999984444E+02 0.  0.
        -12    1    3    3    0    0  0.14311224584E+02  0.64939495158E+01 -0.40455420411E+02  0.43400732367E+02  0.00000000000E+00 0.  1.
         11    1    4    4    0    0 -0.34828971239E+01 -0.94327628479E+01  0.15503567295E+02  0.18478857823E+02  0.51100000000E-03 0. -1.
        -11    1    4    4    0    0 -0.98536960322E+01  0.18334286939E+01  0.25750428607E+02  0.27632252170E+02  0.51100000000E-03 0.  1.
        -12    1    4    4    0    0 -0.97463142752E+00  0.11053846383E+01 -0.79857549096E+00  0.16761576396E+01  0.00000000000E+00 0.  1.
</event>
<event>
 8    1  0.6469014E-010  0.9118800E+02  0.7816164E-02  0.1184000E+00
        -11   -1    0    0    0    0  0.00000000000E+00  0.00000000000E+00  0.45593999997E+02  0.45594000000E+02  0.51100000000E-03 0. -1.
         11   -1    0    0    0    0 -0.00000000000E+00 -0.00000000000E+00 -0.45593999997E+02  0.45594000000E+02  0.51100000000E-03 0.  1.
         23    2    1    2    0    0 -0.35527136788E-14  0.00000000000E+00 -0.35527136788E-14  0.91188000000E+02  0.91188000000E+02 0.  0.
    9900012    2    3    3    0    0 -0.30404595871E+02 -0.40757292309E+01 -0.30701346551E+02  0.47787266148E+02  0.19999977675E+02 0.  0.
         12    1    3    3    0    0  0.30404595871E+02  0.40757292309E+01  0.30701346551E+02  0.43400733852E+02  0.00000000000E+00 0. -1.
         11    1    4    4    0    0 -0.60727208007E+01  0.30137141993E+00  0.14380570222E+01  0.62479413343E+01  0.51100000000E-03 0. -1.
        -11    1    4    4    0    0 -0.12695307159E+02 -0.27321599626E+01 -0.23855197153E+02  0.27160742872E+02  0.51100000000E-03 0.  1.
        -12    1    4    4    0    0 -0.11636567911E+02 -0.16449406882E+01 -0.82842064208E+01  0.14378581941E+02  0.00000000000E+00 0.  1.
</event>
<event>
 8    1  0.6469014E-010  0.9118800E+02  0.7816164E-02  0.1184000E+00
        -11   -1    0    0    0    0  0.00000000000E+00  0.00000000000E+00  0.45593999997E+02  0.45594000000E+02  0.51100000000E-03 0. -1.
         11   -1    0    0    0    0 -0.00000000000E+00 -0.00000000000E+00 -0.45593999997E+02  0.45594000000E+02  0.51100000000E-03 0.  1.
         23    2    1    2    0    0 -0.33306690739E-15  0.00000000000E+00  0.00000000000E+00  0.91188000000E+02  0.91188000000E+02 0.  0.
    9900012    2    3    3    0    0 -0.52376211254E+00 -0.20868964628E+02  0.38050429368E+02  0.47787272051E+02  0.20000004590E+02 0.  0.
        -12    1    3    3    0    0  0.52376211254E+00  0.20868964628E+02 -0.38050429368E+02  0.43400727949E+02  0.00000000000E+00 0.  1.
         11    1    4    4    0    0 -0.79854918305E+01 -0.84366105707E+01  0.24978517904E+02  0.27547610325E+02  0.51100000000E-03 0.  1.
        -11    1    4    4    0    0  0.58945761102E+01 -0.46794296927E+01  0.59098380002E+01  0.95691836233E+01  0.51100000000E-03 0. -1.
         12    1    4    4    0    0  0.15671536077E+01 -0.77529243642E+01  0.71620734646E+01  0.10670478103E+02  0.00000000000E+00 0. -1.
</event>
<event>
 8    1  0.6469014E-010  0.9118800E+02  0.7816164E-02  0.1184000E+00
        -11   -1    0    0    0    0  0.00000000000E+00  0.00000000000E+00  0.45593999997E+02  0.45594000000E+02  0.51100000000E-03 0. -1.
         11   -1    0    0    0    0 -0.00000000000E+00 -0.00000000000E+00 -0.45593999997E+02  0.45594000000E+02  0.51100000000E-03 0.  1.
         23    2    1    2    0    0 -0.17763568394E-14 -0.35527136788E-14  0.00000000000E+00  0.91188000000E+02  0.91188000000E+02 0.  0.
    9900012    2    3    3    0    0  0.11499025437E+02  0.20843460797E+02 -0.36289780000E+02  0.47787244517E+02  0.19999879052E+02 0.  0.
         12    1    3    3    0    0 -0.11499025437E+02 -0.20843460797E+02  0.36289780000E+02  0.43400755483E+02  0.00000000000E+00 0. -1.
         11    1    4    4    0    0  0.81073483506E+01  0.11252279036E+02 -0.86175704942E+01  0.16328055679E+02  0.51100000000E-03 0. -1.
        -11    1    4    4    0    0 -0.39781263674E+01  0.33137303036E+01 -0.11482725771E+02  0.12596002910E+02  0.51100000000E-03 0.  1.
         12    1    4    4    0    0  0.73698034537E+01  0.62774514574E+01 -0.16189483735E+02  0.18863185928E+02  0.00000000000E+00 0. -1.
</event>
<event>
 8    1  0.6469014E-010  0.9118800E+02  0.7816164E-02  0.1184000E+00
        -11   -1    0    0    0    0  0.00000000000E+00  0.00000000000E+00  0.45593999997E+02  0.45594000000E+02  0.51100000000E-03 0. -1.
         11   -1    0    0    0    0 -0.00000000000E+00 -0.00000000000E+00 -0.45593999997E+02  0.45594000000E+02  0.51100000000E-03 0.  1.
         23    2    1    2    0    0  0.00000000000E+00  0.88817841970E-15  0.71054273576E-14  0.91188000000E+02  0.91188000000E+02 0.  0.
    9900012    2    3    3    0    0  0.25177751695E+02  0.49758805641E+01  0.34999211162E+02  0.47787270170E+02  0.19999996013E+02 0.  0.
        -12    1    3    3    0    0 -0.25177751695E+02 -0.49758805641E+01 -0.34999211162E+02  0.43400729830E+02  0.00000000000E+00 0.  1.
         11    1    4    4    0    0  0.24082115438E+02  0.69231746906E+01  0.24916141497E+02  0.35336846762E+02  0.51100000000E-03 0. -1.
        -11    1    4    4    0    0 -0.24014965003E+00  0.18403350434E+01  0.30654168225E+00  0.18810829303E+01  0.51100000000E-03 0.  1.
         12    1    4    4    0    0  0.13357859068E+01 -0.37876291699E+01  0.97765279833E+01  0.10569340477E+02  0.00000000000E+00 0. -1.
</event>
<event>
 8    1  0.6469014E-010  0.9118800E+02  0.7816164E-02  0.1184000E+00
        -11   -1    0    0    0    0  0.00000000000E+00  0.00000000000E+00  0.45593999997E+02  0.45594000000E+02  0.51100000000E-03 0. -1.
         11   -1    0    0    0    0 -0.00000000000E+00 -0.00000000000E+00 -0.45593999997E+02  0.45594000000E+02  0.51100000000E-03 0.  1.
         23    2    1    2    0    0  0.00000000000E+00  0.00000000000E+00 -0.35527136788E-14  0.91188000000E+02  0.91188000000E+02 0.  0.
    9900012    2    3    3    0    0 -0.26301190734E+02  0.20053016504E+02  0.28102438640E+02  0.47787272328E+02  0.20000005853E+02 0.  0.
        -12    1    3    3    0    0  0.26301190734E+02 -0.20053016504E+02 -0.28102438640E+02  0.43400727672E+02  0.00000000000E+00 0.  1.
         11    1    4    4    0    0 -0.79603638210E+01  0.91661398527E+01  0.12522623247E+02  0.17441376242E+02  0.51100000000E-03 0. -1.
        -11    1    4    4    0    0 -0.20495864825E+02  0.73013163530E+01  0.12044979788E+02  0.24869081884E+02  0.51100000000E-03 0.  1.
        -12    1    4    4    0    0  0.21550379119E+01  0.35855602979E+01  0.35348356050E+01  0.54768142022E+01  0.00000000000E+00 0.  1.
</event>
<event>
 8    1  0.6469014E-010  0.9118800E+02  0.7816164E-02  0.1184000E+00
        -11   -1    0    0    0    0  0.00000000000E+00  0.00000000000E+00  0.45593999997E+02  0.45594000000E+02  0.51100000000E-03 0. -1.
         11   -1    0    0    0    0 -0.00000000000E+00 -0.00000000000E+00 -0.45593999997E+02  0.45594000000E+02  0.51100000000E-03 0.  1.
         23    2    1    2    0    0  0.00000000000E+00  0.00000000000E+00 -0.71054273576E-14  0.91188000000E+02  0.91188000000E+02 0.  0.
    9900012    2    3    3    0    0 -0.56256643146E+01 -0.27604782955E+02  0.33014405305E+02  0.47787273064E+02  0.20000009208E+02 0.  0.
        -12    1    3    3    0    0  0.56256643146E+01  0.27604782955E+02 -0.33014405305E+02  0.43400726936E+02  0.00000000000E+00 0.  1.
         11    1    4    4    0    0 -0.10383273384E+02 -0.11011709338E+02  0.17011519174E+02  0.22769758312E+02  0.51100000000E-03 0. -1.
        -11    1    4    4    0    0  0.11536494171E+01 -0.14774240024E+02  0.10368947882E+02  0.18086573907E+02  0.51100000000E-03 0.  1.
         12    1    4    4    0    0  0.36039596518E+01 -0.18188335931E+01  0.56339382487E+01  0.69309408453E+01  0.00000000000E+00 0. -1.
</event>
<event>
 8    1  0.6469014E-010  0.9118800E+02  0.7816164E-02  0.1184000E+00
        -11   -1    0    0    0    0  0.00000000000E+00  0.00000000000E+00  0.45593999997E+02  0.45594000000E+02  0.51100000000E-03 0.  1.
         11   -1    0    0    0    0 -0.00000000000E+00 -0.00000000000E+00 -0.45593999997E+02  0.45594000000E+02  0.51100000000E-03 0. -1.
         23    2    1    2    0    0  0.00000000000E+00  0.00000000000E+00  0.35527136788E-14  0.91188000000E+02  0.91188000000E+02 0.  0.
    9900012    2    3    3    0    0  0.36288944224E+02 -0.15577613764E+02 -0.18002068783E+02  0.47787262633E+02  0.19999961651E+02 0.  0.
        -12    1    3    3    0    0 -0.36288944224E+02  0.15577613764E+02  0.18002068783E+02  0.43400737367E+02  0.00000000000E+00 0.  1.
         11    1    4    4    0    0  0.26444426116E+02 -0.67297778899E+01 -0.97734719807E+01  0.28984794943E+02  0.51100000000E-03 0. -1.
        -11    1    4    4    0    0 -0.90398219116E+00 -0.48526787845E+01 -0.47244590414E+00  0.49587176347E+01  0.51100000000E-03 0.  1.
         12    1    4    4    0    0  0.10748500300E+02 -0.39951570893E+01 -0.77561508980E+01  0.13843750056E+02  0.00000000000E+00 0. -1.
</event>
<event>
 8    1  0.6469014E-010  0.9118800E+02  0.7816164E-02  0.1184000E+00
        -11   -1    0    0    0    0  0.00000000000E+00  0.00000000000E+00  0.45593999997E+02  0.45594000000E+02  0.51100000000E-03 0. -1.
         11   -1    0    0    0    0 -0.00000000000E+00 -0.00000000000E+00 -0.45593999997E+02  0.45594000000E+02  0.51100000000E-03 0.  1.
         23    2    1    2    0    0  0.17763568394E-14  0.88817841970E-15  0.00000000000E+00  0.91188000000E+02  0.91188000000E+02 0.  0.
    9900012    2    3    3    0    0  0.11527564109E+02 -0.64798435875E+01  0.41337032519E+02  0.47787269998E+02  0.19999995231E+02 0.  0.
        -12    1    3    3    0    0 -0.11527564109E+02  0.64798435875E+01 -0.41337032519E+02  0.43400730002E+02  0.00000000000E+00 0.  1.
         11    1    4    4    0    0  0.95226914733E+01 -0.16607508317E+01  0.39212028942E+02  0.40385925274E+02  0.51100000000E-03 0. -1.
        -11    1    4    4    0    0  0.47950429319E+00 -0.52591813552E+01  0.23815598322E+01  0.57931632455E+01  0.51100000000E-03 0.  1.
         12    1    4    4    0    0  0.15253683429E+01  0.44008859936E+00 -0.25655625550E+00  0.16081814789E+01  0.00000000000E+00 0. -1.
</event>
<event>
 8    1  0.6469014E-010  0.9118800E+02  0.7816164E-02  0.1184000E+00
        -11   -1    0    0    0    0  0.00000000000E+00  0.00000000000E+00  0.45593999997E+02  0.45594000000E+02  0.51100000000E-03 0. -1.
         11   -1    0    0    0    0 -0.00000000000E+00 -0.00000000000E+00 -0.45593999997E+02  0.45594000000E+02  0.51100000000E-03 0.  1.
         23    2    1    2    0    0  0.00000000000E+00  0.00000000000E+00  0.00000000000E+00  0.91188000000E+02  0.91188000000E+02 0.  0.
    9900012    2    3    3    0    0  0.10042539994E+02  0.23566411862E+02  0.35034195037E+02  0.47787271901E+02  0.20000003908E+02 0.  0.
        -12    1    3    3    0    0 -0.10042539994E+02 -0.23566411862E+02 -0.35034195037E+02  0.43400728099E+02  0.00000000000E+00 0.  1.
         11    1    4    4    0    0  0.16334515083E+01  0.80686067783E+01  0.21009308930E+02  0.22564610370E+02  0.51100000000E-03 0. -1.
        -11    1    4    4    0    0  0.73339621824E+01  0.16253461682E+02  0.88946396483E+01  0.19926781794E+02  0.51100000000E-03 0.  1.
        -12    1    4    4    0    0  0.10751263034E+01 -0.75565659833E+00  0.51302464586E+01  0.52958797370E+01  0.00000000000E+00 0.  1.
</event>
<event>
 8    1  0.6469014E-010  0.9118800E+02  0.7816164E-02  0.1184000E+00
        -11   -1    0    0    0    0  0.00000000000E+00  0.00000000000E+00  0.45593999997E+02  0.45594000000E+02  0.51100000000E-03 0. -1.
         11   -1    0    0    0    0 -0.00000000000E+00 -0.00000000000E+00 -0.45593999997E+02  0.45594000000E+02  0.51100000000E-03 0.  1.
         23    2    1    2    0    0  0.00000000000E+00  0.00000000000E+00 -0.35527136788E-14  0.91188000000E+02  0.91188000000E+02 0.  0.
    9900012    2    3    3    0    0  0.25083039449E+02 -0.28157301192E+02  0.21485634201E+02  0.47787251672E+02  0.19999911674E+02 0.  0.
        -12    1    3    3    0    0 -0.25083039449E+02  0.28157301192E+02 -0.21485634201E+02  0.43400748328E+02  0.00000000000E+00 0.  1.
         11    1    4    4    0    0  0.92707252922E+01 -0.15628996695E+02  0.94038136604E+01  0.20460781919E+02  0.51100000000E-03 0. -1.
        -11    1    4    4    0    0  0.21671425749E+01  0.29462642621E+01  0.57259188174E+00  0.37020051008E+01  0.51100000000E-03 0.  1.
        -12    1    4    4    0    0  0.13645171582E+02 -0.15474568759E+02  0.11509228659E+02  0.23624464652E+02  0.00000000000E+00 0.  1.
</event>
<event>
 8    1  0.6469014E-010  0.9118800E+02  0.7816164E-02  0.1184000E+00
        -11   -1    0    0    0    0  0.00000000000E+00  0.00000000000E+00  0.45593999997E+02  0.45594000000E+02  0.51100000000E-03 0. -1.
         11   -1    0    0    0    0 -0.00000000000E+00 -0.00000000000E+00 -0.45593999997E+02  0.45594000000E+02  0.51100000000E-03 0.  1.
         23    2    1    2    0    0  0.35527136788E-14 -0.35527136788E-14  0.35527136788E-14  0.91188000000E+02  0.91188000000E+02 0.  0.
    9900012    2    3    3    0    0 -0.29369064139E+02  0.17892241869E+02 -0.26475440083E+02  0.47787272182E+02  0.20000005188E+02 0.  0.
         12    1    3    3    0    0  0.29369064139E+02 -0.17892241869E+02  0.26475440083E+02  0.43400727818E+02  0.00000000000E+00 0. -1.
         11    1    4    4    0    0 -0.20233310654E+02  0.65904458249E+01 -0.69785544055E+01  0.22394665839E+02  0.51100000000E-03 0. -1.
        -11    1    4    4    0    0 -0.49934617663E+01  0.11610189429E+01 -0.45025309759E+01  0.68231525592E+01  0.51100000000E-03 0.  1.
         12    1    4    4    0    0 -0.41422917188E+01  0.10140777101E+02 -0.14994354702E+02  0.18569453784E+02  0.00000000000E+00 0. -1.
</event>
<event>
 8    1  0.6469014E-010  0.9118800E+02  0.7816164E-02  0.1184000E+00
        -11   -1    0    0    0    0  0.00000000000E+00  0.00000000000E+00  0.45593999997E+02  0.45594000000E+02  0.51100000000E-03 0.  1.
         11   -1    0    0    0    0 -0.00000000000E+00 -0.00000000000E+00 -0.45593999997E+02  0.45594000000E+02  0.51100000000E-03 0. -1.
         23    2    1    2    0    0  0.00000000000E+00 -0.35527136788E-14 -0.35527136788E-14  0.91188000000E+02  0.91188000000E+02 0.  0.
    9900012    2    3    3    0    0 -0.92380586215E+01 -0.31347204437E+02 -0.28559299446E+02  0.47787279523E+02  0.20000038658E+02 0.  0.
         12    1    3    3    0    0  0.92380586215E+01  0.31347204437E+02  0.28559299446E+02  0.43400720477E+02  0.00000000000E+00 0. -1.
         11    1    4    4    0    0  0.24020799434E+01 -0.97693556795E+01 -0.21357022924E+01  0.10284528331E+02  0.51100000000E-03 0. -1.
        -11    1    4    4    0    0 -0.85592185687E+01 -0.54114753214E+01 -0.10925546555E+02  0.14896706194E+02  0.51100000000E-03 0.  1.
        -12    1    4    4    0    0 -0.30809199962E+01 -0.16166373436E+02 -0.15498050598E+02  0.22606044998E+02  0.00000000000E+00 0.  1.
</event>
<event>
 8    1  0.6469014E-010  0.9118800E+02  0.7816164E-02  0.1184000E+00
        -11   -1    0    0    0    0  0.00000000000E+00  0.00000000000E+00  0.45593999997E+02  0.45594000000E+02  0.51100000000E-03 0. -1.
         11   -1    0    0    0    0 -0.00000000000E+00 -0.00000000000E+00 -0.45593999997E+02  0.45594000000E+02  0.51100000000E-03 0.  1.
         23    2    1    2    0    0  0.00000000000E+00  0.00000000000E+00  0.00000000000E+00  0.91188000000E+02  0.91188000000E+02 0.  0.
    9900012    2    3    3    0    0  0.16942267071E+02  0.22844853547E+02  0.32782554257E+02  0.47787267164E+02  0.19999982309E+02 0.  0.
        -12    1    3    3    0    0 -0.16942267071E+02 -0.22844853547E+02 -0.32782554257E+02  0.43400732836E+02  0.00000000000E+00 0.  1.
         11    1    4    4    0    0  0.10744185514E+02  0.80299123971E+01  0.24896676488E+02  0.28280055090E+02  0.51100000000E-03 0. -1.
        -11    1    4    4    0    0  0.80448602245E+01  0.11330120319E+02  0.62785476174E+01  0.15248329841E+02  0.51100000000E-03 0.  1.
         12    1    4    4    0    0 -0.18467786678E+01  0.34848208307E+01  0.16073301511E+01  0.42588822341E+01  0.00000000000E+00 0. -1.
</event>
<event>
 8    1  0.6469014E-010  0.9118800E+02  0.7816164E-02  0.1184000E+00
        -11   -1    0    0    0    0  0.00000000000E+00  0.00000000000E+00  0.45593999997E+02  0.45594000000E+02  0.51100000000E-03 0. -1.
         11   -1    0    0    0    0 -0.00000000000E+00 -0.00000000000E+00 -0.45593999997E+02  0.45594000000E+02  0.51100000000E-03 0.  1.
         23    2    1    2    0    0  0.00000000000E+00  0.00000000000E+00  0.00000000000E+00  0.91188000000E+02  0.91188000000E+02 0.  0.
    9900012    2    3    3    0    0 -0.31655730378E+02  0.14617172827E+02 -0.25843302465E+02  0.47787270864E+02  0.19999999179E+02 0.  0.
         12    1    3    3    0    0  0.31655730378E+02 -0.14617172827E+02  0.25843302465E+02  0.43400729136E+02  0.00000000000E+00 0. -1.
         11    1    4    4    0    0 -0.60859747466E+01  0.71055097891E+01  0.52987502228E+00  0.93705990085E+01  0.51100000000E-03 0. -1.
        -11    1    4    4    0    0 -0.18220364840E+02  0.56874619338E+01 -0.23599314216E+02  0.30352208320E+02  0.51100000000E-03 0.  1.
        -12    1    4    4    0    0 -0.73493907916E+01  0.18242011039E+01 -0.27738632707E+01  0.80644635358E+01  0.00000000000E+00 0.  1.
</event>
<event>
 8    1  0.6469014E-010  0.9118800E+02  0.7816164E-02  0.1184000E+00
        -11   -1    0    0    0    0  0.00000000000E+00  0.00000000000E+00  0.45593999997E+02  0.45594000000E+02  0.51100000000E-03 0. -1.
         11   -1    0    0    0    0 -0.00000000000E+00 -0.00000000000E+00 -0.45593999997E+02  0.45594000000E+02  0.51100000000E-03 0.  1.
         23    2    1    2    0    0 -0.17763568394E-14 -0.22204460493E-15  0.00000000000E+00  0.91188000000E+02  0.91188000000E+02 0.  0.
    9900012    2    3    3    0    0 -0.13939887186E+02 -0.65697395705E+00 -0.41095876939E+02  0.47787272231E+02  0.20000005409E+02 0.  0.
         12    1    3    3    0    0  0.13939887186E+02  0.65697395705E+00  0.41095876939E+02  0.43400727769E+02  0.00000000000E+00 0. -1.
         11    1    4    4    0    0  0.32016508383E+01 -0.20544565067E+01 -0.30091223831E+01  0.48503790992E+01  0.51100000000E-03 0. -1.
        -11    1    4    4    0    0 -0.82754432236E+01 -0.21009856059E+01 -0.26992144488E+02  0.28310297869E+02  0.51100000000E-03 0.  1.
        -12    1    4    4    0    0 -0.88660948005E+01  0.34984681555E+01 -0.11094610067E+02  0.14626595263E+02  0.00000000000E+00 0.  1.
</event>
<event>
 8    1  0.6469014E-010  0.9118800E+02  0.7816164E-02  0.1184000E+00
        -11   -1    0    0    0    0  0.00000000000E+00  0.00000000000E+00  0.45593999997E+02  0.45594000000E+02  0.51100000000E-03 0. -1.
         11   -1    0    0    0    0 -0.00000000000E+00 -0.00000000000E+00 -0.45593999997E+02  0.45594000000E+02  0.51100000000E-03 0.  1.
         23    2    1    2    0    0 -0.17763568394E-14  0.00000000000E+00  0.00000000000E+00  0.91188000000E+02  0.91188000000E+02 0.  0.
    9900012    2    3    3    0    0 -0.13282180334E+02 -0.29857044732E+02 -0.28561583356E+02  0.47787268689E+02  0.19999989260E+02 0.  0.
         12    1    3    3    0    0  0.13282180334E+02  0.29857044732E+02  0.28561583356E+02  0.43400731311E+02  0.00000000000E+00 0. -1.
         11    1    4    4    0    0 -0.10449573897E+02 -0.93124215664E+01 -0.76211770306E+01  0.15937287400E+02  0.51100000000E-03 0. -1.
        -11    1    4    4    0    0 -0.22550044545E+01 -0.94322003905E+01 -0.17828697062E+02  0.20295661814E+02  0.51100000000E-03 0.  1.
        -12    1    4    4    0    0 -0.57760198188E+00 -0.11112422775E+02 -0.31117092634E+01  0.11554319475E+02  0.00000000000E+00 0.  1.
</event>
<event>
 8    1  0.6469014E-010  0.9118800E+02  0.7816164E-02  0.1184000E+00
        -11   -1    0    0    0    0  0.00000000000E+00  0.00000000000E+00  0.45593999997E+02  0.45594000000E+02  0.51100000000E-03 0. -1.
         11   -1    0    0    0    0 -0.00000000000E+00 -0.00000000000E+00 -0.45593999997E+02  0.45594000000E+02  0.51100000000E-03 0.  1.
         23    2    1    2    0    0  0.00000000000E+00  0.00000000000E+00  0.00000000000E+00  0.91188000000E+02  0.91188000000E+02 0.  0.
    9900012    2    3    3    0    0  0.29163509296E+02 -0.31526263894E+02 -0.62616035416E+01  0.47787271107E+02  0.20000000284E+02 0.  0.
        -12    1    3    3    0    0 -0.29163509296E+02  0.31526263894E+02  0.62616035416E+01  0.43400728893E+02  0.00000000000E+00 0.  1.
         11    1    4    4    0    0  0.20875646138E+02 -0.27850328627E+02 -0.87830776231E+01  0.35896738837E+02  0.51100000000E-03 0. -1.
        -11    1    4    4    0    0  0.22887260033E+00  0.15301367065E+01  0.16419035504E+01  0.22560027788E+01  0.51100000000E-03 0.  1.
         12    1    4    4    0    0  0.80589905574E+01 -0.52060719738E+01  0.87957053113E+00  0.96345294914E+01  0.00000000000E+00 0. -1.
</event>
<event>
 8    1  0.6469014E-010  0.9118800E+02  0.7816164E-02  0.1184000E+00
        -11   -1    0    0    0    0  0.00000000000E+00  0.00000000000E+00  0.45593999997E+02  0.45594000000E+02  0.51100000000E-03 0. -1.
         11   -1    0    0    0    0 -0.00000000000E+00 -0.00000000000E+00 -0.45593999997E+02  0.45594000000E+02  0.51100000000E-03 0.  1.
         23    2    1    2    0    0  0.00000000000E+00  0.00000000000E+00  0.00000000000E+00  0.91188000000E+02  0.91188000000E+02 0.  0.
    9900012    2    3    3    0    0  0.26592930617E+02  0.23579549281E+02  0.24908710521E+02  0.47787274627E+02  0.20000016333E+02 0.  0.
        -12    1    3    3    0    0 -0.26592930617E+02 -0.23579549281E+02 -0.24908710521E+02  0.43400725373E+02  0.00000000000E+00 0.  1.
         11    1    4    4    0    0  0.26223544122E+02  0.16833709374E+02  0.14643772617E+02  0.34430918000E+02  0.51100000000E-03 0. -1.
        -11    1    4    4    0    0 -0.70158531910E+00 -0.57048500568E+00  0.23836335846E+01  0.25493890304E+01  0.51100000000E-03 0.  1.
         12    1    4    4    0    0  0.10709718148E+01  0.73163249130E+01  0.78813043189E+01  0.10806967596E+02  0.00000000000E+00 0. -1.
</event>
<event>
 8    1  0.6469014E-010  0.9118800E+02  0.7816164E-02  0.1184000E+00
        -11   -1    0    0    0    0  0.00000000000E+00  0.00000000000E+00  0.45593999997E+02  0.45594000000E+02  0.51100000000E-03 0. -1.
         11   -1    0    0    0    0 -0.00000000000E+00 -0.00000000000E+00 -0.45593999997E+02  0.45594000000E+02  0.51100000000E-03 0.  1.
         23    2    1    2    0    0 -0.35527136788E-14  0.00000000000E+00  0.35527136788E-14  0.91188000000E+02  0.91188000000E+02 0.  0.
    9900012    2    3    3    0    0  0.21032908732E+02  0.23180000052E+02 -0.30065389845E+02  0.47787270529E+02  0.19999997649E+02 0.  0.
         12    1    3    3    0    0 -0.21032908732E+02 -0.23180000052E+02  0.30065389845E+02  0.43400729471E+02  0.00000000000E+00 0. -1.
         11    1    4    4    0    0  0.13667813662E+02  0.17971018380E+02 -0.81428303057E+01  0.24001506569E+02  0.51100000000E-03 0. -1.
        -11    1    4    4    0    0  0.42343617692E+01  0.40944218079E+01 -0.13353139305E+02  0.14594534563E+02  0.51100000000E-03 0.  1.
         12    1    4    4    0    0  0.31307333003E+01  0.11145598633E+01 -0.85694202336E+01  0.91912293969E+01  0.00000000000E+00 0. -1.
</event>
<event>
 8    1  0.6469014E-010  0.9118800E+02  0.7816164E-02  0.1184000E+00
        -11   -1    0    0    0    0  0.00000000000E+00  0.00000000000E+00  0.45593999997E+02  0.45594000000E+02  0.51100000000E-03 0. -1.
         11   -1    0    0    0    0 -0.00000000000E+00 -0.00000000000E+00 -0.45593999997E+02  0.45594000000E+02  0.51100000000E-03 0.  1.
         23    2    1    2    0    0  0.00000000000E+00 -0.88817841970E-15  0.71054273576E-14  0.91188000000E+02  0.91188000000E+02 0.  0.
    9900012    2    3    3    0    0 -0.87269754982E+01  0.52389279811E+01  0.42190246583E+02  0.47787269885E+02  0.19999994716E+02 0.  0.
        -12    1    3    3    0    0  0.87269754982E+01 -0.52389279811E+01 -0.42190246583E+02  0.43400730115E+02  0.00000000000E+00 0.  1.
         11    1    4    4    0    0 -0.42278075028E+01 -0.37273884813E+01  0.25273300676E+02  0.25894159737E+02  0.51100000000E-03 0. -1.
        -11    1    4    4    0    0 -0.44400522466E+00  0.63533435412E+01  0.27679443450E+01  0.69443236496E+01  0.51100000000E-03 0.  1.
         12    1    4    4    0    0 -0.40551627707E+01  0.26129729211E+01  0.14149001562E+02  0.14948786499E+02  0.00000000000E+00 0. -1.
</event>
<event>
 8    1  0.6469014E-010  0.9118800E+02  0.7816164E-02  0.1184000E+00
        -11   -1    0    0    0    0  0.00000000000E+00  0.00000000000E+00  0.45593999997E+02  0.45594000000E+02  0.51100000000E-03 0. -1.
         11   -1    0    0    0    0 -0.00000000000E+00 -0.00000000000E+00 -0.45593999997E+02  0.45594000000E+02  0.51100000000E-03 0.  1.
         23    2    1    2    0    0  0.44408920985E-15  0.00000000000E+00  0.00000000000E+00  0.91188000000E+02  0.91188000000E+02 0.  0.
    9900012    2    3    3    0    0 -0.39288502662E+01 -0.38982420451E+02  0.18669689059E+02  0.47787282746E+02  0.20000053352E+02 0.  0.
        -12    1    3    3    0    0  0.39288502662E+01  0.38982420451E+02 -0.18669689059E+02  0.43400717254E+02  0.00000000000E+00 0.  1.
         11    1    4    4    0    0 -0.19864680806E+01 -0.27858706729E+02  0.13349268056E+02  0.30955719244E+02  0.51100000000E-03 0. -1.
        -11    1    4    4    0    0 -0.38454773316E+01 -0.24823512076E+01 -0.23285319551E+01  0.51353504995E+01  0.51100000000E-03 0.  1.
         12    1    4    4    0    0  0.19030951461E+01 -0.86413625143E+01  0.76489529576E+01  0.11696213002E+02  0.00000000000E+00 0. -1.
</event>
<event>
 8    1  0.6469014E-010  0.9118800E+02  0.7816164E-02  0.1184000E+00
        -11   -1    0    0    0    0  0.00000000000E+00  0.00000000000E+00  0.45593999997E+02  0.45594000000E+02  0.51100000000E-03 0. -1.
         11   -1    0    0    0    0 -0.00000000000E+00 -0.00000000000E+00 -0.45593999997E+02  0.45594000000E+02  0.51100000000E-03 0.  1.
         23    2    1    2    0    0  0.00000000000E+00  0.00000000000E+00  0.00000000000E+00  0.91188000000E+02  0.91188000000E+02 0.  0.
    9900012    2    3    3    0    0  0.12907031177E+02  0.35100433937E+02 -0.22022518077E+02  0.47787271679E+02  0.20000002894E+02 0.  0.
         12    1    3    3    0    0 -0.12907031177E+02 -0.35100433937E+02  0.22022518077E+02  0.43400728321E+02  0.00000000000E+00 0. -1.
         11    1    4    4    0    0  0.17496592194E+01  0.59000707517E+01 -0.14144492228E+02  0.15425265084E+02  0.51100000000E-03 0. -1.
        -11    1    4    4    0    0  0.46346559520E+01  0.91465826175E+01 -0.17526057857E+01  0.10402482236E+02  0.51100000000E-03 0.  1.
         12    1    4    4    0    0  0.65227160051E+01  0.20053780567E+02 -0.61254200633E+01  0.21959524359E+02  0.00000000000E+00 0. -1.
</event>
<event>
 8    1  0.6469014E-010  0.9118800E+02  0.7816164E-02  0.1184000E+00
        -11   -1    0    0    0    0  0.00000000000E+00  0.00000000000E+00  0.45593999997E+02  0.45594000000E+02  0.51100000000E-03 0. -1.
         11   -1    0    0    0    0 -0.00000000000E+00 -0.00000000000E+00 -0.45593999997E+02  0.45594000000E+02  0.51100000000E-03 0.  1.
         23    2    1    2    0    0  0.35527136788E-14  0.00000000000E+00 -0.71054273576E-14  0.91188000000E+02  0.91188000000E+02 0.  0.
    9900012    2    3    3    0    0 -0.20406766374E+02 -0.13478413613E+02  0.35854143941E+02  0.47787269763E+02  0.19999994155E+02 0.  0.
        -12    1    3    3    0    0  0.20406766374E+02  0.13478413613E+02 -0.35854143941E+02  0.43400730237E+02  0.00000000000E+00 0.  1.
         11    1    4    4    0    0 -0.49687411705E+01 -0.36822974271E+01  0.60047033145E+01  0.86199863873E+01  0.51100000000E-03 0. -1.
        -11    1    4    4    0    0 -0.82781693380E+00 -0.10511800987E+02  0.14882690958E+02  0.18239455344E+02  0.51100000000E-03 0.  1.
        -12    1    4    4    0    0 -0.14610208270E+02  0.71568480095E+00  0.14966749669E+02  0.20927828031E+02  0.00000000000E+00 0.  1.
</event>
<event>
 8    1  0.6469014E-010  0.9118800E+02  0.7816164E-02  0.1184000E+00
        -11   -1    0    0    0    0  0.00000000000E+00  0.00000000000E+00  0.45593999997E+02  0.45594000000E+02  0.51100000000E-03 0. -1.
         11   -1    0    0    0    0 -0.00000000000E+00 -0.00000000000E+00 -0.45593999997E+02  0.45594000000E+02  0.51100000000E-03 0.  1.
         23    2    1    2    0    0 -0.17763568394E-14  0.00000000000E+00  0.00000000000E+00  0.91188000000E+02  0.91188000000E+02 0.  0.
    9900012    2    3    3    0    0  0.13457694586E+02 -0.63030884084E+01 -0.40777230926E+02  0.47787296906E+02  0.20000117915E+02 0.  0.
         12    1    3    3    0    0 -0.13457694586E+02  0.63030884084E+01  0.40777230926E+02  0.43400703094E+02  0.00000000000E+00 0. -1.
         11    1    4    4    0    0  0.34494741760E+01  0.40502537219E+01 -0.91545118008E+01  0.10588130802E+02  0.51100000000E-03 0. -1.
        -11    1    4    4    0    0  0.76833720376E+01 -0.84763344362E+01 -0.94856693781E+01  0.14861371914E+02  0.51100000000E-03 0.  1.
        -12    1    4    4    0    0  0.23248483722E+01 -0.18770076941E+01 -0.22137049747E+02  0.22337794191E+02  0.00000000000E+00 0.  1.
</event>
<event>
 8    1  0.6469014E-010  0.9118800E+02  0.7816164E-02  0.1184000E+00
        -11   -1    0    0    0    0  0.00000000000E+00  0.00000000000E+00  0.45593999997E+02  0.45594000000E+02  0.51100000000E-03 0. -1.
         11   -1    0    0    0    0 -0.00000000000E+00 -0.00000000000E+00 -0.45593999997E+02  0.45594000000E+02  0.51100000000E-03 0.  1.
         23    2    1    2    0    0  0.00000000000E+00  0.00000000000E+00  0.35527136788E-14  0.91188000000E+02  0.91188000000E+02 0.  0.
    9900012    2    3    3    0    0 -0.35657152727E+02 -0.10585485644E+02  0.22363741296E+02  0.47787286047E+02  0.20000068401E+02 0.  0.
        -12    1    3    3    0    0  0.35657152727E+02  0.10585485644E+02 -0.22363741296E+02  0.43400713953E+02  0.00000000000E+00 0.  1.
         11    1    4    4    0    0 -0.35550701222E+02 -0.75659057675E+01  0.20034180840E+02  0.41502574494E+02  0.51100000000E-03 0. -1.
        -11    1    4    4    0    0  0.19037180466E+01 -0.31447578186E+00 -0.37238024638E+00  0.19651220643E+01  0.51100000000E-03 0.  1.
         12    1    4    4    0    0 -0.20101695522E+01 -0.27051040948E+01  0.27019407021E+01  0.43195894886E+01  0.00000000000E+00 0. -1.
</event>
<event>
 8    1  0.6469014E-010  0.9118800E+02  0.7816164E-02  0.1184000E+00
        -11   -1    0    0    0    0  0.00000000000E+00  0.00000000000E+00  0.45593999997E+02  0.45594000000E+02  0.51100000000E-03 0. -1.
         11   -1    0    0    0    0 -0.00000000000E+00 -0.00000000000E+00 -0.45593999997E+02  0.45594000000E+02  0.51100000000E-03 0.  1.
         23    2    1    2    0    0  0.00000000000E+00  0.00000000000E+00  0.35527136788E-14  0.91188000000E+02  0.91188000000E+02 0.  0.
    9900012    2    3    3    0    0  0.30475366955E+02 -0.12214799502E+02  0.28384398474E+02  0.47787269653E+02  0.19999993655E+02 0.  0.
        -12    1    3    3    0    0 -0.30475366955E+02  0.12214799502E+02 -0.28384398474E+02  0.43400730347E+02  0.00000000000E+00 0.  1.
         11    1    4    4    0    0  0.23715366146E+02 -0.16063884278E+02  0.25230993343E+02  0.38171586224E+02  0.51100000000E-03 0. -1.
        -11    1    4    4    0    0  0.76844232886E+00  0.29202421029E+01  0.11198252399E+01  0.32206096289E+01  0.51100000000E-03 0.  1.
         12    1    4    4    0    0  0.59915584806E+01  0.92884267284E+00  0.20335798917E+01  0.63950738004E+01  0.00000000000E+00 0. -1.
</event>
<event>
 8    1  0.6469014E-010  0.9118800E+02  0.7816164E-02  0.1184000E+00
        -11   -1    0    0    0    0  0.00000000000E+00  0.00000000000E+00  0.45593999997E+02  0.45594000000E+02  0.51100000000E-03 0. -1.
         11   -1    0    0    0    0 -0.00000000000E+00 -0.00000000000E+00 -0.45593999997E+02  0.45594000000E+02  0.51100000000E-03 0.  1.
         23    2    1    2    0    0  0.00000000000E+00  0.71054273576E-14  0.00000000000E+00  0.91188000000E+02  0.91188000000E+02 0.  0.
    9900012    2    3    3    0    0 -0.54406293645E+01  0.32202194904E+02 -0.28583934423E+02  0.47787272914E+02  0.20000008525E+02 0.  0.
         12    1    3    3    0    0  0.54406293645E+01 -0.32202194904E+02  0.28583934423E+02  0.43400727086E+02  0.00000000000E+00 0. -1.
         11    1    4    4    0    0 -0.82521849690E+01  0.28202213277E+02 -0.19604625655E+02  0.35324279721E+02  0.51100000000E-03 0. -1.
        -11    1    4    4    0    0 -0.92106886104E+00 -0.16319281635E+01 -0.16821004352E+01  0.25181381044E+01  0.51100000000E-03 0.  1.
         12    1    4    4    0    0  0.37326244655E+01  0.56319097899E+01 -0.72972083326E+01  0.99448550885E+01  0.00000000000E+00 0. -1.
</event>
<event>
 8    1  0.6469014E-010  0.9118800E+02  0.7816164E-02  0.1184000E+00
        -11   -1    0    0    0    0  0.00000000000E+00  0.00000000000E+00  0.45593999997E+02  0.45594000000E+02  0.51100000000E-03 0. -1.
         11   -1    0    0    0    0 -0.00000000000E+00 -0.00000000000E+00 -0.45593999997E+02  0.45594000000E+02  0.51100000000E-03 0.  1.
         23    2    1    2    0    0  0.00000000000E+00  0.00000000000E+00  0.00000000000E+00  0.91188000000E+02  0.91188000000E+02 0.  0.
    9900012    2    3    3    0    0 -0.36115233476E+02 -0.11822752584E+02 -0.20965129066E+02  0.47787260324E+02  0.19999951121E+02 0.  0.
         12    1    3    3    0    0  0.36115233476E+02  0.11822752584E+02  0.20965129066E+02  0.43400739676E+02  0.00000000000E+00 0. -1.
         11    1    4    4    0    0 -0.13491439771E+02  0.25350855203E+01 -0.85440014319E+01  0.16169278476E+02  0.51100000000E-03 0. -1.
        -11    1    4    4    0    0 -0.23420366591E+02 -0.12140610296E+02 -0.99243313322E+01  0.28185108520E+02  0.51100000000E-03 0.  1.
        -12    1    4    4    0    0  0.79657288611E+00 -0.22172278086E+01 -0.24967963014E+01  0.34328733284E+01  0.00000000000E+00 0.  1.
</event>
<event>
 8    1  0.6469014E-010  0.9118800E+02  0.7816164E-02  0.1184000E+00
        -11   -1    0    0    0    0  0.00000000000E+00  0.00000000000E+00  0.45593999997E+02  0.45594000000E+02  0.51100000000E-03 0. -1.
         11   -1    0    0    0    0 -0.00000000000E+00 -0.00000000000E+00 -0.45593999997E+02  0.45594000000E+02  0.51100000000E-03 0.  1.
         23    2    1    2    0    0  0.00000000000E+00  0.00000000000E+00  0.00000000000E+00  0.91188000000E+02  0.91188000000E+02 0.  0.
    9900012    2    3    3    0    0 -0.80339063027E+01 -0.24085349320E+02  0.35199082255E+02  0.47787273117E+02  0.20000009450E+02 0.  0.
        -12    1    3    3    0    0  0.80339063027E+01  0.24085349320E+02 -0.35199082255E+02  0.43400726883E+02  0.00000000000E+00 0.  1.
         11    1    4    4    0    0 -0.11702232742E+00 -0.21513190673E+02  0.29466097418E+02  0.36483996005E+02  0.51100000000E-03 0. -1.
        -11    1    4    4    0    0 -0.81374447092E+00  0.10018257534E+01 -0.29634965490E+00  0.13242576347E+01  0.51100000000E-03 0.  1.
         12    1    4    4    0    0 -0.71031395043E+01 -0.35739844007E+01  0.60293344918E+01  0.99790194773E+01  0.00000000000E+00 0. -1.
</event>
<event>
 8    1  0.6469014E-010  0.9118800E+02  0.7816164E-02  0.1184000E+00
        -11   -1    0    0    0    0  0.00000000000E+00  0.00000000000E+00  0.45593999997E+02  0.45594000000E+02  0.51100000000E-03 0. -1.
         11   -1    0    0    0    0 -0.00000000000E+00 -0.00000000000E+00 -0.45593999997E+02  0.45594000000E+02  0.51100000000E-03 0.  1.
         23    2    1    2    0    0  0.00000000000E+00  0.33306690739E-15  0.71054273576E-14  0.91188000000E+02  0.91188000000E+02 0.  0.
    9900012    2    3    3    0    0  0.20047567037E+02 -0.89917758065E+00  0.38482581315E+02  0.47787279625E+02  0.20000039121E+02 0.  0.
        -12    1    3    3    0    0 -0.20047567037E+02  0.89917758065E+00 -0.38482581315E+02  0.43400720375E+02  0.00000000000E+00 0.  1.
         11    1    4    4    0    0  0.19439729399E+01  0.16560763402E+01  0.19338911581E+02  0.19506796790E+02  0.51100000000E-03 0. -1.
        -11    1    4    4    0    0  0.18526224204E+02 -0.40124714053E+01  0.18854340397E+02  0.26735875936E+02  0.51100000000E-03 0.  1.
        -12    1    4    4    0    0 -0.42263010691E+00  0.14572174844E+01  0.28932933786E+00  0.15446068981E+01  0.00000000000E+00 0.  1.
</event>
<event>
 8    1  0.6469014E-010  0.9118800E+02  0.7816164E-02  0.1184000E+00
        -11   -1    0    0    0    0  0.00000000000E+00  0.00000000000E+00  0.45593999997E+02  0.45594000000E+02  0.51100000000E-03 0. -1.
         11   -1    0    0    0    0 -0.00000000000E+00 -0.00000000000E+00 -0.45593999997E+02  0.45594000000E+02  0.51100000000E-03 0.  1.
         23    2    1    2    0    0  0.88817841970E-15  0.88817841970E-15  0.00000000000E+00  0.91188000000E+02  0.91188000000E+02 0.  0.
    9900012    2    3    3    0    0 -0.77617128812E+01 -0.14816285234E+01 -0.42675327555E+02  0.47787274294E+02  0.20000014815E+02 0.  0.
         12    1    3    3    0    0  0.77617128812E+01  0.14816285234E+01  0.42675327555E+02  0.43400725706E+02  0.00000000000E+00 0. -1.
         11    1    4    4    0    0 -0.93974942260E+01  0.34147051116E+01 -0.31056396639E+02  0.32626260607E+02  0.51100000000E-03 0. -1.
        -11    1    4    4    0    0  0.15096763383E+01 -0.50933327045E+01 -0.12851633025E+02  0.13906316275E+02  0.51100000000E-03 0.  1.
         12    1    4    4    0    0  0.12610500639E+00  0.19699906947E+00  0.12327021088E+01  0.12546974118E+01  0.00000000000E+00 0. -1.
</event>
<event>
 8    1  0.6469014E-010  0.9118800E+02  0.7816164E-02  0.1184000E+00
        -11   -1    0    0    0    0  0.00000000000E+00  0.00000000000E+00  0.45593999997E+02  0.45594000000E+02  0.51100000000E-03 0. -1.
         11   -1    0    0    0    0 -0.00000000000E+00 -0.00000000000E+00 -0.45593999997E+02  0.45594000000E+02  0.51100000000E-03 0.  1.
         23    2    1    2    0    0  0.00000000000E+00  0.00000000000E+00  0.00000000000E+00  0.91188000000E+02  0.91188000000E+02 0.  0.
    9900012    2    3    3    0    0 -0.23269393230E+02  0.55170730459E+01  0.36217678138E+02  0.47787274592E+02  0.20000016173E+02 0.  0.
        -12    1    3    3    0    0  0.23269393230E+02 -0.55170730459E+01 -0.36217678138E+02  0.43400725408E+02  0.00000000000E+00 0.  1.
         11    1    4    4    0    0 -0.15200271443E+02  0.43941022059E+01  0.31493102990E+02  0.35244459456E+02  0.51100000000E-03 0. -1.
        -11    1    4    4    0    0  0.16742714788E+01  0.45988084985E+00  0.10515957325E+00  0.17394637616E+01  0.51100000000E-03 0.  1.
         12    1    4    4    0    0 -0.97433932658E+01  0.66308999007E+00  0.46194155746E+01  0.10803351374E+02  0.00000000000E+00 0. -1.
</event>
<event>
 8    1  0.6469014E-010  0.9118800E+02  0.7816164E-02  0.1184000E+00
        -11   -1    0    0    0    0  0.00000000000E+00  0.00000000000E+00  0.45593999997E+02  0.45594000000E+02  0.51100000000E-03 0. -1.
         11   -1    0    0    0    0 -0.00000000000E+00 -0.00000000000E+00 -0.45593999997E+02  0.45594000000E+02  0.51100000000E-03 0.  1.
         23    2    1    2    0    0  0.00000000000E+00  0.00000000000E+00  0.00000000000E+00  0.91188000000E+02  0.91188000000E+02 0.  0.
    9900012    2    3    3    0    0 -0.22684448818E+02  0.21934034625E+02  0.29798271428E+02  0.47787273357E+02  0.20000010543E+02 0.  0.
        -12    1    3    3    0    0  0.22684448818E+02 -0.21934034625E+02 -0.29798271428E+02  0.43400726643E+02  0.00000000000E+00 0.  1.
         11    1    4    4    0    0 -0.65259570393E+01  0.69229488562E+01  0.74786604633E+01  0.12101475064E+02  0.51100000000E-03 0. -1.
        -11    1    4    4    0    0 -0.13379914305E+02  0.12287642570E+02  0.25042014930E+02  0.30937207029E+02  0.51100000000E-03 0.  1.
        -12    1    4    4    0    0 -0.27785774735E+01  0.27234431989E+01 -0.27224039659E+01  0.47485912635E+01  0.00000000000E+00 0.  1.
</event>
<event>
 8    1  0.6469014E-010  0.9118800E+02  0.7816164E-02  0.1184000E+00
        -11   -1    0    0    0    0  0.00000000000E+00  0.00000000000E+00  0.45593999997E+02  0.45594000000E+02  0.51100000000E-03 0.  1.
         11   -1    0    0    0    0 -0.00000000000E+00 -0.00000000000E+00 -0.45593999997E+02  0.45594000000E+02  0.51100000000E-03 0. -1.
         23    2    1    2    0    0  0.44408920985E-15 -0.71054273576E-14  0.00000000000E+00  0.91188000000E+02  0.91188000000E+02 0.  0.
    9900012    2    3    3    0    0  0.32613324613E+01 -0.43079831559E+02  0.41370385216E+01  0.47787271155E+02  0.20000000504E+02 0.  0.
         12    1    3    3    0    0 -0.32613324613E+01  0.43079831559E+02 -0.41370385216E+01  0.43400728845E+02  0.00000000000E+00 0. -1.
         11    1    4    4    0    0  0.36548793676E+00  0.31045848757E+00 -0.35585057422E+00  0.59715642567E+00  0.51100000000E-03 0. -1.
        -11    1    4    4    0    0 -0.28856209926E+01 -0.71126000143E+01 -0.51089774716E+01  0.92204955692E+01  0.51100000000E-03 0.  1.
        -12    1    4    4    0    0  0.57814655171E+01 -0.36277690032E+02  0.96018665674E+01  0.37969619160E+02  0.00000000000E+00 0.  1.
</event>
<event>
 8    1  0.6469014E-010  0.9118800E+02  0.7816164E-02  0.1184000E+00
        -11   -1    0    0    0    0  0.00000000000E+00  0.00000000000E+00  0.45593999997E+02  0.45594000000E+02  0.51100000000E-03 0. -1.
         11   -1    0    0    0    0 -0.00000000000E+00 -0.00000000000E+00 -0.45593999997E+02  0.45594000000E+02  0.51100000000E-03 0.  1.
         23    2    1    2    0    0  0.00000000000E+00  0.00000000000E+00  0.00000000000E+00  0.91188000000E+02  0.91188000000E+02 0.  0.
    9900012    2    3    3    0    0 -0.38706122933E+02 -0.95255272770E+01 -0.17167524045E+02  0.47787268391E+02  0.19999987901E+02 0.  0.
         12    1    3    3    0    0  0.38706122933E+02  0.95255272770E+01  0.17167524045E+02  0.43400731609E+02  0.00000000000E+00 0. -1.
         11    1    4    4    0    0 -0.16149355327E+02 -0.53947409920E+00 -0.24410521207E+01  0.16341708770E+02  0.51100000000E-03 0. -1.
        -11    1    4    4    0    0 -0.18833066837E+02 -0.63430789848E+01 -0.17173448486E+02  0.26264927006E+02  0.51100000000E-03 0.  1.
        -12    1    4    4    0    0 -0.37237007688E+01 -0.26429741929E+01  0.24469765619E+01  0.51806326153E+01  0.00000000000E+00 0.  1.
</event>
<event>
 8    1  0.6469014E-010  0.9118800E+02  0.7816164E-02  0.1184000E+00
        -11   -1    0    0    0    0  0.00000000000E+00  0.00000000000E+00  0.45593999997E+02  0.45594000000E+02  0.51100000000E-03 0.  1.
         11   -1    0    0    0    0 -0.00000000000E+00 -0.00000000000E+00 -0.45593999997E+02  0.45594000000E+02  0.51100000000E-03 0. -1.
         23    2    1    2    0    0  0.00000000000E+00  0.00000000000E+00  0.00000000000E+00  0.91188000000E+02  0.91188000000E+02 0.  0.
    9900012    2    3    3    0    0  0.84586684897E+01 -0.26748152002E+02  0.33115105738E+02  0.47787274935E+02  0.20000017740E+02 0.  0.
        -12    1    3    3    0    0 -0.84586684897E+01  0.26748152002E+02 -0.33115105738E+02  0.43400725065E+02  0.00000000000E+00 0.  1.
         11    1    4    4    0    0 -0.13608668310E+01 -0.96898136278E+01  0.14420917516E+02  0.17427200261E+02  0.51100000000E-03 0. -1.
        -11    1    4    4    0    0  0.66900889701E+01 -0.16343962219E+02  0.83602860869E+01  0.19539108863E+02  0.51100000000E-03 0.  1.
        -12    1    4    4    0    0  0.31294463506E+01 -0.71437615470E+00  0.10333902135E+02  0.10820965811E+02  0.00000000000E+00 0.  1.
</event>
<event>
 8    1  0.6469014E-010  0.9118800E+02  0.7816164E-02  0.1184000E+00
        -11   -1    0    0    0    0  0.00000000000E+00  0.00000000000E+00  0.45593999997E+02  0.45594000000E+02  0.51100000000E-03 0. -1.
         11   -1    0    0    0    0 -0.00000000000E+00 -0.00000000000E+00 -0.45593999997E+02  0.45594000000E+02  0.51100000000E-03 0.  1.
         23    2    1    2    0    0  0.35527136788E-14  0.00000000000E+00  0.00000000000E+00  0.91188000000E+02  0.91188000000E+02 0.  0.
    9900012    2    3    3    0    0  0.27691112684E+02 -0.25665724475E+01 -0.33320238512E+02  0.47787270625E+02  0.19999998087E+02 0.  0.
         12    1    3    3    0    0 -0.27691112684E+02  0.25665724475E+01  0.33320238512E+02  0.43400729375E+02  0.00000000000E+00 0. -1.
         11    1    4    4    0    0  0.12587396160E+02  0.53321173399E+01 -0.10084167859E+02  0.16987185143E+02  0.51100000000E-03 0. -1.
        -11    1    4    4    0    0  0.96326394835E+01 -0.61150162677E+01 -0.22189703137E+02  0.24951234297E+02  0.51100000000E-03 0.  1.
        -12    1    4    4    0    0  0.54710770406E+01 -0.17836735197E+01 -0.10463675161E+01  0.58488511853E+01  0.00000000000E+00 0.  1.
</event>
<event>
 8    1  0.6469014E-010  0.9118800E+02  0.7816164E-02  0.1184000E+00
        -11   -1    0    0    0    0  0.00000000000E+00  0.00000000000E+00  0.45593999997E+02  0.45594000000E+02  0.51100000000E-03 0. -1.
         11   -1    0    0    0    0 -0.00000000000E+00 -0.00000000000E+00 -0.45593999997E+02  0.45594000000E+02  0.51100000000E-03 0.  1.
         23    2    1    2    0    0  0.00000000000E+00  0.88817841970E-15  0.14210854715E-13  0.91188000000E+02  0.91188000000E+02 0.  0.
    9900012    2    3    3    0    0 -0.17093064286E+02 -0.49436644942E+01 -0.39585484763E+02  0.47787271098E+02  0.20000000243E+02 0.  0.
         12    1    3    3    0    0  0.17093064286E+02  0.49436644942E+01  0.39585484763E+02  0.43400728902E+02  0.00000000000E+00 0. -1.
         11    1    4    4    0    0 -0.54764750031E+01 -0.28074909416E+01 -0.16833090613E+01  0.63802283269E+01  0.51100000000E-03 0. -1.
        -11    1    4    4    0    0 -0.91916300907E+01  0.37292295791E+01 -0.27349181970E+02  0.29092455580E+02  0.51100000000E-03 0.  1.
         12    1    4    4    0    0 -0.24249591927E+01 -0.58654031317E+01 -0.10552993732E+02  0.12314587191E+02  0.00000000000E+00 0. -1.
</event>
<event>
 8    1  0.6469014E-010  0.9118800E+02  0.7816164E-02  0.1184000E+00
        -11   -1    0    0    0    0  0.00000000000E+00  0.00000000000E+00  0.45593999997E+02  0.45594000000E+02  0.51100000000E-03 0. -1.
         11   -1    0    0    0    0 -0.00000000000E+00 -0.00000000000E+00 -0.45593999997E+02  0.45594000000E+02  0.51100000000E-03 0.  1.
         23    2    1    2    0    0  0.00000000000E+00  0.00000000000E+00  0.00000000000E+00  0.91188000000E+02  0.91188000000E+02 0.  0.
    9900012    2    3    3    0    0 -0.48491802950E+00  0.36029985141E+02  0.24191492242E+02  0.47787271070E+02  0.20000000117E+02 0.  0.
        -12    1    3    3    0    0  0.48491802950E+00 -0.36029985141E+02 -0.24191492242E+02  0.43400728930E+02  0.00000000000E+00 0.  1.
         11    1    4    4    0    0  0.39919000806E+01  0.26595376124E+02  0.15423401132E+02  0.31002106383E+02  0.51100000000E-03 0. -1.
        -11    1    4    4    0    0 -0.21319881238E+01 -0.15430901865E+01  0.15535216067E+00  0.26364057425E+01  0.51100000000E-03 0.  1.
        -12    1    4    4    0    0 -0.23448299863E+01  0.10977699203E+02  0.86127389495E+01  0.14148758945E+02  0.00000000000E+00 0.  1.
</event>
<event>
 8    1  0.6469014E-010  0.9118800E+02  0.7816164E-02  0.1184000E+00
        -11   -1    0    0    0    0  0.00000000000E+00  0.00000000000E+00  0.45593999997E+02  0.45594000000E+02  0.51100000000E-03 0. -1.
         11   -1    0    0    0    0 -0.00000000000E+00 -0.00000000000E+00 -0.45593999997E+02  0.45594000000E+02  0.51100000000E-03 0.  1.
         23    2    1    2    0    0 -0.11102230246E-15  0.35527136788E-14  0.00000000000E+00  0.91188000000E+02  0.91188000000E+02 0.  0.
    9900012    2    3    3    0    0  0.75514747638E+00  0.22163801356E+02  0.37307093213E+02  0.47787267952E+02  0.19999985902E+02 0.  0.
        -12    1    3    3    0    0 -0.75514747638E+00 -0.22163801356E+02 -0.37307093213E+02  0.43400732048E+02  0.00000000000E+00 0.  1.
         11    1    4    4    0    0 -0.49306907402E+01  0.15213528230E+02  0.19639647198E+02  0.25327433639E+02  0.51100000000E-03 0. -1.
        -11    1    4    4    0    0 -0.90848662107E+00 -0.10064144366E-01  0.10372234070E+02  0.10411949341E+02  0.51100000000E-03 0.  1.
         12    1    4    4    0    0  0.65943248377E+01  0.69603372704E+01  0.72952119453E+01  0.12047884972E+02  0.00000000000E+00 0. -1.
</event>
<event>
 8    1  0.6469014E-010  0.9118800E+02  0.7816164E-02  0.1184000E+00
        -11   -1    0    0    0    0  0.00000000000E+00  0.00000000000E+00  0.45593999997E+02  0.45594000000E+02  0.51100000000E-03 0. -1.
         11   -1    0    0    0    0 -0.00000000000E+00 -0.00000000000E+00 -0.45593999997E+02  0.45594000000E+02  0.51100000000E-03 0.  1.
         23    2    1    2    0    0  0.00000000000E+00  0.17763568394E-14 -0.71054273576E-14  0.91188000000E+02  0.91188000000E+02 0.  0.
    9900012    2    3    3    0    0  0.38319711136E+01 -0.96405901962E+01  0.42142578304E+02  0.47787287009E+02  0.20000072790E+02 0.  0.
        -12    1    3    3    0    0 -0.38319711136E+01  0.96405901962E+01 -0.42142578304E+02  0.43400712991E+02  0.00000000000E+00 0.  1.
         11    1    4    4    0    0 -0.15243799595E+00 -0.63293536464E+01  0.28273169789E+01  0.69338067815E+01  0.51100000000E-03 0. -1.
        -11    1    4    4    0    0  0.25223726346E+01  0.34008414119E+01  0.14701362630E+02  0.15298959098E+02  0.51100000000E-03 0.  1.
         12    1    4    4    0    0  0.14620364750E+01 -0.67120779618E+01  0.24613898695E+02  0.25554521130E+02  0.00000000000E+00 0. -1.
</event>
<event>
 8    1  0.6469014E-010  0.9118800E+02  0.7816164E-02  0.1184000E+00
        -11   -1    0    0    0    0  0.00000000000E+00  0.00000000000E+00  0.45593999997E+02  0.45594000000E+02  0.51100000000E-03 0. -1.
         11   -1    0    0    0    0 -0.00000000000E+00 -0.00000000000E+00 -0.45593999997E+02  0.45594000000E+02  0.51100000000E-03 0.  1.
         23    2    1    2    0    0  0.00000000000E+00 -0.35527136788E-14  0.00000000000E+00  0.91188000000E+02  0.91188000000E+02 0.  0.
    9900012    2    3    3    0    0 -0.33635436008E+02 -0.23503459197E+02 -0.14137470588E+02  0.47787271615E+02  0.20000002602E+02 0.  0.
         12    1    3    3    0    0  0.33635436008E+02  0.23503459197E+02  0.14137470588E+02  0.43400728385E+02  0.00000000000E+00 0. -1.
         11    1    4    4    0    0 -0.91701847187E+01 -0.24759422255E+01 -0.35344983597E+01  0.10134853556E+02  0.51100000000E-03 0.  1.
        -11    1    4    4    0    0 -0.24450260896E+00  0.45313893412E+00 -0.47205224675E+01  0.47485207220E+01  0.51100000000E-03 0. -1.
        -12    1    4    4    0    0 -0.24220748681E+02 -0.21480655906E+02 -0.58824497610E+01  0.32903897337E+02  0.00000000000E+00 0.  1.
</event>
<event>
 8    1  0.6469014E-010  0.9118800E+02  0.7816164E-02  0.1184000E+00
        -11   -1    0    0    0    0  0.00000000000E+00  0.00000000000E+00  0.45593999997E+02  0.45594000000E+02  0.51100000000E-03 0.  1.
         11   -1    0    0    0    0 -0.00000000000E+00 -0.00000000000E+00 -0.45593999997E+02  0.45594000000E+02  0.51100000000E-03 0. -1.
         23    2    1    2    0    0  0.00000000000E+00 -0.83266726847E-16 -0.44408920985E-15  0.91188000000E+02  0.91188000000E+02 0.  0.
    9900012    2    3    3    0    0  0.43377874995E+02 -0.23437289373E+00 -0.13881030796E+01  0.47787288025E+02  0.20000077423E+02 0.  0.
         12    1    3    3    0    0 -0.43377874995E+02  0.23437289373E+00  0.13881030796E+01  0.43400711975E+02  0.00000000000E+00 0. -1.
         11    1    4    4    0    0  0.19042277220E+02  0.44085153417E+01 -0.60409010964E+01  0.20458147902E+02  0.51100000000E-03 0. -1.
        -11    1    4    4    0    0  0.10159610003E+02 -0.72840921637E+01  0.25167962026E+01  0.12751860157E+02  0.51100000000E-03 0.  1.
        -12    1    4    4    0    0  0.14175987771E+02  0.26412039282E+01  0.21360018142E+01  0.14577279967E+02  0.00000000000E+00 0.  1.
</event>
<event>
 8    1  0.6469014E-010  0.9118800E+02  0.7816164E-02  0.1184000E+00
        -11   -1    0    0    0    0  0.00000000000E+00  0.00000000000E+00  0.45593999997E+02  0.45594000000E+02  0.51100000000E-03 0. -1.
         11   -1    0    0    0    0 -0.00000000000E+00 -0.00000000000E+00 -0.45593999997E+02  0.45594000000E+02  0.51100000000E-03 0.  1.
         23    2    1    2    0    0 -0.35527136788E-14  0.35527136788E-14  0.35527136788E-14  0.91188000000E+02  0.91188000000E+02 0.  0.
    9900012    2    3    3    0    0  0.22942917992E+02 -0.21990354778E+02 -0.29557913617E+02  0.47787269054E+02  0.19999990925E+02 0.  0.
         12    1    3    3    0    0 -0.22942917992E+02  0.21990354778E+02  0.29557913617E+02  0.43400730946E+02  0.00000000000E+00 0. -1.
         11    1    4    4    0    0  0.31273785544E+01 -0.10302579446E+01 -0.20951540462E+01  0.39027680937E+01  0.51100000000E-03 0. -1.
        -11    1    4    4    0    0  0.21931582357E+02 -0.12794302614E+02 -0.23369664554E+02  0.34508400509E+02  0.51100000000E-03 0.  1.
        -12    1    4    4    0    0 -0.21160429188E+01 -0.81657942190E+01 -0.40930950169E+01  0.93761004516E+01  0.00000000000E+00 0.  1.
</event>
<event>
 8    1  0.6469014E-010  0.9118800E+02  0.7816164E-02  0.1184000E+00
        -11   -1    0    0    0    0  0.00000000000E+00  0.00000000000E+00  0.45593999997E+02  0.45594000000E+02  0.51100000000E-03 0. -1.
         11   -1    0    0    0    0 -0.00000000000E+00 -0.00000000000E+00 -0.45593999997E+02  0.45594000000E+02  0.51100000000E-03 0.  1.
         23    2    1    2    0    0  0.17763568394E-14  0.35527136788E-14  0.00000000000E+00  0.91188000000E+02  0.91188000000E+02 0.  0.
    9900012    2    3    3    0    0 -0.15608919217E+02 -0.29642286883E+02  0.27592018082E+02  0.47787274284E+02  0.20000014771E+02 0.  0.
        -12    1    3    3    0    0  0.15608919217E+02  0.29642286883E+02 -0.27592018082E+02  0.43400725716E+02  0.00000000000E+00 0.  1.
         11    1    4    4    0    0 -0.95631856653E+01 -0.15531718493E+02  0.13895980088E+02  0.22930047150E+02  0.51100000000E-03 0. -1.
        -11    1    4    4    0    0  0.40089168310E+01 -0.79283272668E+01  0.49817377352E+01  0.10185651601E+02  0.51100000000E-03 0.  1.
        -12    1    4    4    0    0 -0.10054650383E+02 -0.61822411231E+01  0.87143002591E+01  0.14671575534E+02  0.00000000000E+00 0.  1.
</event>
<event>
 8    1  0.6469014E-010  0.9118800E+02  0.7816164E-02  0.1184000E+00
        -11   -1    0    0    0    0  0.00000000000E+00  0.00000000000E+00  0.45593999997E+02  0.45594000000E+02  0.51100000000E-03 0. -1.
         11   -1    0    0    0    0 -0.00000000000E+00 -0.00000000000E+00 -0.45593999997E+02  0.45594000000E+02  0.51100000000E-03 0.  1.
         23    2    1    2    0    0  0.35527136788E-14  0.00000000000E+00  0.66613381478E-15  0.91188000000E+02  0.91188000000E+02 0.  0.
    9900012    2    3    3    0    0 -0.28573544167E+02 -0.32609062953E+02  0.19557391451E+01  0.47787270415E+02  0.19999997130E+02 0.  0.
        -12    1    3    3    0    0  0.28573544167E+02  0.32609062953E+02 -0.19557391451E+01  0.43400729585E+02  0.00000000000E+00 0.  1.
         11    1    4    4    0    0 -0.53560780725E+00  0.49118858717E+00 -0.31130079946E+01  0.31967109639E+01  0.51100000000E-03 0.  1.
        -11    1    4    4    0    0 -0.10300021843E+02 -0.14050424830E+02  0.63168490107E+01  0.18531256556E+02  0.51100000000E-03 0. -1.
         12    1    4    4    0    0 -0.17737914517E+02 -0.19049826710E+02 -0.12481018711E+01  0.26059302895E+02  0.00000000000E+00 0. -1.
</event>
<event>
 8    1  0.6469014E-010  0.9118800E+02  0.7816164E-02  0.1184000E+00
        -11   -1    0    0    0    0  0.00000000000E+00  0.00000000000E+00  0.45593999997E+02  0.45594000000E+02  0.51100000000E-03 0. -1.
         11   -1    0    0    0    0 -0.00000000000E+00 -0.00000000000E+00 -0.45593999997E+02  0.45594000000E+02  0.51100000000E-03 0.  1.
         23    2    1    2    0    0 -0.88817841970E-15  0.00000000000E+00  0.71054273576E-14  0.91188000000E+02  0.91188000000E+02 0.  0.
    9900012    2    3    3    0    0 -0.57531166108E+01  0.82323210617E+01  0.42222670582E+02  0.47787269916E+02  0.19999994854E+02 0.  0.
        -12    1    3    3    0    0  0.57531166108E+01 -0.82323210617E+01 -0.42222670582E+02  0.43400730084E+02  0.00000000000E+00 0.  1.
         11    1    4    4    0    0 -0.12196247642E+02  0.75639083584E+01  0.25880474269E+02  0.29593244412E+02  0.51100000000E-03 0. -1.
        -11    1    4    4    0    0  0.66007508120E+01  0.14328891939E+00  0.11040262356E+02  0.12863818879E+02  0.51100000000E-03 0.  1.
        -12    1    4    4    0    0 -0.15761978108E+00  0.52512378394E+00  0.53019339565E+01  0.53302066248E+01  0.00000000000E+00 0.  1.
</event>
<event>
 8    1  0.6469014E-010  0.9118800E+02  0.7816164E-02  0.1184000E+00
        -11   -1    0    0    0    0  0.00000000000E+00  0.00000000000E+00  0.45593999997E+02  0.45594000000E+02  0.51100000000E-03 0. -1.
         11   -1    0    0    0    0 -0.00000000000E+00 -0.00000000000E+00 -0.45593999997E+02  0.45594000000E+02  0.51100000000E-03 0.  1.
         23    2    1    2    0    0 -0.71054273576E-14 -0.88817841970E-15  0.00000000000E+00  0.91188000000E+02  0.91188000000E+02 0.  0.
    9900012    2    3    3    0    0  0.32346900070E+02  0.51086568979E+01 -0.28481623794E+02  0.47787271742E+02  0.20000003179E+02 0.  0.
         12    1    3    3    0    0 -0.32346900070E+02 -0.51086568979E+01  0.28481623794E+02  0.43400728258E+02  0.00000000000E+00 0. -1.
         11    1    4    4    0    0  0.18215337952E+02  0.88953133988E+01 -0.18606528851E+02  0.27515959974E+02  0.51100000000E-03 0. -1.
        -11    1    4    4    0    0  0.23243896656E+00 -0.34191327639E+01 -0.37437717361E+01  0.50754629152E+01  0.51100000000E-03 0.  1.
         12    1    4    4    0    0  0.13899123151E+02 -0.36752373696E+00 -0.61313232067E+01  0.15195848852E+02  0.00000000000E+00 0. -1.
</event>
<event>
 8    1  0.6469014E-010  0.9118800E+02  0.7816164E-02  0.1184000E+00
        -11   -1    0    0    0    0  0.00000000000E+00  0.00000000000E+00  0.45593999997E+02  0.45594000000E+02  0.51100000000E-03 0.  1.
         11   -1    0    0    0    0 -0.00000000000E+00 -0.00000000000E+00 -0.45593999997E+02  0.45594000000E+02  0.51100000000E-03 0. -1.
         23    2    1    2    0    0  0.66613381478E-15  0.00000000000E+00  0.88817841970E-15  0.91188000000E+02  0.91188000000E+02 0.  0.
    9900012    2    3    3    0    0 -0.15263115424E+01 -0.42932234139E+02 -0.61738797702E+01  0.47787272512E+02  0.20000006690E+02 0.  0.
         12    1    3    3    0    0  0.15263115424E+01  0.42932234139E+02  0.61738797702E+01  0.43400727488E+02  0.00000000000E+00 0. -1.
         11    1    4    4    0    0  0.28073563794E+01 -0.21457781759E+02 -0.87287132235E+01  0.23334696970E+02  0.51100000000E-03 0. -1.
        -11    1    4    4    0    0 -0.60974654517E+01 -0.21681519020E+02  0.21061253353E+01  0.22620855778E+02  0.51100000000E-03 0.  1.
         12    1    4    4    0    0  0.17637975298E+01  0.20706663993E+00  0.44870811798E+00  0.18317197643E+01  0.00000000000E+00 0. -1.
</event>
<event>
 8    1  0.6469014E-010  0.9118800E+02  0.7816164E-02  0.1184000E+00
        -11   -1    0    0    0    0  0.00000000000E+00  0.00000000000E+00  0.45593999997E+02  0.45594000000E+02  0.51100000000E-03 0. -1.
         11   -1    0    0    0    0 -0.00000000000E+00 -0.00000000000E+00 -0.45593999997E+02  0.45594000000E+02  0.51100000000E-03 0.  1.
         23    2    1    2    0    0  0.00000000000E+00  0.55511151231E-16  0.71054273576E-14  0.91188000000E+02  0.91188000000E+02 0.  0.
    9900012    2    3    3    0    0  0.43337746581E+01  0.45744602496E+00 -0.43181398012E+02  0.47787262749E+02  0.19999962178E+02 0.  0.
         12    1    3    3    0    0 -0.43337746581E+01 -0.45744602496E+00  0.43181398012E+02  0.43400737251E+02  0.00000000000E+00 0. -1.
         11    1    4    4    0    0  0.78375655466E+01 -0.46390956239E+01 -0.86507216562E+01  0.12561195299E+02  0.51100000000E-03 0.  1.
        -11    1    4    4    0    0 -0.21981803162E+01  0.40965679764E+01 -0.17189978255E+02  0.17807560713E+02  0.51100000000E-03 0. -1.
        -12    1    4    4    0    0 -0.13056105723E+01  0.99997367238E+00 -0.17340698101E+02  0.17418506737E+02  0.00000000000E+00 0.  1.
</event>
<event>
 8    1  0.6469014E-010  0.9118800E+02  0.7816164E-02  0.1184000E+00
        -11   -1    0    0    0    0  0.00000000000E+00  0.00000000000E+00  0.45593999997E+02  0.45594000000E+02  0.51100000000E-03 0. -1.
         11   -1    0    0    0    0 -0.00000000000E+00 -0.00000000000E+00 -0.45593999997E+02  0.45594000000E+02  0.51100000000E-03 0.  1.
         23    2    1    2    0    0  0.00000000000E+00  0.00000000000E+00 -0.71054273576E-14  0.91188000000E+02  0.91188000000E+02 0.  0.
    9900012    2    3    3    0    0 -0.27782254099E+02 -0.53442791464E+01  0.32912130413E+02  0.47787270850E+02  0.19999999113E+02 0.  0.
        -12    1    3    3    0    0  0.27782254099E+02  0.53442791464E+01 -0.32912130413E+02  0.43400729150E+02  0.00000000000E+00 0.  1.
         11    1    4    4    0    0 -0.13054280319E+02 -0.47491716286E+01  0.13022336782E+02  0.19040748970E+02  0.51100000000E-03 0. -1.
        -11    1    4    4    0    0 -0.33701039805E+01  0.56466134637E+01  0.24476323169E+01  0.70166052096E+01  0.51100000000E-03 0.  1.
        -12    1    4    4    0    0 -0.11357869799E+02 -0.62417209814E+01  0.17442161314E+02  0.21729916670E+02  0.00000000000E+00 0.  1.
</event>
<event>
 8    1  0.6469014E-010  0.9118800E+02  0.7816164E-02  0.1184000E+00
        -11   -1    0    0    0    0  0.00000000000E+00  0.00000000000E+00  0.45593999997E+02  0.45594000000E+02  0.51100000000E-03 0. -1.
         11   -1    0    0    0    0 -0.00000000000E+00 -0.00000000000E+00 -0.45593999997E+02  0.45594000000E+02  0.51100000000E-03 0.  1.
         23    2    1    2    0    0  0.00000000000E+00  0.00000000000E+00 -0.35527136788E-14  0.91188000000E+02  0.91188000000E+02 0.  0.
    9900012    2    3    3    0    0 -0.16319150824E+02  0.28906588037E+02  0.27959217496E+02  0.47787270069E+02  0.19999995554E+02 0.  0.
        -12    1    3    3    0    0  0.16319150824E+02 -0.28906588037E+02 -0.27959217496E+02  0.43400729931E+02  0.00000000000E+00 0.  1.
         11    1    4    4    0    0 -0.55831656536E+01  0.37651364851E+01  0.27106109045E+01  0.72591599517E+01  0.51100000000E-03 0. -1.
        -11    1    4    4    0    0 -0.26280573440E+01  0.17294544874E+02  0.65306910650E+01  0.18672383186E+02  0.51100000000E-03 0.  1.
        -12    1    4    4    0    0 -0.81079278261E+01  0.78469066776E+01  0.18717915526E+02  0.21855726931E+02  0.00000000000E+00 0.  1.
</event>
<event>
 8    1  0.6469014E-010  0.9118800E+02  0.7816164E-02  0.1184000E+00
        -11   -1    0    0    0    0  0.00000000000E+00  0.00000000000E+00  0.45593999997E+02  0.45594000000E+02  0.51100000000E-03 0. -1.
         11   -1    0    0    0    0 -0.00000000000E+00 -0.00000000000E+00 -0.45593999997E+02  0.45594000000E+02  0.51100000000E-03 0.  1.
         23    2    1    2    0    0  0.00000000000E+00  0.88817841970E-15  0.71054273576E-14  0.91188000000E+02  0.91188000000E+02 0.  0.
    9900012    2    3    3    0    0 -0.26412753389E+02  0.71555284462E+01  0.33686616987E+02  0.47787270824E+02  0.19999998995E+02 0.  0.
        -12    1    3    3    0    0  0.26412753389E+02 -0.71555284462E+01 -0.33686616987E+02  0.43400729176E+02  0.00000000000E+00 0.  1.
         11    1    4    4    0    0  0.21128466247E+01  0.13069627230E+01  0.26476856466E+01  0.36307729154E+01  0.51100000000E-03 0. -1.
        -11    1    4    4    0    0 -0.23031584340E+02  0.30569876495E+00  0.26566714885E+02  0.35161593664E+02  0.51100000000E-03 0.  1.
        -12    1    4    4    0    0 -0.54940156744E+01  0.55428669583E+01  0.44722164560E+01  0.89949042450E+01  0.00000000000E+00 0.  1.
</event>
<event>
 8    1  0.6469014E-010  0.9118800E+02  0.7816164E-02  0.1184000E+00
        -11   -1    0    0    0    0  0.00000000000E+00  0.00000000000E+00  0.45593999997E+02  0.45594000000E+02  0.51100000000E-03 0. -1.
         11   -1    0    0    0    0 -0.00000000000E+00 -0.00000000000E+00 -0.45593999997E+02  0.45594000000E+02  0.51100000000E-03 0.  1.
         23    2    1    2    0    0  0.00000000000E+00  0.88817841970E-15  0.71054273576E-14  0.91188000000E+02  0.91188000000E+02 0.  0.
    9900012    2    3    3    0    0 -0.31084214197E+02  0.75094834187E+01  0.29342841548E+02  0.47787273467E+02  0.20000011046E+02 0.  0.
        -12    1    3    3    0    0  0.31084214197E+02 -0.75094834187E+01 -0.29342841548E+02  0.43400726533E+02  0.00000000000E+00 0.  1.
         11    1    4    4    0    0 -0.96786379242E+01  0.49081175201E+01  0.93253205674E+01  0.14308293176E+02  0.51100000000E-03 0. -1.
        -11    1    4    4    0    0 -0.85180551106E+01 -0.46396789464E+01  0.15010181696E+02  0.17871469956E+02  0.51100000000E-03 0.  1.
        -12    1    4    4    0    0 -0.12887521162E+02  0.72410448450E+01  0.50073392854E+01  0.15607510335E+02  0.00000000000E+00 0.  1.
</event>
<event>
 8    1  0.6469014E-010  0.9118800E+02  0.7816164E-02  0.1184000E+00
        -11   -1    0    0    0    0  0.00000000000E+00  0.00000000000E+00  0.45593999997E+02  0.45594000000E+02  0.51100000000E-03 0. -1.
         11   -1    0    0    0    0 -0.00000000000E+00 -0.00000000000E+00 -0.45593999997E+02  0.45594000000E+02  0.51100000000E-03 0.  1.
         23    2    1    2    0    0  0.00000000000E+00  0.00000000000E+00  0.00000000000E+00  0.91188000000E+02  0.91188000000E+02 0.  0.
    9900012    2    3    3    0    0  0.25029909298E+02 -0.26297719730E+02 -0.23781438753E+02  0.47787271301E+02  0.20000001169E+02 0.  0.
         12    1    3    3    0    0 -0.25029909298E+02  0.26297719730E+02  0.23781438753E+02  0.43400728699E+02  0.00000000000E+00 0. -1.
         11    1    4    4    0    0  0.69590977886E+01  0.14526473096E+00 -0.17710836725E+00  0.69628666157E+01  0.51100000000E-03 0. -1.
        -11    1    4    4    0    0  0.15924458770E+02 -0.22663541276E+02 -0.15791843911E+02  0.31884272371E+02  0.51100000000E-03 0.  1.
        -12    1    4    4    0    0  0.21463527398E+01 -0.37794431843E+01 -0.78124864749E+01  0.89401323137E+01  0.00000000000E+00 0.  1.
</event>
<event>
 8    1  0.6469014E-010  0.9118800E+02  0.7816164E-02  0.1184000E+00
        -11   -1    0    0    0    0  0.00000000000E+00  0.00000000000E+00  0.45593999997E+02  0.45594000000E+02  0.51100000000E-03 0. -1.
         11   -1    0    0    0    0 -0.00000000000E+00 -0.00000000000E+00 -0.45593999997E+02  0.45594000000E+02  0.51100000000E-03 0.  1.
         23    2    1    2    0    0  0.00000000000E+00 -0.35527136788E-14  0.35527136788E-14  0.91188000000E+02  0.91188000000E+02 0.  0.
    9900012    2    3    3    0    0  0.10903909050E+02  0.28568769360E+02 -0.30798594890E+02  0.47787271175E+02  0.20000000597E+02 0.  0.
         12    1    3    3    0    0 -0.10903909050E+02 -0.28568769360E+02  0.30798594890E+02  0.43400728825E+02  0.00000000000E+00 0. -1.
         11    1    4    4    0    0  0.31854934944E+01  0.32721115063E+01  0.84924718310E+00  0.46449223408E+01  0.51100000000E-03 0. -1.
        -11    1    4    4    0    0  0.55833316531E+01  0.22612601942E+02 -0.32124389223E+02  0.39679714492E+02  0.51100000000E-03 0.  1.
        -12    1    4    4    0    0  0.21350839028E+01  0.26840559111E+01  0.47654714986E+00  0.34626343428E+01  0.00000000000E+00 0.  1.
</event>
<event>
 8    1  0.6469014E-010  0.9118800E+02  0.7816164E-02  0.1184000E+00
        -11   -1    0    0    0    0  0.00000000000E+00  0.00000000000E+00  0.45593999997E+02  0.45594000000E+02  0.51100000000E-03 0. -1.
         11   -1    0    0    0    0 -0.00000000000E+00 -0.00000000000E+00 -0.45593999997E+02  0.45594000000E+02  0.51100000000E-03 0.  1.
         23    2    1    2    0    0  0.00000000000E+00  0.22204460493E-15  0.00000000000E+00  0.91188000000E+02  0.91188000000E+02 0.  0.
    9900012    2    3    3    0    0 -0.25426085108E+02 -0.10580682796E+01  0.35157047865E+02  0.47787270433E+02  0.19999997213E+02 0.  0.
        -12    1    3    3    0    0  0.25426085108E+02  0.10580682796E+01 -0.35157047865E+02  0.43400729567E+02  0.00000000000E+00 0.  1.
         11    1    4    4    0    0 -0.12779452517E+02 -0.40113968380E+01  0.17072425347E+02  0.21699617939E+02  0.51100000000E-03 0. -1.
        -11    1    4    4    0    0  0.28354886568E+01  0.15977211301E+01  0.28875296154E+01  0.43509236115E+01  0.51100000000E-03 0.  1.
        -12    1    4    4    0    0 -0.15482121248E+02  0.13556074284E+01  0.15197092902E+02  0.21736728882E+02  0.00000000000E+00 0.  1.
</event>
<event>
 8    1  0.6469014E-010  0.9118800E+02  0.7816164E-02  0.1184000E+00
        -11   -1    0    0    0    0  0.00000000000E+00  0.00000000000E+00  0.45593999997E+02  0.45594000000E+02  0.51100000000E-03 0.  1.
         11   -1    0    0    0    0 -0.00000000000E+00 -0.00000000000E+00 -0.45593999997E+02  0.45594000000E+02  0.51100000000E-03 0. -1.
         23    2    1    2    0    0  0.00000000000E+00  0.00000000000E+00  0.00000000000E+00  0.91188000000E+02  0.91188000000E+02 0.  0.
    9900012    2    3    3    0    0 -0.38475132902E+02 -0.31968773706E+01  0.19825936433E+02  0.47787266916E+02  0.19999981178E+02 0.  0.
        -12    1    3    3    0    0  0.38475132902E+02  0.31968773706E+01 -0.19825936433E+02  0.43400733084E+02  0.00000000000E+00 0.  1.
         11    1    4    4    0    0 -0.39733397146E+02 -0.18312597842E+01  0.18569102956E+02  0.43896559615E+02  0.51100000000E-03 0.  1.
        -11    1    4    4    0    0  0.10187384964E+01  0.54942758031E+00 -0.51859317774E+00  0.12683209118E+01  0.51100000000E-03 0. -1.
        -12    1    4    4    0    0  0.23952574687E+00 -0.19150451666E+01  0.17754266542E+01  0.26223863899E+01  0.00000000000E+00 0.  1.
</event>
<event>
 8    1  0.6469014E-010  0.9118800E+02  0.7816164E-02  0.1184000E+00
        -11   -1    0    0    0    0  0.00000000000E+00  0.00000000000E+00  0.45593999997E+02  0.45594000000E+02  0.51100000000E-03 0. -1.
         11   -1    0    0    0    0 -0.00000000000E+00 -0.00000000000E+00 -0.45593999997E+02  0.45594000000E+02  0.51100000000E-03 0.  1.
         23    2    1    2    0    0 -0.22204460493E-15 -0.35527136788E-14  0.00000000000E+00  0.91188000000E+02  0.91188000000E+02 0.  0.
    9900012    2    3    3    0    0 -0.69863969534E+00 -0.22616537116E+02 -0.37035484282E+02  0.47787274838E+02  0.20000017296E+02 0.  0.
         12    1    3    3    0    0  0.69863969534E+00  0.22616537116E+02  0.37035484282E+02  0.43400725162E+02  0.00000000000E+00 0. -1.
         11    1    4    4    0    0  0.42198818332E+00 -0.83523036381E+01 -0.33176056076E+01  0.89969748982E+01  0.51100000000E-03 0. -1.
        -11    1    4    4    0    0  0.27452967571E+01 -0.10981744486E+02 -0.31072837281E+02  0.33070479029E+02  0.51100000000E-03 0.  1.
        -12    1    4    4    0    0 -0.38659246358E+01 -0.32824889927E+01 -0.26450413934E+01  0.57198209106E+01  0.00000000000E+00 0.  1.
</event>
<event>
 8    1  0.6469014E-010  0.9118800E+02  0.7816164E-02  0.1184000E+00
        -11   -1    0    0    0    0  0.00000000000E+00  0.00000000000E+00  0.45593999997E+02  0.45594000000E+02  0.51100000000E-03 0. -1.
         11   -1    0    0    0    0 -0.00000000000E+00 -0.00000000000E+00 -0.45593999997E+02  0.45594000000E+02  0.51100000000E-03 0.  1.
         23    2    1    2    0    0  0.00000000000E+00  0.00000000000E+00  0.00000000000E+00  0.91188000000E+02  0.91188000000E+02 0.  0.
    9900012    2    3    3    0    0  0.11313739255E+02 -0.34895007234E+02  0.23193984795E+02  0.47787272397E+02  0.20000006167E+02 0.  0.
        -12    1    3    3    0    0 -0.11313739255E+02  0.34895007234E+02 -0.23193984795E+02  0.43400727603E+02  0.00000000000E+00 0.  1.
         11    1    4    4    0    0 -0.12118532889E+01 -0.75049018907E+01  0.89489977017E+01  0.11742090994E+02  0.51100000000E-03 0. -1.
        -11    1    4    4    0    0  0.15349063278E+02 -0.24188133734E+02  0.11014729020E+02  0.30691754800E+02  0.51100000000E-03 0.  1.
        -12    1    4    4    0    0 -0.28234707340E+01 -0.32019716088E+01  0.32302580740E+01  0.53534266030E+01  0.00000000000E+00 0.  1.
</event>
<event>
 8    1  0.6469014E-010  0.9118800E+02  0.7816164E-02  0.1184000E+00
        -11   -1    0    0    0    0  0.00000000000E+00  0.00000000000E+00  0.45593999997E+02  0.45594000000E+02  0.51100000000E-03 0. -1.
         11   -1    0    0    0    0 -0.00000000000E+00 -0.00000000000E+00 -0.45593999997E+02  0.45594000000E+02  0.51100000000E-03 0.  1.
         23    2    1    2    0    0  0.00000000000E+00 -0.17763568394E-14  0.00000000000E+00  0.91188000000E+02  0.91188000000E+02 0.  0.
    9900012    2    3    3    0    0  0.13708176729E+02  0.70783818738E+01 -0.40566059452E+02  0.47787276749E+02  0.20000026010E+02 0.  0.
         12    1    3    3    0    0 -0.13708176729E+02 -0.70783818738E+01  0.40566059452E+02  0.43400723251E+02  0.00000000000E+00 0. -1.
         11    1    4    4    0    0  0.31328383307E+01  0.97272379769E+01 -0.14328207057E+02  0.17599186129E+02  0.51100000000E-03 0. -1.
        -11    1    4    4    0    0  0.55923021959E+01 -0.64594914274E+01 -0.16928693900E+02  0.18962582914E+02  0.51100000000E-03 0.  1.
         12    1    4    4    0    0  0.49830362027E+01  0.38106353244E+01 -0.93091584953E+01  0.11225507706E+02  0.00000000000E+00 0. -1.
</event>
<event>
 8    1  0.6469014E-010  0.9118800E+02  0.7816164E-02  0.1184000E+00
        -11   -1    0    0    0    0  0.00000000000E+00  0.00000000000E+00  0.45593999997E+02  0.45594000000E+02  0.51100000000E-03 0.  1.
         11   -1    0    0    0    0 -0.00000000000E+00 -0.00000000000E+00 -0.45593999997E+02  0.45594000000E+02  0.51100000000E-03 0. -1.
         23    2    1    2    0    0  0.71054273576E-14 -0.11102230246E-15  0.88817841970E-15  0.91188000000E+02  0.91188000000E+02 0.  0.
    9900012    2    3    3    0    0 -0.43023838079E+02 -0.34367620477E+00  0.56969060033E+01  0.47787268504E+02  0.19999988418E+02 0.  0.
        -12    1    3    3    0    0  0.43023838079E+02  0.34367620477E+00 -0.56969060033E+01  0.43400731496E+02  0.00000000000E+00 0.  1.
         11    1    4    4    0    0 -0.30185852177E+02 -0.18373033226E+00  0.59190300715E+01  0.30761247468E+02  0.51100000000E-03 0. -1.
        -11    1    4    4    0    0 -0.32470300736E+01  0.35272703437E+01 -0.38294249513E+01  0.61359054829E+01  0.51100000000E-03 0.  1.
        -12    1    4    4    0    0 -0.95909558276E+01 -0.36872162162E+01  0.36073008831E+01  0.10890115554E+02  0.00000000000E+00 0.  1.
</event>
<event>
 8    1  0.6469014E-010  0.9118800E+02  0.7816164E-02  0.1184000E+00
        -11   -1    0    0    0    0  0.00000000000E+00  0.00000000000E+00  0.45593999997E+02  0.45594000000E+02  0.51100000000E-03 0. -1.
         11   -1    0    0    0    0 -0.00000000000E+00 -0.00000000000E+00 -0.45593999997E+02  0.45594000000E+02  0.51100000000E-03 0.  1.
         23    2    1    2    0    0  0.00000000000E+00  0.00000000000E+00  0.00000000000E+00  0.91188000000E+02  0.91188000000E+02 0.  0.
    9900012    2    3    3    0    0  0.36741281316E+02 -0.10899930865E+02 -0.20368913671E+02  0.47787275470E+02  0.20000020178E+02 0.  0.
         12    1    3    3    0    0 -0.36741281316E+02  0.10899930865E+02  0.20368913671E+02  0.43400724530E+02  0.00000000000E+00 0. -1.
         11    1    4    4    0    0  0.24178967747E+02 -0.12068746819E+02 -0.17844981451E+02  0.32383954273E+02  0.51100000000E-03 0. -1.
        -11    1    4    4    0    0  0.10869981973E+02 -0.10697644375E+01  0.91957903770E+00  0.10961137254E+02  0.51100000000E-03 0.  1.
         12    1    4    4    0    0  0.16923315962E+01  0.22385803914E+01 -0.34435112576E+01  0.44421839428E+01  0.00000000000E+00 0. -1.
</event>
<event>
 8    1  0.6469014E-010  0.9118800E+02  0.7816164E-02  0.1184000E+00
        -11   -1    0    0    0    0  0.00000000000E+00  0.00000000000E+00  0.45593999997E+02  0.45594000000E+02  0.51100000000E-03 0. -1.
         11   -1    0    0    0    0 -0.00000000000E+00 -0.00000000000E+00 -0.45593999997E+02  0.45594000000E+02  0.51100000000E-03 0.  1.
         23    2    1    2    0    0  0.00000000000E+00  0.00000000000E+00  0.00000000000E+00  0.91188000000E+02  0.91188000000E+02 0.  0.
    9900012    2    3    3    0    0  0.24143522560E+02  0.11009226229E+02 -0.34344005581E+02  0.47787268864E+02  0.19999990059E+02 0.  0.
         12    1    3    3    0    0 -0.24143522560E+02 -0.11009226229E+02  0.34344005581E+02  0.43400731136E+02  0.00000000000E+00 0. -1.
         11    1    4    4    0    0  0.15205813040E+02  0.36604576458E+01 -0.94677032962E+01  0.18282590253E+02  0.51100000000E-03 0. -1.
        -11    1    4    4    0    0  0.54078028006E+01 -0.90522414972E+00 -0.40212561732E+01  0.67995781754E+01  0.51100000000E-03 0.  1.
         12    1    4    4    0    0  0.35299067192E+01  0.82539927329E+01 -0.20855046112E+02  0.22705100436E+02  0.00000000000E+00 0. -1.
</event>
<event>
 8    1  0.6469014E-010  0.9118800E+02  0.7816164E-02  0.1184000E+00
        -11   -1    0    0    0    0  0.00000000000E+00  0.00000000000E+00  0.45593999997E+02  0.45594000000E+02  0.51100000000E-03 0. -1.
         11   -1    0    0    0    0 -0.00000000000E+00 -0.00000000000E+00 -0.45593999997E+02  0.45594000000E+02  0.51100000000E-03 0.  1.
         23    2    1    2    0    0  0.00000000000E+00  0.00000000000E+00  0.00000000000E+00  0.91188000000E+02  0.91188000000E+02 0.  0.
    9900012    2    3    3    0    0 -0.10150747069E+02 -0.40630787251E+02 -0.11389702257E+02  0.47787264336E+02  0.19999969412E+02 0.  0.
         12    1    3    3    0    0  0.10150747069E+02  0.40630787251E+02  0.11389702257E+02  0.43400735664E+02  0.00000000000E+00 0. -1.
         11    1    4    4    0    0  0.26998003092E+01 -0.28239614608E+01 -0.42617542486E+01  0.57815421454E+01  0.51100000000E-03 0. -1.
        -11    1    4    4    0    0 -0.12137852339E+02 -0.28513666960E+02 -0.94536220540E+01  0.32399500507E+02  0.51100000000E-03 0.  1.
         12    1    4    4    0    0 -0.71269503969E+00 -0.92931588298E+01  0.23256740458E+01  0.96062216830E+01  0.00000000000E+00 0. -1.
</event>
<event>
 8    1  0.6469014E-010  0.9118800E+02  0.7816164E-02  0.1184000E+00
        -11   -1    0    0    0    0  0.00000000000E+00  0.00000000000E+00  0.45593999997E+02  0.45594000000E+02  0.51100000000E-03 0. -1.
         11   -1    0    0    0    0 -0.00000000000E+00 -0.00000000000E+00 -0.45593999997E+02  0.45594000000E+02  0.51100000000E-03 0.  1.
         23    2    1    2    0    0  0.00000000000E+00  0.00000000000E+00  0.00000000000E+00  0.91188000000E+02  0.91188000000E+02 0.  0.
    9900012    2    3    3    0    0 -0.12877932501E+01  0.20778234853E+02  0.38081869068E+02  0.47787283338E+02  0.20000056049E+02 0.  0.
        -12    1    3    3    0    0  0.12877932501E+01 -0.20778234853E+02 -0.38081869068E+02  0.43400716662E+02  0.00000000000E+00 0.  1.
         11    1    4    4    0    0  0.22715993778E+00  0.32815491735E+01  0.78698425207E+01  0.85296300141E+01  0.51100000000E-03 0. -1.
        -11    1    4    4    0    0  0.25113647768E+01 -0.12603719017E+01  0.13579343810E+02  0.13867013699E+02  0.51100000000E-03 0.  1.
        -12    1    4    4    0    0 -0.40263179647E+01  0.18757057581E+02  0.16632682738E+02  0.25390639624E+02  0.00000000000E+00 0.  1.
</event>
<event>
 8    1  0.6469014E-010  0.9118800E+02  0.7816164E-02  0.1184000E+00
        -11   -1    0    0    0    0  0.00000000000E+00  0.00000000000E+00  0.45593999997E+02  0.45594000000E+02  0.51100000000E-03 0. -1.
         11   -1    0    0    0    0 -0.00000000000E+00 -0.00000000000E+00 -0.45593999997E+02  0.45594000000E+02  0.51100000000E-03 0.  1.
         23    2    1    2    0    0  0.00000000000E+00  0.00000000000E+00 -0.35527136788E-14  0.91188000000E+02  0.91188000000E+02 0.  0.
    9900012    2    3    3    0    0  0.19349709284E+02  0.27966371558E+02 -0.26964679114E+02  0.47787272965E+02  0.20000008757E+02 0.  0.
         12    1    3    3    0    0 -0.19349709284E+02 -0.27966371558E+02  0.26964679114E+02  0.43400727035E+02  0.00000000000E+00 0. -1.
         11    1    4    4    0    0  0.13078757431E+01  0.10889190904E+01 -0.11465228030E+02  0.11590847156E+02  0.51100000000E-03 0. -1.
        -11    1    4    4    0    0  0.14782123040E+02  0.22658894277E+02 -0.14746572561E+02  0.30812303613E+02  0.51100000000E-03 0.  1.
         12    1    4    4    0    0  0.32597105005E+01  0.42185581903E+01 -0.75287852326E+00  0.53841221961E+01  0.00000000000E+00 0. -1.
</event>
<event>
 8    1  0.6469014E-010  0.9118800E+02  0.7816164E-02  0.1184000E+00
        -11   -1    0    0    0    0  0.00000000000E+00  0.00000000000E+00  0.45593999997E+02  0.45594000000E+02  0.51100000000E-03 0. -1.
         11   -1    0    0    0    0 -0.00000000000E+00 -0.00000000000E+00 -0.45593999997E+02  0.45594000000E+02  0.51100000000E-03 0.  1.
         23    2    1    2    0    0  0.00000000000E+00  0.44408920985E-15  0.00000000000E+00  0.91188000000E+02  0.91188000000E+02 0.  0.
    9900012    2    3    3    0    0 -0.80544918581E+01  0.30103282413E+01 -0.42540408503E+02  0.47787271079E+02  0.20000000159E+02 0.  0.
         12    1    3    3    0    0  0.80544918581E+01 -0.30103282413E+01  0.42540408503E+02  0.43400728921E+02  0.00000000000E+00 0. -1.
         11    1    4    4    0    0  0.53606918755E+01  0.16635890430E+01 -0.22086950370E+02  0.22788986875E+02  0.51100000000E-03 0. -1.
        -11    1    4    4    0    0 -0.78813564467E+01 -0.15219844584E+01 -0.13040898450E+02  0.15313303000E+02  0.51100000000E-03 0.  1.
         12    1    4    4    0    0 -0.55338272870E+01  0.28687236567E+01 -0.74125596832E+01  0.96849812037E+01  0.00000000000E+00 0. -1.
</event>
<event>
 8    1  0.6469014E-010  0.9118800E+02  0.7816164E-02  0.1184000E+00
        -11   -1    0    0    0    0  0.00000000000E+00  0.00000000000E+00  0.45593999997E+02  0.45594000000E+02  0.51100000000E-03 0.  1.
         11   -1    0    0    0    0 -0.00000000000E+00 -0.00000000000E+00 -0.45593999997E+02  0.45594000000E+02  0.51100000000E-03 0. -1.
         23    2    1    2    0    0  0.00000000000E+00  0.00000000000E+00  0.00000000000E+00  0.91188000000E+02  0.91188000000E+02 0.  0.
    9900012    2    3    3    0    0 -0.35568548672E+02 -0.21754393230E+02  0.12051878834E+02  0.47787273475E+02  0.20000011083E+02 0.  0.
        -12    1    3    3    0    0  0.35568548672E+02  0.21754393230E+02 -0.12051878834E+02  0.43400726525E+02  0.00000000000E+00 0.  1.
         11    1    4    4    0    0 -0.66614707432E+01 -0.23858217201E+01  0.23819347958E+01  0.74659862962E+01  0.51100000000E-03 0. -1.
        -11    1    4    4    0    0 -0.14524530835E+02 -0.39589631459E+01 -0.35139625137E+01  0.15459085289E+02  0.51100000000E-03 0.  1.
        -12    1    4    4    0    0 -0.14382547094E+02 -0.15409608364E+02  0.13183906552E+02  0.24862201890E+02  0.00000000000E+00 0.  1.
</event>
<event>
 8    1  0.6469014E-010  0.9118800E+02  0.7816164E-02  0.1184000E+00
        -11   -1    0    0    0    0  0.00000000000E+00  0.00000000000E+00  0.45593999997E+02  0.45594000000E+02  0.51100000000E-03 0.  1.
         11   -1    0    0    0    0 -0.00000000000E+00 -0.00000000000E+00 -0.45593999997E+02  0.45594000000E+02  0.51100000000E-03 0. -1.
         23    2    1    2    0    0  0.00000000000E+00 -0.17763568394E-14  0.00000000000E+00  0.91188000000E+02  0.91188000000E+02 0.  0.
    9900012    2    3    3    0    0  0.17984459052E+02  0.12368317075E+02 -0.37512769241E+02  0.47787263937E+02  0.19999967594E+02 0.  0.
         12    1    3    3    0    0 -0.17984459052E+02 -0.12368317075E+02  0.37512769241E+02  0.43400736063E+02  0.00000000000E+00 0. -1.
         11    1    4    4    0    0  0.13666247308E+02  0.10244211298E+02 -0.13532160470E+02  0.21790583927E+02  0.51100000000E-03 0. -1.
        -11    1    4    4    0    0  0.42796242966E+01  0.31456786230E+01 -0.61058269366E+01  0.80926881171E+01  0.51100000000E-03 0.  1.
         12    1    4    4    0    0  0.38587447100E-01 -0.10215728465E+01 -0.17874781835E+02  0.17903991893E+02  0.00000000000E+00 0. -1.
</event>
<event>
 8    1  0.6469014E-010  0.9118800E+02  0.7816164E-02  0.1184000E+00
        -11   -1    0    0    0    0  0.00000000000E+00  0.00000000000E+00  0.45593999997E+02  0.45594000000E+02  0.51100000000E-03 0. -1.
         11   -1    0    0    0    0 -0.00000000000E+00 -0.00000000000E+00 -0.45593999997E+02  0.45594000000E+02  0.51100000000E-03 0.  1.
         23    2    1    2    0    0  0.00000000000E+00 -0.88817841970E-15  0.00000000000E+00  0.91188000000E+02  0.91188000000E+02 0.  0.
    9900012    2    3    3    0    0 -0.58038187251E+01  0.47051642012E+01 -0.42752796414E+02  0.47787257112E+02  0.19999936478E+02 0.  0.
         12    1    3    3    0    0  0.58038187251E+01 -0.47051642012E+01  0.42752796414E+02  0.43400742888E+02  0.00000000000E+00 0. -1.
         11    1    4    4    0    0 -0.18071139583E+01  0.48344319083E+00  0.69271602133E+00  0.19948017256E+01  0.51100000000E-03 0. -1.
        -11    1    4    4    0    0 -0.65773209321E+01  0.29010624454E+00 -0.38133924577E+02  0.38698081557E+02  0.51100000000E-03 0.  1.
        -12    1    4    4    0    0  0.25806161654E+01  0.39316147658E+01 -0.53115878585E+01  0.70943738299E+01  0.00000000000E+00 0.  1.
</event>
<event>
 8    1  0.6469014E-010  0.9118800E+02  0.7816164E-02  0.1184000E+00
        -11   -1    0    0    0    0  0.00000000000E+00  0.00000000000E+00  0.45593999997E+02  0.45594000000E+02  0.51100000000E-03 0. -1.
         11   -1    0    0    0    0 -0.00000000000E+00 -0.00000000000E+00 -0.45593999997E+02  0.45594000000E+02  0.51100000000E-03 0.  1.
         23    2    1    2    0    0  0.17763568394E-14 -0.35527136788E-14  0.00000000000E+00  0.91188000000E+02  0.91188000000E+02 0.  0.
    9900012    2    3    3    0    0  0.13824884360E+02  0.20328277122E+02 -0.35766700867E+02  0.47787272250E+02  0.20000005497E+02 0.  0.
         12    1    3    3    0    0 -0.13824884360E+02 -0.20328277122E+02  0.35766700867E+02  0.43400727750E+02  0.00000000000E+00 0. -1.
         11    1    4    4    0    0  0.12564769086E+01  0.11573592026E+01 -0.11287271357E+02  0.11415809629E+02  0.51100000000E-03 0. -1.
        -11    1    4    4    0    0  0.80645413671E+01  0.18329858254E+02 -0.12651526903E+02  0.23687162437E+02  0.51100000000E-03 0.  1.
        -12    1    4    4    0    0  0.45038660847E+01  0.84105966500E+00 -0.11827902607E+02  0.12684300184E+02  0.00000000000E+00 0.  1.
</event>
<event>
 8    1  0.6469014E-010  0.9118800E+02  0.7816164E-02  0.1184000E+00
        -11   -1    0    0    0    0  0.00000000000E+00  0.00000000000E+00  0.45593999997E+02  0.45594000000E+02  0.51100000000E-03 0. -1.
         11   -1    0    0    0    0 -0.00000000000E+00 -0.00000000000E+00 -0.45593999997E+02  0.45594000000E+02  0.51100000000E-03 0.  1.
         23    2    1    2    0    0  0.00000000000E+00 -0.35527136788E-14  0.00000000000E+00  0.91188000000E+02  0.91188000000E+02 0.  0.
    9900012    2    3    3    0    0  0.21861520412E+02  0.23350105773E+02 -0.29333773204E+02  0.47787265390E+02  0.19999974219E+02 0.  0.
         12    1    3    3    0    0 -0.21861520412E+02 -0.23350105773E+02  0.29333773204E+02  0.43400734610E+02  0.00000000000E+00 0. -1.
         11    1    4    4    0    0  0.59611162013E+01 -0.24081366830E+01 -0.34128996771E+01  0.72788675710E+01  0.51100000000E-03 0. -1.
        -11    1    4    4    0    0  0.11474299192E+02  0.18303713434E+02 -0.22490003533E+02  0.31184703407E+02  0.51100000000E-03 0.  1.
         12    1    4    4    0    0  0.44261050186E+01  0.74545290212E+01 -0.34308699942E+01  0.93236944115E+01  0.00000000000E+00 0. -1.
</event>
<event>
 8    1  0.6469014E-010  0.9118800E+02  0.7816164E-02  0.1184000E+00
        -11   -1    0    0    0    0  0.00000000000E+00  0.00000000000E+00  0.45593999997E+02  0.45594000000E+02  0.51100000000E-03 0. -1.
         11   -1    0    0    0    0 -0.00000000000E+00 -0.00000000000E+00 -0.45593999997E+02  0.45594000000E+02  0.51100000000E-03 0.  1.
         23    2    1    2    0    0 -0.17763568394E-14  0.00000000000E+00  0.00000000000E+00  0.91188000000E+02  0.91188000000E+02 0.  0.
    9900012    2    3    3    0    0 -0.15182469235E+02  0.15387135119E+02  0.37634454057E+02  0.47787269230E+02  0.19999991727E+02 0.  0.
        -12    1    3    3    0    0  0.15182469235E+02 -0.15387135119E+02 -0.37634454057E+02  0.43400730770E+02  0.00000000000E+00 0.  1.
         11    1    4    4    0    0 -0.75354114312E+01  0.14711717344E+02  0.11721079900E+02  0.20263286183E+02  0.51100000000E-03 0. -1.
        -11    1    4    4    0    0 -0.11113615460E+01  0.61911466531E+00  0.64955563184E+00  0.14284082871E+01  0.51100000000E-03 0.  1.
         12    1    4    4    0    0 -0.65356962576E+01  0.56303109783E-01  0.25263818524E+02  0.26095574760E+02  0.00000000000E+00 0. -1.
</event>
<event>
 8    1  0.6469014E-010  0.9118800E+02  0.7816164E-02  0.1184000E+00
        -11   -1    0    0    0    0  0.00000000000E+00  0.00000000000E+00  0.45593999997E+02  0.45594000000E+02  0.51100000000E-03 0.  1.
         11   -1    0    0    0    0 -0.00000000000E+00 -0.00000000000E+00 -0.45593999997E+02  0.45594000000E+02  0.51100000000E-03 0. -1.
         23    2    1    2    0    0  0.71054273576E-14  0.35527136788E-14  0.26645352591E-14  0.91188000000E+02  0.91188000000E+02 0.  0.
    9900012    2    3    3    0    0  0.39273521596E+02  0.17359154216E+02  0.63145606223E+01  0.47787269482E+02  0.19999992876E+02 0.  0.
        -12    1    3    3    0    0 -0.39273521596E+02 -0.17359154216E+02 -0.63145606223E+01  0.43400730518E+02  0.00000000000E+00 0.  1.
         11    1    4    4    0    0  0.57688046489E+01  0.31699920926E+01 -0.41904992540E+01  0.78030917720E+01  0.51100000000E-03 0. -1.
        -11    1    4    4    0    0 -0.88484478864E+00 -0.58994152611E+00 -0.13118688518E+00  0.10715370102E+01  0.51100000000E-03 0.  1.
         12    1    4    4    0    0  0.34389561736E+02  0.14779103650E+02  0.10636246761E+02  0.38912640700E+02  0.00000000000E+00 0. -1.
</event>
<event>
 8    1  0.6469014E-010  0.9118800E+02  0.7816164E-02  0.1184000E+00
        -11   -1    0    0    0    0  0.00000000000E+00  0.00000000000E+00  0.45593999997E+02  0.45594000000E+02  0.51100000000E-03 0. -1.
         11   -1    0    0    0    0 -0.00000000000E+00 -0.00000000000E+00 -0.45593999997E+02  0.45594000000E+02  0.51100000000E-03 0.  1.
         23    2    1    2    0    0 -0.44408920985E-15  0.35527136788E-14  0.00000000000E+00  0.91188000000E+02  0.91188000000E+02 0.  0.
    9900012    2    3    3    0    0  0.27514313281E+01  0.29354103746E+02 -0.31849480874E+02  0.47787271746E+02  0.20000003197E+02 0.  0.
         12    1    3    3    0    0 -0.27514313281E+01 -0.29354103746E+02  0.31849480874E+02  0.43400728254E+02  0.00000000000E+00 0. -1.
         11    1    4    4    0    0 -0.35871284372E+01  0.42430487092E+01 -0.10571335274E+02  0.11942532500E+02  0.51100000000E-03 0. -1.
        -11    1    4    4    0    0  0.38529200066E+01  0.20127353059E+02 -0.90383134635E+01  0.22397465130E+02  0.51100000000E-03 0.  1.
         12    1    4    4    0    0  0.24856397586E+01  0.49837019777E+01 -0.12239832136E+02  0.13447274116E+02  0.00000000000E+00 0. -1.
</event>
<event>
 8    1  0.6469014E-010  0.9118800E+02  0.7816164E-02  0.1184000E+00
        -11   -1    0    0    0    0  0.00000000000E+00  0.00000000000E+00  0.45593999997E+02  0.45594000000E+02  0.51100000000E-03 0. -1.
         11   -1    0    0    0    0 -0.00000000000E+00 -0.00000000000E+00 -0.45593999997E+02  0.45594000000E+02  0.51100000000E-03 0.  1.
         23    2    1    2    0    0  0.00000000000E+00  0.00000000000E+00 -0.17763568394E-14  0.91188000000E+02  0.91188000000E+02 0.  0.
    9900012    2    3    3    0    0  0.20458076619E+02  0.35591496734E+02  0.14083187869E+02  0.47787265913E+02  0.19999976606E+02 0.  0.
        -12    1    3    3    0    0 -0.20458076619E+02 -0.35591496734E+02 -0.14083187869E+02  0.43400734087E+02  0.00000000000E+00 0.  1.
         11    1    4    4    0    0  0.10405450464E+02  0.67695280868E+01  0.76736561121E+01  0.14594002476E+02  0.51100000000E-03 0. -1.
        -11    1    4    4    0    0  0.12211295998E+02  0.26831295416E+02  0.48740387971E+01  0.29879598694E+02  0.51100000000E-03 0.  1.
        -12    1    4    4    0    0 -0.21586698432E+01  0.19906732311E+01  0.15354929599E+01  0.33136647439E+01  0.00000000000E+00 0.  1.
</event>
<event>
 8    1  0.6469014E-010  0.9118800E+02  0.7816164E-02  0.1184000E+00
        -11   -1    0    0    0    0  0.00000000000E+00  0.00000000000E+00  0.45593999997E+02  0.45594000000E+02  0.51100000000E-03 0. -1.
         11   -1    0    0    0    0 -0.00000000000E+00 -0.00000000000E+00 -0.45593999997E+02  0.45594000000E+02  0.51100000000E-03 0.  1.
         23    2    1    2    0    0  0.17763568394E-14  0.17763568394E-14  0.00000000000E+00  0.91188000000E+02  0.91188000000E+02 0.  0.
    9900012    2    3    3    0    0  0.14235702659E+02  0.14299660866E+02  0.38425095590E+02  0.47787268414E+02  0.19999988007E+02 0.  0.
        -12    1    3    3    0    0 -0.14235702659E+02 -0.14299660866E+02 -0.38425095590E+02  0.43400731586E+02  0.00000000000E+00 0.  1.
         11    1    4    4    0    0  0.29972049066E+01 -0.24339599738E+01  0.15937706615E+02  0.16398716133E+02  0.51100000000E-03 0.  1.
        -11    1    4    4    0    0  0.85025119811E+01  0.14467088212E+02  0.22193745784E+02  0.27823581788E+02  0.51100000000E-03 0. -1.
        -12    1    4    4    0    0  0.27359857709E+01  0.22665326279E+01  0.29364319106E+00  0.35649704930E+01  0.00000000000E+00 0.  1.
</event>
<event>
 8    1  0.6469014E-010  0.9118800E+02  0.7816164E-02  0.1184000E+00
        -11   -1    0    0    0    0  0.00000000000E+00  0.00000000000E+00  0.45593999997E+02  0.45594000000E+02  0.51100000000E-03 0. -1.
         11   -1    0    0    0    0 -0.00000000000E+00 -0.00000000000E+00 -0.45593999997E+02  0.45594000000E+02  0.51100000000E-03 0.  1.
         23    2    1    2    0    0  0.00000000000E+00  0.00000000000E+00  0.00000000000E+00  0.91188000000E+02  0.91188000000E+02 0.  0.
    9900012    2    3    3    0    0  0.11361183255E+02 -0.59734017628E+01 -0.41459203182E+02  0.47787267955E+02  0.19999985915E+02 0.  0.
         12    1    3    3    0    0 -0.11361183255E+02  0.59734017628E+01  0.41459203182E+02  0.43400732045E+02  0.00000000000E+00 0. -1.
         11    1    4    4    0    0  0.84868311503E+01 -0.10974851711E+02 -0.19215562193E+02  0.23700453660E+02  0.51100000000E-03 0.  1.
        -11    1    4    4    0    0 -0.11821947872E+01  0.22789121589E+01 -0.15764585501E+02  0.15972262877E+02  0.51100000000E-03 0. -1.
         12    1    4    4    0    0  0.40565468921E+01  0.27225377889E+01 -0.64790554884E+01  0.81145514184E+01  0.00000000000E+00 0. -1.
</event>
<event>
 8    1  0.6469014E-010  0.9118800E+02  0.7816164E-02  0.1184000E+00
        -11   -1    0    0    0    0  0.00000000000E+00  0.00000000000E+00  0.45593999997E+02  0.45594000000E+02  0.51100000000E-03 0.  1.
         11   -1    0    0    0    0 -0.00000000000E+00 -0.00000000000E+00 -0.45593999997E+02  0.45594000000E+02  0.51100000000E-03 0. -1.
         23    2    1    2    0    0  0.00000000000E+00 -0.44408920985E-15  0.00000000000E+00  0.91188000000E+02  0.91188000000E+02 0.  0.
    9900012    2    3    3    0    0  0.42248568171E+02 -0.11924713619E+01  0.98620427679E+01  0.47787269729E+02  0.19999994004E+02 0.  0.
        -12    1    3    3    0    0 -0.42248568171E+02  0.11924713619E+01 -0.98620427679E+01  0.43400730271E+02  0.00000000000E+00 0.  1.
         11    1    4    4    0    0  0.41554909455E+01 -0.36648203853E+01  0.11069820663E+01  0.56501701754E+01  0.51100000000E-03 0. -1.
        -11    1    4    4    0    0  0.34654221203E+02  0.68795982056E+01  0.92610489497E+01  0.36524114590E+02  0.51100000000E-03 0.  1.
        -12    1    4    4    0    0  0.34388560227E+01 -0.44072491822E+01 -0.50598824824E+00  0.56129849640E+01  0.00000000000E+00 0.  1.
</event>
<event>
 8    1  0.6469014E-010  0.9118800E+02  0.7816164E-02  0.1184000E+00
        -11   -1    0    0    0    0  0.00000000000E+00  0.00000000000E+00  0.45593999997E+02  0.45594000000E+02  0.51100000000E-03 0. -1.
         11   -1    0    0    0    0 -0.00000000000E+00 -0.00000000000E+00 -0.45593999997E+02  0.45594000000E+02  0.51100000000E-03 0.  1.
         23    2    1    2    0    0 -0.17763568394E-14 -0.22204460493E-15 -0.71054273576E-14  0.91188000000E+02  0.91188000000E+02 0.  0.
    9900012    2    3    3    0    0 -0.59104706310E+01 -0.10225754956E+01 -0.42984229909E+02  0.47787270229E+02  0.19999996284E+02 0.  0.
         12    1    3    3    0    0  0.59104706310E+01  0.10225754956E+01  0.42984229909E+02  0.43400729771E+02  0.00000000000E+00 0. -1.
         11    1    4    4    0    0 -0.16012110237E+01 -0.24633245785E+01 -0.19759403714E+01  0.35406475868E+01  0.51100000000E-03 0. -1.
        -11    1    4    4    0    0 -0.10032716277E+02 -0.10719583308E+01 -0.21261754671E+02  0.23534372788E+02  0.51100000000E-03 0.  1.
        -12    1    4    4    0    0  0.57234566702E+01  0.25127074137E+01 -0.19746534867E+02  0.20712249855E+02  0.00000000000E+00 0.  1.
</event>
<event>
 8    1  0.6469014E-010  0.9118800E+02  0.7816164E-02  0.1184000E+00
        -11   -1    0    0    0    0  0.00000000000E+00  0.00000000000E+00  0.45593999997E+02  0.45594000000E+02  0.51100000000E-03 0.  1.
         11   -1    0    0    0    0 -0.00000000000E+00 -0.00000000000E+00 -0.45593999997E+02  0.45594000000E+02  0.51100000000E-03 0. -1.
         23    2    1    2    0    0  0.00000000000E+00  0.35527136788E-14 -0.17763568394E-14  0.91188000000E+02  0.91188000000E+02 0.  0.
    9900012    2    3    3    0    0  0.28518952249E+02 -0.31201117713E+02  0.98378248722E+01  0.47787272101E+02  0.20000004819E+02 0.  0.
        -12    1    3    3    0    0 -0.28518952249E+02  0.31201117713E+02 -0.98378248722E+01  0.43400727899E+02  0.00000000000E+00 0.  1.
         11    1    4    4    0    0  0.17521767806E+02 -0.20622143331E+02 -0.17270455244E+00  0.27061318699E+02  0.51100000000E-03 0. -1.
        -11    1    4    4    0    0 -0.60613021614E+00 -0.53198448128E+01  0.22425050752E+01  0.58049092968E+01  0.51100000000E-03 0.  1.
         12    1    4    4    0    0  0.11603314659E+02 -0.52591295688E+01  0.77680243495E+01  0.14921044106E+02  0.00000000000E+00 0. -1.
</event>
<event>
 8    1  0.6469014E-010  0.9118800E+02  0.7816164E-02  0.1184000E+00
        -11   -1    0    0    0    0  0.00000000000E+00  0.00000000000E+00  0.45593999997E+02  0.45594000000E+02  0.51100000000E-03 0. -1.
         11   -1    0    0    0    0 -0.00000000000E+00 -0.00000000000E+00 -0.45593999997E+02  0.45594000000E+02  0.51100000000E-03 0.  1.
         23    2    1    2    0    0  0.17763568394E-14  0.00000000000E+00 -0.71054273576E-14  0.91188000000E+02  0.91188000000E+02 0.  0.
    9900012    2    3    3    0    0  0.97507214518E+01 -0.16755290781E+02 -0.38830490660E+02  0.47787270250E+02  0.19999996376E+02 0.  0.
         12    1    3    3    0    0 -0.97507214518E+01  0.16755290781E+02  0.38830490660E+02  0.43400729750E+02  0.00000000000E+00 0. -1.
         11    1    4    4    0    0  0.54015914477E+01 -0.13587871448E+02 -0.10103611381E+02  0.17773305935E+02  0.51100000000E-03 0. -1.
        -11    1    4    4    0    0  0.57162889479E+01 -0.56653709237E+00 -0.18231556125E+02  0.19115087304E+02  0.51100000000E-03 0.  1.
         12    1    4    4    0    0 -0.13671589439E+01 -0.26008822408E+01 -0.10495323154E+02  0.10898877011E+02  0.00000000000E+00 0. -1.
</event>
<event>
 8    1  0.6469014E-010  0.9118800E+02  0.7816164E-02  0.1184000E+00
        -11   -1    0    0    0    0  0.00000000000E+00  0.00000000000E+00  0.45593999997E+02  0.45594000000E+02  0.51100000000E-03 0. -1.
         11   -1    0    0    0    0 -0.00000000000E+00 -0.00000000000E+00 -0.45593999997E+02  0.45594000000E+02  0.51100000000E-03 0.  1.
         23    2    1    2    0    0  0.00000000000E+00  0.00000000000E+00 -0.35527136788E-14  0.91188000000E+02  0.91188000000E+02 0.  0.
    9900012    2    3    3    0    0 -0.32514336468E+02  0.65736792699E+01 -0.27986197547E+02  0.47787278943E+02  0.20000036014E+02 0.  0.
         12    1    3    3    0    0  0.32514336468E+02 -0.65736792699E+01  0.27986197547E+02  0.43400721057E+02  0.00000000000E+00 0. -1.
         11    1    4    4    0    0 -0.18278680853E+01  0.10617399297E+01  0.21301139669E+01  0.30009630436E+01  0.51100000000E-03 0. -1.
        -11    1    4    4    0    0 -0.29963296202E+02  0.44153411622E+01 -0.30890929709E+02  0.43261344124E+02  0.51100000000E-03 0.  1.
        -12    1    4    4    0    0 -0.72317218069E+00  0.10965981779E+01  0.77461819537E+00  0.15249717753E+01  0.00000000000E+00 0.  1.
</event>
<event>
 8    1  0.6469014E-010  0.9118800E+02  0.7816164E-02  0.1184000E+00
        -11   -1    0    0    0    0  0.00000000000E+00  0.00000000000E+00  0.45593999997E+02  0.45594000000E+02  0.51100000000E-03 0. -1.
         11   -1    0    0    0    0 -0.00000000000E+00 -0.00000000000E+00 -0.45593999997E+02  0.45594000000E+02  0.51100000000E-03 0.  1.
         23    2    1    2    0    0  0.00000000000E+00  0.00000000000E+00  0.71054273576E-14  0.91188000000E+02  0.91188000000E+02 0.  0.
    9900012    2    3    3    0    0 -0.93172419005E+01  0.10596624709E+02  0.41042949926E+02  0.47787272005E+02  0.20000004380E+02 0.  0.
        -12    1    3    3    0    0  0.93172419005E+01 -0.10596624709E+02 -0.41042949926E+02  0.43400727995E+02  0.00000000000E+00 0.  1.
         11    1    4    4    0    0  0.43173789276E+00 -0.27257946171E+01  0.16494771982E+02  0.16724050254E+02  0.51100000000E-03 0. -1.
        -11    1    4    4    0    0 -0.10612329304E+02  0.71367955938E+01  0.16494893543E+02  0.20871916488E+02  0.51100000000E-03 0.  1.
        -12    1    4    4    0    0  0.86334951053E+00  0.61856237319E+01  0.80532844008E+01  0.10191305263E+02  0.00000000000E+00 0.  1.
</event>
<event>
 8    1  0.6469014E-010  0.9118800E+02  0.7816164E-02  0.1184000E+00
        -11   -1    0    0    0    0  0.00000000000E+00  0.00000000000E+00  0.45593999997E+02  0.45594000000E+02  0.51100000000E-03 0. -1.
         11   -1    0    0    0    0 -0.00000000000E+00 -0.00000000000E+00 -0.45593999997E+02  0.45594000000E+02  0.51100000000E-03 0.  1.
         23    2    1    2    0    0  0.35527136788E-14  0.00000000000E+00 -0.35527136788E-14  0.91188000000E+02  0.91188000000E+02 0.  0.
    9900012    2    3    3    0    0 -0.29705120812E+02  0.34521162683E+01  0.31453331653E+02  0.47787269808E+02  0.19999994360E+02 0.  0.
        -12    1    3    3    0    0  0.29705120812E+02 -0.34521162683E+01 -0.31453331653E+02  0.43400730192E+02  0.00000000000E+00 0.  1.
         11    1    4    4    0    0 -0.28367921931E+02 -0.14916015702E+01  0.27102103614E+02  0.39261786644E+02  0.51100000000E-03 0. -1.
        -11    1    4    4    0    0  0.16146712414E+01  0.38258614080E+01  0.28002514021E+01  0.50085713439E+01  0.51100000000E-03 0.  1.
        -12    1    4    4    0    0 -0.29518701226E+01  0.11178564305E+01  0.15509766369E+01  0.35169118198E+01  0.00000000000E+00 0.  1.
</event>
<event>
 8    1  0.6469014E-010  0.9118800E+02  0.7816164E-02  0.1184000E+00
        -11   -1    0    0    0    0  0.00000000000E+00  0.00000000000E+00  0.45593999997E+02  0.45594000000E+02  0.51100000000E-03 0. -1.
         11   -1    0    0    0    0 -0.00000000000E+00 -0.00000000000E+00 -0.45593999997E+02  0.45594000000E+02  0.51100000000E-03 0.  1.
         23    2    1    2    0    0  0.88817841970E-15  0.00000000000E+00  0.00000000000E+00  0.91188000000E+02  0.91188000000E+02 0.  0.
    9900012    2    3    3    0    0 -0.74233629825E+01  0.26757827744E+02  0.33354691765E+02  0.47787272745E+02  0.20000007752E+02 0.  0.
        -12    1    3    3    0    0  0.74233629825E+01 -0.26757827744E+02 -0.33354691765E+02  0.43400727255E+02  0.00000000000E+00 0.  1.
         11    1    4    4    0    0 -0.25339574198E+01  0.22347499713E+02  0.29250122867E+02  0.36897172949E+02  0.51100000000E-03 0. -1.
        -11    1    4    4    0    0 -0.59154905540E+01  0.36987823945E+01  0.55969362825E+01  0.89442560175E+01  0.51100000000E-03 0.  1.
         12    1    4    4    0    0  0.10260849912E+01  0.71154563641E+00 -0.14923673838E+01  0.19458437785E+01  0.00000000000E+00 0. -1.
</event>
<event>
 8    1  0.6469014E-010  0.9118800E+02  0.7816164E-02  0.1184000E+00
        -11   -1    0    0    0    0  0.00000000000E+00  0.00000000000E+00  0.45593999997E+02  0.45594000000E+02  0.51100000000E-03 0. -1.
         11   -1    0    0    0    0 -0.00000000000E+00 -0.00000000000E+00 -0.45593999997E+02  0.45594000000E+02  0.51100000000E-03 0.  1.
         23    2    1    2    0    0  0.35527136788E-14  0.00000000000E+00  0.00000000000E+00  0.91188000000E+02  0.91188000000E+02 0.  0.
    9900012    2    3    3    0    0  0.25584916804E+02 -0.17101363278E+02 -0.30603572389E+02  0.47787271471E+02  0.20000001947E+02 0.  0.
         12    1    3    3    0    0 -0.25584916804E+02  0.17101363278E+02  0.30603572389E+02  0.43400728529E+02  0.00000000000E+00 0. -1.
         11    1    4    4    0    0  0.62183143304E+01 -0.45968272157E+01 -0.23788552947E+01  0.80905627948E+01  0.51100000000E-03 0. -1.
        -11    1    4    4    0    0  0.65197555658E+01 -0.51773149027E+01 -0.22231086143E+02  0.23738849880E+02  0.51100000000E-03 0.  1.
        -12    1    4    4    0    0  0.12846846908E+02 -0.73272211592E+01 -0.59936309509E+01  0.15957858797E+02  0.00000000000E+00 0.  1.
</event>
<event>
 8    1  0.6469014E-010  0.9118800E+02  0.7816164E-02  0.1184000E+00
        -11   -1    0    0    0    0  0.00000000000E+00  0.00000000000E+00  0.45593999997E+02  0.45594000000E+02  0.51100000000E-03 0. -1.
         11   -1    0    0    0    0 -0.00000000000E+00 -0.00000000000E+00 -0.45593999997E+02  0.45594000000E+02  0.51100000000E-03 0.  1.
         23    2    1    2    0    0 -0.88817841970E-15  0.00000000000E+00 -0.71054273576E-14  0.91188000000E+02  0.91188000000E+02 0.  0.
    9900012    2    3    3    0    0  0.25368912083E+01  0.24293901755E+02  0.35874693986E+02  0.47787272493E+02  0.20000006606E+02 0.  0.
        -12    1    3    3    0    0 -0.25368912083E+01 -0.24293901755E+02 -0.35874693986E+02  0.43400727507E+02  0.00000000000E+00 0.  1.
         11    1    4    4    0    0 -0.66072434523E+01  0.15771031452E+02  0.18132275460E+02  0.24923091958E+02  0.51100000000E-03 0. -1.
        -11    1    4    4    0    0  0.58518385520E+01  0.81248492876E+00  0.58555144172E+01  0.83181245212E+01  0.51100000000E-03 0.  1.
         12    1    4    4    0    0  0.32922961086E+01  0.77103853745E+01  0.11886904109E+02  0.14546056015E+02  0.00000000000E+00 0. -1.
</event>
<event>
 8    1  0.6469014E-010  0.9118800E+02  0.7816164E-02  0.1184000E+00
        -11   -1    0    0    0    0  0.00000000000E+00  0.00000000000E+00  0.45593999997E+02  0.45594000000E+02  0.51100000000E-03 0. -1.
         11   -1    0    0    0    0 -0.00000000000E+00 -0.00000000000E+00 -0.45593999997E+02  0.45594000000E+02  0.51100000000E-03 0.  1.
         23    2    1    2    0    0  0.00000000000E+00  0.35527136788E-14  0.00000000000E+00  0.91188000000E+02  0.91188000000E+02 0.  0.
    9900012    2    3    3    0    0 -0.30534569738E+02 -0.26183965062E+02 -0.16299182050E+02  0.47787270617E+02  0.19999998051E+02 0.  0.
         12    1    3    3    0    0  0.30534569738E+02  0.26183965062E+02  0.16299182050E+02  0.43400729383E+02  0.00000000000E+00 0. -1.
         11    1    4    4    0    0 -0.76613975265E+01 -0.11940389319E+02 -0.13206135471E+02  0.19382257956E+02  0.51100000000E-03 0. -1.
        -11    1    4    4    0    0 -0.22964907156E+02 -0.14999216946E+02 -0.27394518972E+01  0.27565704537E+02  0.51100000000E-03 0.  1.
        -12    1    4    4    0    0  0.91734943869E-01  0.75564120287E+00 -0.35359468219E+00  0.83930812380E+00  0.00000000000E+00 0.  1.
</event>
<event>
 8    1  0.6469014E-010  0.9118800E+02  0.7816164E-02  0.1184000E+00
        -11   -1    0    0    0    0  0.00000000000E+00  0.00000000000E+00  0.45593999997E+02  0.45594000000E+02  0.51100000000E-03 0. -1.
         11   -1    0    0    0    0 -0.00000000000E+00 -0.00000000000E+00 -0.45593999997E+02  0.45594000000E+02  0.51100000000E-03 0.  1.
         23    2    1    2    0    0 -0.35527136788E-14 -0.35527136788E-14  0.00000000000E+00  0.91188000000E+02  0.91188000000E+02 0.  0.
    9900012    2    3    3    0    0  0.18798287032E+02  0.17451868292E+02  0.35009750878E+02  0.47787240113E+02  0.19999858971E+02 0.  0.
        -12    1    3    3    0    0 -0.18798287032E+02 -0.17451868292E+02 -0.35009750878E+02  0.43400759887E+02  0.00000000000E+00 0.  1.
         11    1    4    4    0    0 -0.34975794855E+01  0.37569025209E+01  0.10277857870E+02  0.11488330664E+02  0.51100000000E-03 0. -1.
        -11    1    4    4    0    0  0.13362901043E+02  0.67834624927E+01  0.11421667558E+02  0.18842424943E+02  0.51100000000E-03 0.  1.
         12    1    4    4    0    0  0.89329654751E+01  0.69115032780E+01  0.13310225450E+02  0.17456484505E+02  0.00000000000E+00 0. -1.
</event>
<event>
 8    1  0.6469014E-010  0.9118800E+02  0.7816164E-02  0.1184000E+00
        -11   -1    0    0    0    0  0.00000000000E+00  0.00000000000E+00  0.45593999997E+02  0.45594000000E+02  0.51100000000E-03 0.  1.
         11   -1    0    0    0    0 -0.00000000000E+00 -0.00000000000E+00 -0.45593999997E+02  0.45594000000E+02  0.51100000000E-03 0. -1.
         23    2    1    2    0    0  0.00000000000E+00  0.44408920985E-15  0.00000000000E+00  0.91188000000E+02  0.91188000000E+02 0.  0.
    9900012    2    3    3    0    0 -0.42970242746E+02 -0.33613204180E+01 -0.50873151379E+01  0.47787297104E+02  0.20000118814E+02 0.  0.
         12    1    3    3    0    0  0.42970242746E+02  0.33613204180E+01  0.50873151379E+01  0.43400702896E+02  0.00000000000E+00 0. -1.
         11    1    4    4    0    0 -0.10473304048E+01  0.29665133898E+01 -0.42297069521E+01  0.52713872776E+01  0.51100000000E-03 0. -1.
        -11    1    4    4    0    0 -0.24435732800E+02 -0.29894901442E+01 -0.18342749452E+01  0.24686163202E+02  0.51100000000E-03 0.  1.
         12    1    4    4    0    0 -0.17487179541E+02 -0.33383436636E+01  0.97666675941E+00  0.17829746624E+02  0.00000000000E+00 0. -1.
</event>
<event>
 8    1  0.6469014E-010  0.9118800E+02  0.7816164E-02  0.1184000E+00
        -11   -1    0    0    0    0  0.00000000000E+00  0.00000000000E+00  0.45593999997E+02  0.45594000000E+02  0.51100000000E-03 0. -1.
         11   -1    0    0    0    0 -0.00000000000E+00 -0.00000000000E+00 -0.45593999997E+02  0.45594000000E+02  0.51100000000E-03 0.  1.
         23    2    1    2    0    0  0.17763568394E-14 -0.17763568394E-14  0.00000000000E+00  0.91188000000E+02  0.91188000000E+02 0.  0.
    9900012    2    3    3    0    0 -0.11648750997E+02  0.13896028169E+02 -0.39431335866E+02  0.47787271356E+02  0.20000001422E+02 0.  0.
         12    1    3    3    0    0  0.11648750997E+02 -0.13896028169E+02  0.39431335866E+02  0.43400728644E+02  0.00000000000E+00 0. -1.
         11    1    4    4    0    0 -0.21994665296E+01  0.58526682445E+01  0.10208472946E+00  0.62531432215E+01  0.51100000000E-03 0. -1.
        -11    1    4    4    0    0 -0.63811799958E+01  0.70523727653E+01 -0.29364193289E+02  0.30866021246E+02  0.51100000000E-03 0.  1.
         12    1    4    4    0    0 -0.30681044712E+01  0.99098715961E+00 -0.10169227306E+02  0.10668106889E+02  0.00000000000E+00 0. -1.
</event>
<event>
 8    1  0.6469014E-010  0.9118800E+02  0.7816164E-02  0.1184000E+00
        -11   -1    0    0    0    0  0.00000000000E+00  0.00000000000E+00  0.45593999997E+02  0.45594000000E+02  0.51100000000E-03 0. -1.
         11   -1    0    0    0    0 -0.00000000000E+00 -0.00000000000E+00 -0.45593999997E+02  0.45594000000E+02  0.51100000000E-03 0.  1.
         23    2    1    2    0    0  0.88817841970E-15  0.00000000000E+00  0.00000000000E+00  0.91188000000E+02  0.91188000000E+02 0.  0.
    9900012    2    3    3    0    0  0.43923269493E+01  0.20210343671E+02  0.38155900025E+02  0.47787271503E+02  0.20000002093E+02 0.  0.
        -12    1    3    3    0    0 -0.43923269493E+01 -0.20210343671E+02 -0.38155900025E+02  0.43400728497E+02  0.00000000000E+00 0.  1.
         11    1    4    4    0    0 -0.37169472994E+01  0.53321941318E+01  0.11224669626E+02  0.12970782550E+02  0.51100000000E-03 0. -1.
        -11    1    4    4    0    0  0.11882258491E+02  0.12970179684E+02  0.19458853144E+02  0.26230909131E+02  0.51100000000E-03 0.  1.
        -12    1    4    4    0    0 -0.37729842420E+01  0.19079698551E+01  0.74723772544E+01  0.85855798226E+01  0.00000000000E+00 0.  1.
</event>
<event>
 8    1  0.6469014E-010  0.9118800E+02  0.7816164E-02  0.1184000E+00
        -11   -1    0    0    0    0  0.00000000000E+00  0.00000000000E+00  0.45593999997E+02  0.45594000000E+02  0.51100000000E-03 0.  1.
         11   -1    0    0    0    0 -0.00000000000E+00 -0.00000000000E+00 -0.45593999997E+02  0.45594000000E+02  0.51100000000E-03 0. -1.
         23    2    1    2    0    0  0.00000000000E+00  0.00000000000E+00  0.00000000000E+00  0.91188000000E+02  0.91188000000E+02 0.  0.
    9900012    2    3    3    0    0 -0.40974486738E+02  0.71689101624E+01 -0.12382301838E+02  0.47787271490E+02  0.20000002032E+02 0.  0.
        -12    1    3    3    0    0  0.40974486738E+02 -0.71689101624E+01  0.12382301838E+02  0.43400728510E+02  0.00000000000E+00 0.  1.
         11    1    4    4    0    0 -0.45186258267E+01  0.70381919780E+01  0.14309928443E+01  0.84853913559E+01  0.51100000000E-03 0.  1.
        -11    1    4    4    0    0 -0.21844230787E+02  0.65058086961E+00 -0.10786748042E+02  0.24371040350E+02  0.51100000000E-03 0. -1.
        -12    1    4    4    0    0 -0.14611630124E+02 -0.51986268514E+00 -0.30265466409E+01  0.14930839785E+02  0.00000000000E+00 0.  1.
</event>
<event>
 8    1  0.6469014E-010  0.9118800E+02  0.7816164E-02  0.1184000E+00
        -11   -1    0    0    0    0  0.00000000000E+00  0.00000000000E+00  0.45593999997E+02  0.45594000000E+02  0.51100000000E-03 0. -1.
         11   -1    0    0    0    0 -0.00000000000E+00 -0.00000000000E+00 -0.45593999997E+02  0.45594000000E+02  0.51100000000E-03 0.  1.
         23    2    1    2    0    0  0.00000000000E+00  0.00000000000E+00  0.00000000000E+00  0.91188000000E+02  0.91188000000E+02 0.  0.
    9900012    2    3    3    0    0 -0.24806277407E+02 -0.92371229610E+01  0.34394001282E+02  0.47787272315E+02  0.20000005794E+02 0.  0.
        -12    1    3    3    0    0  0.24806277407E+02  0.92371229610E+01 -0.34394001282E+02  0.43400727685E+02  0.00000000000E+00 0.  1.
         11    1    4    4    0    0 -0.73092922003E+01  0.31743088479E+01  0.90244729312E+01  0.12039231748E+02  0.51100000000E-03 0. -1.
        -11    1    4    4    0    0 -0.59196423157E+01 -0.12185249352E+02  0.14891371354E+02  0.20131453201E+02  0.51100000000E-03 0.  1.
        -12    1    4    4    0    0 -0.11577342891E+02 -0.22618245639E+00  0.10478156997E+02  0.15616587367E+02  0.00000000000E+00 0.  1.
</event>
<event>
 8    1  0.6469014E-010  0.9118800E+02  0.7816164E-02  0.1184000E+00
        -11   -1    0    0    0    0  0.00000000000E+00  0.00000000000E+00  0.45593999997E+02  0.45594000000E+02  0.51100000000E-03 0. -1.
         11   -1    0    0    0    0 -0.00000000000E+00 -0.00000000000E+00 -0.45593999997E+02  0.45594000000E+02  0.51100000000E-03 0.  1.
         23    2    1    2    0    0  0.35527136788E-14 -0.17763568394E-14  0.00000000000E+00  0.91188000000E+02  0.91188000000E+02 0.  0.
    9900012    2    3    3    0    0  0.24064914098E+02 -0.11602844464E+02  0.34203479187E+02  0.47787261773E+02  0.19999957728E+02 0.  0.
        -12    1    3    3    0    0 -0.24064914098E+02  0.11602844464E+02 -0.34203479187E+02  0.43400738227E+02  0.00000000000E+00 0.  1.
         11    1    4    4    0    0  0.12114765578E+02 -0.57970035114E+01  0.80295650953E+01  0.15647578426E+02  0.51100000000E-03 0. -1.
        -11    1    4    4    0    0 -0.18265704886E+01  0.12473704995E+01  0.78417816434E+01  0.81477501506E+01  0.51100000000E-03 0.  1.
        -12    1    4    4    0    0  0.13776719009E+02 -0.70532114516E+01  0.18332132448E+02  0.23991933197E+02  0.00000000000E+00 0.  1.
</event>
<event>
 8    1  0.6469014E-010  0.9118800E+02  0.7816164E-02  0.1184000E+00
        -11   -1    0    0    0    0  0.00000000000E+00  0.00000000000E+00  0.45593999997E+02  0.45594000000E+02  0.51100000000E-03 0. -1.
         11   -1    0    0    0    0 -0.00000000000E+00 -0.00000000000E+00 -0.45593999997E+02  0.45594000000E+02  0.51100000000E-03 0.  1.
         23    2    1    2    0    0  0.00000000000E+00  0.00000000000E+00  0.00000000000E+00  0.91188000000E+02  0.91188000000E+02 0.  0.
    9900012    2    3    3    0    0 -0.33318721013E+02 -0.27343727706E+02 -0.50800090310E+01  0.47787272972E+02  0.20000008790E+02 0.  0.
         12    1    3    3    0    0  0.33318721013E+02  0.27343727706E+02  0.50800090310E+01  0.43400727028E+02  0.00000000000E+00 0. -1.
         11    1    4    4    0    0  0.73165162741E+00 -0.41085364871E-01  0.45581324267E+00  0.86299946953E+00  0.51100000000E-03 0. -1.
        -11    1    4    4    0    0 -0.37365007382E+01  0.13653937272E-01 -0.48374973137E+01  0.61125285044E+01  0.51100000000E-03 0.  1.
        -12    1    4    4    0    0 -0.30313871902E+02 -0.27316296278E+02 -0.69832496000E+00  0.40811744998E+02  0.00000000000E+00 0.  1.
</event>
<event>
 8    1  0.6469014E-010  0.9118800E+02  0.7816164E-02  0.1184000E+00
        -11   -1    0    0    0    0  0.00000000000E+00  0.00000000000E+00  0.45593999997E+02  0.45594000000E+02  0.51100000000E-03 0.  1.
         11   -1    0    0    0    0 -0.00000000000E+00 -0.00000000000E+00 -0.45593999997E+02  0.45594000000E+02  0.51100000000E-03 0. -1.
         23    2    1    2    0    0 -0.71054273576E-14  0.00000000000E+00  0.88817841970E-15  0.91188000000E+02  0.91188000000E+02 0.  0.
    9900012    2    3    3    0    0  0.39541336672E+02  0.17086483897E+02 -0.53063342712E+01  0.47787280868E+02  0.20000044791E+02 0.  0.
        -12    1    3    3    0    0 -0.39541336672E+02 -0.17086483897E+02  0.53063342712E+01  0.43400719132E+02  0.00000000000E+00 0.  1.
         11    1    4    4    0    0  0.22208244322E+02  0.15769770120E+02  0.24008904599E+01  0.27343299741E+02  0.51100000000E-03 0. -1.
        -11    1    4    4    0    0  0.16284726825E+02  0.32157761969E+01 -0.58869190786E+01  0.17612193526E+02  0.51100000000E-03 0.  1.
         12    1    4    4    0    0  0.10483655248E+01 -0.18990624191E+01 -0.18203056525E+01  0.28317876004E+01  0.00000000000E+00 0. -1.
</event>
<event>
 8    1  0.6469014E-010  0.9118800E+02  0.7816164E-02  0.1184000E+00
        -11   -1    0    0    0    0  0.00000000000E+00  0.00000000000E+00  0.45593999997E+02  0.45594000000E+02  0.51100000000E-03 0. -1.
         11   -1    0    0    0    0 -0.00000000000E+00 -0.00000000000E+00 -0.45593999997E+02  0.45594000000E+02  0.51100000000E-03 0.  1.
         23    2    1    2    0    0  0.71054273576E-14  0.00000000000E+00  0.35527136788E-14  0.91188000000E+02  0.91188000000E+02 0.  0.
    9900012    2    3    3    0    0  0.32504804943E+02 -0.10665300522E+02  0.26707912443E+02  0.47787267671E+02  0.19999984621E+02 0.  0.
        -12    1    3    3    0    0 -0.32504804943E+02  0.10665300522E+02 -0.26707912443E+02  0.43400732329E+02  0.00000000000E+00 0.  1.
         11    1    4    4    0    0  0.18103466403E+02 -0.14813079045E+02  0.19878235141E+02  0.30697020037E+02  0.51100000000E-03 0. -1.
        -11    1    4    4    0    0  0.10107467448E+02  0.46958681984E+01  0.36799014791E+01  0.11736854413E+02  0.51100000000E-03 0.  1.
         12    1    4    4    0    0  0.42938710914E+01 -0.54808967578E+00  0.31497758234E+01  0.53533932211E+01  0.00000000000E+00 0. -1.
</event>
<event>
 8    1  0.6469014E-010  0.9118800E+02  0.7816164E-02  0.1184000E+00
        -11   -1    0    0    0    0  0.00000000000E+00  0.00000000000E+00  0.45593999997E+02  0.45594000000E+02  0.51100000000E-03 0. -1.
         11   -1    0    0    0    0 -0.00000000000E+00 -0.00000000000E+00 -0.45593999997E+02  0.45594000000E+02  0.51100000000E-03 0.  1.
         23    2    1    2    0    0  0.35527136788E-14 -0.88817841970E-15 -0.71054273576E-14  0.91188000000E+02  0.91188000000E+02 0.  0.
    9900012    2    3    3    0    0  0.20756218319E+02 -0.75163042298E+01  0.37367192610E+02  0.47787279824E+02  0.20000040031E+02 0.  0.
        -12    1    3    3    0    0 -0.20756218319E+02  0.75163042298E+01 -0.37367192610E+02  0.43400720176E+02  0.00000000000E+00 0.  1.
         11    1    4    4    0    0  0.19298457315E+01 -0.77572244724E+01  0.51814788568E+01  0.95260988588E+01  0.51100000000E-03 0. -1.
        -11    1    4    4    0    0  0.26229212687E+01  0.11954622906E+01  0.90722982754E+00  0.30219054074E+01  0.51100000000E-03 0.  1.
         12    1    4    4    0    0  0.16203451319E+02 -0.95454204805E+00  0.31278483926E+02  0.35239275558E+02  0.00000000000E+00 0. -1.
</event>
<event>
 8    1  0.6469014E-010  0.9118800E+02  0.7816164E-02  0.1184000E+00
        -11   -1    0    0    0    0  0.00000000000E+00  0.00000000000E+00  0.45593999997E+02  0.45594000000E+02  0.51100000000E-03 0. -1.
         11   -1    0    0    0    0 -0.00000000000E+00 -0.00000000000E+00 -0.45593999997E+02  0.45594000000E+02  0.51100000000E-03 0.  1.
         23    2    1    2    0    0  0.00000000000E+00  0.00000000000E+00  0.00000000000E+00  0.91188000000E+02  0.91188000000E+02 0.  0.
    9900012    2    3    3    0    0  0.19474616562E+02  0.38412640487E+02 -0.53693274700E+01  0.47787293590E+02  0.20000102793E+02 0.  0.
         12    1    3    3    0    0 -0.19474616562E+02 -0.38412640487E+02  0.53693274700E+01  0.43400706410E+02  0.00000000000E+00 0. -1.
         11    1    4    4    0    0  0.57265549104E+01  0.31682316076E+01  0.18522433390E+01  0.68016121846E+01  0.51100000000E-03 0. -1.
        -11    1    4    4    0    0  0.11540861894E+02  0.34704834586E+02 -0.36534002932E+01  0.36755467224E+02  0.51100000000E-03 0.  1.
        -12    1    4    4    0    0  0.22071997576E+01  0.53957429359E+00 -0.35681705158E+01  0.42302141811E+01  0.00000000000E+00 0.  1.
</event>
<event>
 8    1  0.6469014E-010  0.9118800E+02  0.7816164E-02  0.1184000E+00
        -11   -1    0    0    0    0  0.00000000000E+00  0.00000000000E+00  0.45593999997E+02  0.45594000000E+02  0.51100000000E-03 0. -1.
         11   -1    0    0    0    0 -0.00000000000E+00 -0.00000000000E+00 -0.45593999997E+02  0.45594000000E+02  0.51100000000E-03 0.  1.
         23    2    1    2    0    0  0.00000000000E+00  0.00000000000E+00  0.35527136788E-14  0.91188000000E+02  0.91188000000E+02 0.  0.
    9900012    2    3    3    0    0 -0.23239154440E+01  0.35659477970E+02  0.24629742387E+02  0.47787272332E+02  0.20000005870E+02 0.  0.
        -12    1    3    3    0    0  0.23239154440E+01 -0.35659477970E+02 -0.24629742387E+02  0.43400727668E+02  0.00000000000E+00 0.  1.
         11    1    4    4    0    0  0.72527061484E-01  0.52852499498E+01 -0.17416833109E+01  0.55653021682E+01  0.51100000000E-03 0. -1.
        -11    1    4    4    0    0 -0.15993166210E+01 -0.70810969976E+00  0.63852590186E+00  0.18619743794E+01  0.51100000000E-03 0.  1.
         12    1    4    4    0    0 -0.79712588446E+00  0.31082337720E+02  0.25732899796E+02  0.40359995784E+02  0.00000000000E+00 0. -1.
</event>
<event>
 8    1  0.6469014E-010  0.9118800E+02  0.7816164E-02  0.1184000E+00
        -11   -1    0    0    0    0  0.00000000000E+00  0.00000000000E+00  0.45593999997E+02  0.45594000000E+02  0.51100000000E-03 0.  1.
         11   -1    0    0    0    0 -0.00000000000E+00 -0.00000000000E+00 -0.45593999997E+02  0.45594000000E+02  0.51100000000E-03 0. -1.
         23    2    1    2    0    0  0.00000000000E+00  0.71054273576E-14  0.00000000000E+00  0.91188000000E+02  0.91188000000E+02 0.  0.
    9900012    2    3    3    0    0 -0.10613686449E+02  0.39688294841E+02  0.13993325269E+02  0.47787259919E+02  0.19999949276E+02 0.  0.
         12    1    3    3    0    0  0.10613686449E+02 -0.39688294841E+02 -0.13993325269E+02  0.43400740081E+02  0.00000000000E+00 0. -1.
         11    1    4    4    0    0 -0.84257949504E+00  0.11659351020E+02  0.11468177185E+02  0.16375881491E+02  0.51100000000E-03 0. -1.
        -11    1    4    4    0    0 -0.50976210509E+01  0.15259555518E+02 -0.36180972567E+01  0.16490312398E+02  0.51100000000E-03 0.  1.
        -12    1    4    4    0    0 -0.46734859035E+01  0.12769388304E+02  0.61432453406E+01  0.14921066030E+02  0.00000000000E+00 0.  1.
</event>
<event>
 8    1  0.6469014E-010  0.9118800E+02  0.7816164E-02  0.1184000E+00
        -11   -1    0    0    0    0  0.00000000000E+00  0.00000000000E+00  0.45593999997E+02  0.45594000000E+02  0.51100000000E-03 0. -1.
         11   -1    0    0    0    0 -0.00000000000E+00 -0.00000000000E+00 -0.45593999997E+02  0.45594000000E+02  0.51100000000E-03 0.  1.
         23    2    1    2    0    0  0.00000000000E+00  0.00000000000E+00  0.00000000000E+00  0.91188000000E+02  0.91188000000E+02 0.  0.
    9900012    2    3    3    0    0 -0.91830530703E+01  0.41571221853E+02 -0.84334921034E+01  0.47787323287E+02  0.20000238195E+02 0.  0.
         12    1    3    3    0    0  0.91830530703E+01 -0.41571221853E+02  0.84334921034E+01  0.43400676713E+02  0.00000000000E+00 0. -1.
         11    1    4    4    0    0 -0.99523442733E+00  0.33289270861E+01  0.16463675726E+01  0.38448372599E+01  0.51100000000E-03 0. -1.
        -11    1    4    4    0    0 -0.28056490729E+01  0.95485569551E+01  0.49404069824E+01  0.11110995818E+02  0.51100000000E-03 0.  1.
        -12    1    4    4    0    0 -0.53821695700E+01  0.28693737812E+02 -0.15020266658E+02  0.32831490210E+02  0.00000000000E+00 0.  1.
</event>
<event>
 8    1  0.6469014E-010  0.9118800E+02  0.7816164E-02  0.1184000E+00
        -11   -1    0    0    0    0  0.00000000000E+00  0.00000000000E+00  0.45593999997E+02  0.45594000000E+02  0.51100000000E-03 0. -1.
         11   -1    0    0    0    0 -0.00000000000E+00 -0.00000000000E+00 -0.45593999997E+02  0.45594000000E+02  0.51100000000E-03 0.  1.
         23    2    1    2    0    0 -0.71054273576E-14  0.35527136788E-14  0.17763568394E-14  0.91188000000E+02  0.91188000000E+02 0.  0.
    9900012    2    3    3    0    0  0.36287379424E+02 -0.18211734289E+02 -0.15335657076E+02  0.47787267872E+02  0.19999985537E+02 0.  0.
         12    1    3    3    0    0 -0.36287379424E+02  0.18211734289E+02  0.15335657076E+02  0.43400732128E+02  0.00000000000E+00 0. -1.
         11    1    4    4    0    0  0.13704121764E+02 -0.98189369385E+01  0.12780744801E+01  0.16907038491E+02  0.51100000000E-03 0. -1.
        -11    1    4    4    0    0  0.23576331293E+02 -0.84074056520E+01 -0.16108275884E+02  0.29765826366E+02  0.51100000000E-03 0.  1.
        -12    1    4    4    0    0 -0.99307363269E+00  0.14608301549E-01 -0.50545567239E+00  0.11144030147E+01  0.00000000000E+00 0.  1.
</event>
<event>
 8    1  0.6469014E-010  0.9118800E+02  0.7816164E-02  0.1184000E+00
        -11   -1    0    0    0    0  0.00000000000E+00  0.00000000000E+00  0.45593999997E+02  0.45594000000E+02  0.51100000000E-03 0. -1.
         11   -1    0    0    0    0 -0.00000000000E+00 -0.00000000000E+00 -0.45593999997E+02  0.45594000000E+02  0.51100000000E-03 0.  1.
         23    2    1    2    0    0  0.00000000000E+00 -0.17763568394E-14 -0.35527136788E-14  0.91188000000E+02  0.91188000000E+02 0.  0.
    9900012    2    3    3    0    0 -0.32803752091E+02  0.14820678831E+02  0.24246340653E+02  0.47787266051E+02  0.19999977233E+02 0.  0.
        -12    1    3    3    0    0  0.32803752091E+02 -0.14820678831E+02 -0.24246340653E+02  0.43400733949E+02  0.00000000000E+00 0.  1.
         11    1    4    4    0    0 -0.28251188641E+01  0.39694569731E+01 -0.18436037356E+01  0.52092955620E+01  0.51100000000E-03 0. -1.
        -11    1    4    4    0    0 -0.14796439109E+02 -0.26494771316E+00  0.10557983603E+02  0.18178994076E+02  0.51100000000E-03 0.  1.
         12    1    4    4    0    0 -0.15182194118E+02  0.11116169571E+02  0.15531960786E+02  0.24398976413E+02  0.00000000000E+00 0. -1.
</event>
<event>
 8    1  0.6469014E-010  0.9118800E+02  0.7816164E-02  0.1184000E+00
        -11   -1    0    0    0    0  0.00000000000E+00  0.00000000000E+00  0.45593999997E+02  0.45594000000E+02  0.51100000000E-03 0. -1.
         11   -1    0    0    0    0 -0.00000000000E+00 -0.00000000000E+00 -0.45593999997E+02  0.45594000000E+02  0.51100000000E-03 0.  1.
         23    2    1    2    0    0  0.88817841970E-15  0.00000000000E+00  0.35527136788E-14  0.91188000000E+02  0.91188000000E+02 0.  0.
    9900012    2    3    3    0    0 -0.34071964156E+01  0.36197914003E+02  0.23700751800E+02  0.47787267271E+02  0.19999982793E+02 0.  0.
        -12    1    3    3    0    0  0.34071964156E+01 -0.36197914003E+02 -0.23700751800E+02  0.43400732729E+02  0.00000000000E+00 0.  1.
         11    1    4    4    0    0  0.21517594781E+00  0.13629513481E+02  0.12387219163E+02  0.18418825622E+02  0.51100000000E-03 0. -1.
        -11    1    4    4    0    0  0.54313481699E+01  0.12081791301E+02  0.56654136070E+01  0.14407155707E+02  0.51100000000E-03 0.  1.
        -12    1    4    4    0    0 -0.90537205333E+01  0.10486609221E+02  0.56481190296E+01  0.14961285941E+02  0.00000000000E+00 0.  1.
</event>
<event>
 8    1  0.6469014E-010  0.9118800E+02  0.7816164E-02  0.1184000E+00
        -11   -1    0    0    0    0  0.00000000000E+00  0.00000000000E+00  0.45593999997E+02  0.45594000000E+02  0.51100000000E-03 0.  1.
         11   -1    0    0    0    0 -0.00000000000E+00 -0.00000000000E+00 -0.45593999997E+02  0.45594000000E+02  0.51100000000E-03 0. -1.
         23    2    1    2    0    0  0.00000000000E+00  0.17763568394E-14  0.00000000000E+00  0.91188000000E+02  0.91188000000E+02 0.  0.
    9900012    2    3    3    0    0 -0.40399603298E+02 -0.15824616085E+02 -0.10375272088E+01  0.47787275541E+02  0.20000020500E+02 0.  0.
         12    1    3    3    0    0  0.40399603298E+02  0.15824616085E+02  0.10375272088E+01  0.43400724459E+02  0.00000000000E+00 0. -1.
         11    1    4    4    0    0 -0.33895377867E+02 -0.95045160921E+01 -0.15368016040E+01  0.35236262945E+02  0.51100000000E-03 0.  1.
        -11    1    4    4    0    0 -0.72974887064E+00 -0.61835884960E+01 -0.15597722971E+01  0.64188932054E+01  0.51100000000E-03 0. -1.
        -12    1    4    4    0    0 -0.57744765600E+01 -0.13651149720E+00  0.20590466923E+01  0.61321193899E+01  0.00000000000E+00 0.  1.
</event>
<event>
 8    1  0.6469014E-010  0.9118800E+02  0.7816164E-02  0.1184000E+00
        -11   -1    0    0    0    0  0.00000000000E+00  0.00000000000E+00  0.45593999997E+02  0.45594000000E+02  0.51100000000E-03 0. -1.
         11   -1    0    0    0    0 -0.00000000000E+00 -0.00000000000E+00 -0.45593999997E+02  0.45594000000E+02  0.51100000000E-03 0.  1.
         23    2    1    2    0    0  0.00000000000E+00  0.17763568394E-14 -0.71054273576E-14  0.91188000000E+02  0.91188000000E+02 0.  0.
    9900012    2    3    3    0    0  0.18041858446E+02  0.13739862218E+02 -0.37004471906E+02  0.47787269464E+02  0.19999992795E+02 0.  0.
         12    1    3    3    0    0 -0.18041858446E+02 -0.13739862218E+02  0.37004471906E+02  0.43400730536E+02  0.00000000000E+00 0. -1.
         11    1    4    4    0    0  0.17063203853E+02  0.54681620724E+01 -0.16248621047E+02  0.24188249386E+02  0.51100000000E-03 0. -1.
        -11    1    4    4    0    0  0.28521386079E+01  0.41203972592E+01 -0.45614840825E+01  0.67763932522E+01  0.51100000000E-03 0.  1.
         12    1    4    4    0    0 -0.18734840148E+01  0.41513028868E+01 -0.16194366777E+02  0.16822626826E+02  0.00000000000E+00 0. -1.
</event>
<event>
 8    1  0.6469014E-010  0.9118800E+02  0.7816164E-02  0.1184000E+00
        -11   -1    0    0    0    0  0.00000000000E+00  0.00000000000E+00  0.45593999997E+02  0.45594000000E+02  0.51100000000E-03 0.  1.
         11   -1    0    0    0    0 -0.00000000000E+00 -0.00000000000E+00 -0.45593999997E+02  0.45594000000E+02  0.51100000000E-03 0. -1.
         23    2    1    2    0    0  0.00000000000E+00  0.00000000000E+00  0.00000000000E+00  0.91188000000E+02  0.91188000000E+02 0.  0.
    9900012    2    3    3    0    0  0.10348925764E+01  0.43355031445E+02  0.17007880123E+01  0.47787280719E+02  0.20000044111E+02 0.  0.
         12    1    3    3    0    0 -0.10348925764E+01 -0.43355031445E+02 -0.17007880123E+01  0.43400719281E+02  0.00000000000E+00 0. -1.
         11    1    4    4    0    0 -0.25778286687E+01  0.70436521285E-01 -0.14476200217E+00  0.25828507985E+01  0.51100000000E-03 0. -1.
        -11    1    4    4    0    0  0.81465128304E+01  0.24161723479E+02  0.16318213787E+01  0.25550291467E+02  0.51100000000E-03 0.  1.
        -12    1    4    4    0    0 -0.45337915853E+01  0.19122871445E+02  0.21372863578E+00  0.19654138454E+02  0.00000000000E+00 0.  1.
</event>
<event>
 8    1  0.6469014E-010  0.9118800E+02  0.7816164E-02  0.1184000E+00
        -11   -1    0    0    0    0  0.00000000000E+00  0.00000000000E+00  0.45593999997E+02  0.45594000000E+02  0.51100000000E-03 0. -1.
         11   -1    0    0    0    0 -0.00000000000E+00 -0.00000000000E+00 -0.45593999997E+02  0.45594000000E+02  0.51100000000E-03 0.  1.
         23    2    1    2    0    0  0.00000000000E+00 -0.17763568394E-14  0.00000000000E+00  0.91188000000E+02  0.91188000000E+02 0.  0.
    9900012    2    3    3    0    0  0.46554962841E+01 -0.82138138034E+01 -0.42361338876E+02  0.47787269427E+02  0.19999992627E+02 0.  0.
         12    1    3    3    0    0 -0.46554962841E+01  0.82138138034E+01  0.42361338876E+02  0.43400730573E+02  0.00000000000E+00 0. -1.
         11    1    4    4    0    0  0.20188134941E+01  0.11549625905E+01 -0.58506301415E+01  0.62959844205E+01  0.51100000000E-03 0. -1.
        -11    1    4    4    0    0 -0.35773968631E+01  0.11371839595E+01 -0.91892552764E+00  0.38646319437E+01  0.51100000000E-03 0.  1.
        -12    1    4    4    0    0  0.62140796531E+01 -0.10505960353E+02 -0.35591783207E+02  0.37626653063E+02  0.00000000000E+00 0.  1.
</event>
<event>
 8    1  0.6469014E-010  0.9118800E+02  0.7816164E-02  0.1184000E+00
        -11   -1    0    0    0    0  0.00000000000E+00  0.00000000000E+00  0.45593999997E+02  0.45594000000E+02  0.51100000000E-03 0. -1.
         11   -1    0    0    0    0 -0.00000000000E+00 -0.00000000000E+00 -0.45593999997E+02  0.45594000000E+02  0.51100000000E-03 0.  1.
         23    2    1    2    0    0  0.00000000000E+00 -0.44408920985E-15  0.00000000000E+00  0.91188000000E+02  0.91188000000E+02 0.  0.
    9900012    2    3    3    0    0 -0.31976523441E+02  0.28579509262E+01 -0.29205433755E+02  0.47787270793E+02  0.19999998855E+02 0.  0.
         12    1    3    3    0    0  0.31976523441E+02 -0.28579509262E+01  0.29205433755E+02  0.43400729207E+02  0.00000000000E+00 0. -1.
         11    1    4    4    0    0 -0.10019576912E+02 -0.26997174962E+01 -0.17772722762E+02  0.20580332133E+02  0.51100000000E-03 0. -1.
        -11    1    4    4    0    0 -0.18022222666E+02  0.81187359640E+01 -0.10631636173E+02  0.22444288169E+02  0.51100000000E-03 0.  1.
        -12    1    4    4    0    0 -0.39347238630E+01 -0.25610675416E+01 -0.80107482015E+00  0.47626504909E+01  0.00000000000E+00 0.  1.
</event>
<event>
 8    1  0.6469014E-010  0.9118800E+02  0.7816164E-02  0.1184000E+00
        -11   -1    0    0    0    0  0.00000000000E+00  0.00000000000E+00  0.45593999997E+02  0.45594000000E+02  0.51100000000E-03 0. -1.
         11   -1    0    0    0    0 -0.00000000000E+00 -0.00000000000E+00 -0.45593999997E+02  0.45594000000E+02  0.51100000000E-03 0.  1.
         23    2    1    2    0    0  0.61062266354E-15 -0.35527136788E-14 -0.14210854715E-13  0.91188000000E+02  0.91188000000E+02 0.  0.
    9900012    2    3    3    0    0 -0.49212237486E+00  0.19138738156E+02  0.38949837375E+02  0.47787270580E+02  0.19999997882E+02 0.  0.
        -12    1    3    3    0    0  0.49212237486E+00 -0.19138738156E+02 -0.38949837375E+02  0.43400729420E+02  0.00000000000E+00 0.  1.
         11    1    4    4    0    0  0.22518563923E+01  0.63829609747E+01  0.75297498114E+00  0.68102877765E+01  0.51100000000E-03 0. -1.
        -11    1    4    4    0    0 -0.47743490215E+01  0.55453438306E+01  0.20131341518E+02  0.21419994359E+02  0.51100000000E-03 0.  1.
         12    1    4    4    0    0  0.20303702543E+01  0.72104333509E+01  0.18065520876E+02  0.19556988444E+02  0.00000000000E+00 0. -1.
</event>
<event>
 8    1  0.6469014E-010  0.9118800E+02  0.7816164E-02  0.1184000E+00
        -11   -1    0    0    0    0  0.00000000000E+00  0.00000000000E+00  0.45593999997E+02  0.45594000000E+02  0.51100000000E-03 0. -1.
         11   -1    0    0    0    0 -0.00000000000E+00 -0.00000000000E+00 -0.45593999997E+02  0.45594000000E+02  0.51100000000E-03 0.  1.
         23    2    1    2    0    0  0.00000000000E+00  0.00000000000E+00  0.71054273576E-14  0.91188000000E+02  0.91188000000E+02 0.  0.
    9900012    2    3    3    0    0  0.11889339316E+02  0.18904660697E+02  0.37213986125E+02  0.47787270182E+02  0.19999996068E+02 0.  0.
        -12    1    3    3    0    0 -0.11889339316E+02 -0.18904660697E+02 -0.37213986125E+02  0.43400729818E+02  0.00000000000E+00 0.  1.
         11    1    4    4    0    0  0.10987733632E+02  0.71805543026E+01  0.11320139697E+02  0.17333095900E+02  0.51100000000E-03 0. -1.
        -11    1    4    4    0    0 -0.19396066111E+01  0.10854093190E+02  0.12211062620E+02  0.16452460708E+02  0.51100000000E-03 0.  1.
         12    1    4    4    0    0  0.28412122952E+01  0.87001320413E+00  0.13682783808E+02  0.14001713574E+02  0.00000000000E+00 0. -1.
</event>
<event>
 8    1  0.6469014E-010  0.9118800E+02  0.7816164E-02  0.1184000E+00
        -11   -1    0    0    0    0  0.00000000000E+00  0.00000000000E+00  0.45593999997E+02  0.45594000000E+02  0.51100000000E-03 0. -1.
         11   -1    0    0    0    0 -0.00000000000E+00 -0.00000000000E+00 -0.45593999997E+02  0.45594000000E+02  0.51100000000E-03 0.  1.
         23    2    1    2    0    0 -0.17763568394E-14 -0.17763568394E-14  0.71054273576E-14  0.91188000000E+02  0.91188000000E+02 0.  0.
    9900012    2    3    3    0    0 -0.14667813003E+02 -0.15931280922E+02  0.37612134054E+02  0.47787273299E+02  0.20000010278E+02 0.  0.
        -12    1    3    3    0    0  0.14667813003E+02  0.15931280922E+02 -0.37612134054E+02  0.43400726701E+02  0.00000000000E+00 0.  1.
         11    1    4    4    0    0 -0.13760784979E+02 -0.12272402935E+02  0.31547478201E+02  0.36540586450E+02  0.51100000000E-03 0. -1.
        -11    1    4    4    0    0 -0.27516987660E+01  0.15515167799E+01  0.16639999060E+00  0.31633431106E+01  0.51100000000E-03 0.  1.
         12    1    4    4    0    0  0.18446707414E+01 -0.52103947665E+01  0.58982558622E+01  0.80833437378E+01  0.00000000000E+00 0. -1.
</event>
<event>
 8    1  0.6469014E-010  0.9118800E+02  0.7816164E-02  0.1184000E+00
        -11   -1    0    0    0    0  0.00000000000E+00  0.00000000000E+00  0.45593999997E+02  0.45594000000E+02  0.51100000000E-03 0. -1.
         11   -1    0    0    0    0 -0.00000000000E+00 -0.00000000000E+00 -0.45593999997E+02  0.45594000000E+02  0.51100000000E-03 0.  1.
         23    2    1    2    0    0  0.00000000000E+00  0.00000000000E+00 -0.35527136788E-14  0.91188000000E+02  0.91188000000E+02 0.  0.
    9900012    2    3    3    0    0  0.30062636955E+02  0.54316064743E+01 -0.30827896099E+02  0.47787266510E+02  0.19999979325E+02 0.  0.
         12    1    3    3    0    0 -0.30062636955E+02 -0.54316064743E+01  0.30827896099E+02  0.43400733490E+02  0.00000000000E+00 0. -1.
         11    1    4    4    0    0  0.18333704510E+02  0.37052575699E+01 -0.60851166132E+01  0.19669323811E+02  0.51100000000E-03 0. -1.
        -11    1    4    4    0    0  0.67260763312E+01  0.15740809152E+01 -0.20236715332E+02  0.21383228971E+02  0.51100000000E-03 0.  1.
        -12    1    4    4    0    0  0.50028561136E+01  0.15226798918E+00 -0.45060641539E+01  0.67347137277E+01  0.00000000000E+00 0.  1.
</event>
<event>
 8    1  0.6469014E-010  0.9118800E+02  0.7816164E-02  0.1184000E+00
        -11   -1    0    0    0    0  0.00000000000E+00  0.00000000000E+00  0.45593999997E+02  0.45594000000E+02  0.51100000000E-03 0. -1.
         11   -1    0    0    0    0 -0.00000000000E+00 -0.00000000000E+00 -0.45593999997E+02  0.45594000000E+02  0.51100000000E-03 0.  1.
         23    2    1    2    0    0 -0.88817841970E-15 -0.88817841970E-15  0.00000000000E+00  0.91188000000E+02  0.91188000000E+02 0.  0.
    9900012    2    3    3    0    0  0.55160569943E+01  0.64188537678E+01  0.42567529156E+02  0.47787272968E+02  0.20000008769E+02 0.  0.
        -12    1    3    3    0    0 -0.55160569943E+01 -0.64188537678E+01 -0.42567529156E+02  0.43400727032E+02  0.00000000000E+00 0.  1.
         11    1    4    4    0    0  0.63510204986E+01  0.27706715836E+01  0.38224095742E+02  0.38847053659E+02  0.51100000000E-03 0. -1.
        -11    1    4    4    0    0  0.22775628843E+01 -0.63237881496E+00  0.22032460895E+01  0.32313293317E+01  0.51100000000E-03 0.  1.
         12    1    4    4    0    0 -0.31125263886E+01  0.42805609992E+01  0.21401873246E+01  0.57088899773E+01  0.00000000000E+00 0. -1.
</event>
<event>
 8    1  0.6469014E-010  0.9118800E+02  0.7816164E-02  0.1184000E+00
        -11   -1    0    0    0    0  0.00000000000E+00  0.00000000000E+00  0.45593999997E+02  0.45594000000E+02  0.51100000000E-03 0. -1.
         11   -1    0    0    0    0 -0.00000000000E+00 -0.00000000000E+00 -0.45593999997E+02  0.45594000000E+02  0.51100000000E-03 0.  1.
         23    2    1    2    0    0  0.00000000000E+00  0.00000000000E+00  0.88817841970E-15  0.91188000000E+02  0.91188000000E+02 0.  0.
    9900012    2    3    3    0    0 -0.43179920269E+02 -0.40731220881E+01  0.15897770858E+01  0.47787271560E+02  0.20000002349E+02 0.  0.
         12    1    3    3    0    0  0.43179920269E+02  0.40731220881E+01 -0.15897770858E+01  0.43400728440E+02  0.00000000000E+00 0. -1.
         11    1    4    4    0    0 -0.52053024764E+01  0.30673559895E+01  0.58377588608E+01  0.84013853272E+01  0.51100000000E-03 0. -1.
        -11    1    4    4    0    0 -0.27987660434E+02 -0.30081819040E+01 -0.48384197036E+01  0.28561663125E+02  0.51100000000E-03 0.  1.
         12    1    4    4    0    0 -0.99869573583E+01 -0.41322961735E+01  0.59043792863E+00  0.10824223108E+02  0.00000000000E+00 0. -1.
</event>
<event>
 8    1  0.6469014E-010  0.9118800E+02  0.7816164E-02  0.1184000E+00
        -11   -1    0    0    0    0  0.00000000000E+00  0.00000000000E+00  0.45593999997E+02  0.45594000000E+02  0.51100000000E-03 0. -1.
         11   -1    0    0    0    0 -0.00000000000E+00 -0.00000000000E+00 -0.45593999997E+02  0.45594000000E+02  0.51100000000E-03 0.  1.
         23    2    1    2    0    0  0.00000000000E+00  0.00000000000E+00  0.00000000000E+00  0.91188000000E+02  0.91188000000E+02 0.  0.
    9900012    2    3    3    0    0 -0.17474937936E+02  0.10455958947E+02 -0.38326526645E+02  0.47787272149E+02  0.20000005035E+02 0.  0.
         12    1    3    3    0    0  0.17474937936E+02 -0.10455958947E+02  0.38326526645E+02  0.43400727851E+02  0.00000000000E+00 0. -1.
         11    1    4    4    0    0 -0.24665550924E+01 -0.40339432297E+01 -0.48364737899E+01  0.67637320309E+01  0.51100000000E-03 0. -1.
        -11    1    4    4    0    0 -0.91822396577E+01  0.13715608069E+02 -0.29852346185E+02  0.34111493706E+02  0.51100000000E-03 0.  1.
        -12    1    4    4    0    0 -0.58261431856E+01  0.77429410784E+00 -0.36377066704E+01  0.69120464122E+01  0.00000000000E+00 0.  1.
</event>
<event>
 8    1  0.6469014E-010  0.9118800E+02  0.7816164E-02  0.1184000E+00
        -11   -1    0    0    0    0  0.00000000000E+00  0.00000000000E+00  0.45593999997E+02  0.45594000000E+02  0.51100000000E-03 0.  1.
         11   -1    0    0    0    0 -0.00000000000E+00 -0.00000000000E+00 -0.45593999997E+02  0.45594000000E+02  0.51100000000E-03 0. -1.
         23    2    1    2    0    0  0.00000000000E+00  0.00000000000E+00 -0.17763568394E-14  0.91188000000E+02  0.91188000000E+02 0.  0.
    9900012    2    3    3    0    0 -0.37724512723E+02  0.15459581205E+02  0.14882404571E+02  0.47787268704E+02  0.19999989329E+02 0.  0.
        -12    1    3    3    0    0  0.37724512723E+02 -0.15459581205E+02 -0.14882404571E+02  0.43400731296E+02  0.00000000000E+00 0.  1.
         11    1    4    4    0    0 -0.89207849012E+01  0.43834935890E+01  0.62718825109E+01  0.11752954088E+02  0.51100000000E-03 0. -1.
        -11    1    4    4    0    0 -0.21113760708E+02  0.15190390081E+02  0.45156636104E+01  0.26399432951E+02  0.51100000000E-03 0.  1.
        -12    1    4    4    0    0 -0.76899671136E+01 -0.41143024644E+01  0.40948584498E+01  0.96348816651E+01  0.00000000000E+00 0.  1.
</event>
<event>
 8    1  0.6469014E-010  0.9118800E+02  0.7816164E-02  0.1184000E+00
        -11   -1    0    0    0    0  0.00000000000E+00  0.00000000000E+00  0.45593999997E+02  0.45594000000E+02  0.51100000000E-03 0. -1.
         11   -1    0    0    0    0 -0.00000000000E+00 -0.00000000000E+00 -0.45593999997E+02  0.45594000000E+02  0.51100000000E-03 0.  1.
         23    2    1    2    0    0 -0.17763568394E-14  0.00000000000E+00  0.71054273576E-14  0.91188000000E+02  0.91188000000E+02 0.  0.
    9900012    2    3    3    0    0  0.13228160624E+02  0.17512112924E+02 -0.37442818815E+02  0.47787274046E+02  0.20000013685E+02 0.  0.
         12    1    3    3    0    0 -0.13228160624E+02 -0.17512112924E+02  0.37442818815E+02  0.43400725954E+02  0.00000000000E+00 0. -1.
         11    1    4    4    0    0  0.16418962058E+02  0.69259112472E+01 -0.21910437313E+02  0.28242128553E+02  0.51100000000E-03 0. -1.
        -11    1    4    4    0    0 -0.22506672302E+01  0.14529506451E+01 -0.37156117932E+01  0.45806484057E+01  0.51100000000E-03 0.  1.
         12    1    4    4    0    0 -0.94013420456E+00  0.91332510317E+01 -0.11816769709E+02  0.14964497088E+02  0.00000000000E+00 0. -1.
</event>
<event>
 8    1  0.6469014E-010  0.9118800E+02  0.7816164E-02  0.1184000E+00
        -11   -1    0    0    0    0  0.00000000000E+00  0.00000000000E+00  0.45593999997E+02  0.45594000000E+02  0.51100000000E-03 0.  1.
         11   -1    0    0    0    0 -0.00000000000E+00 -0.00000000000E+00 -0.45593999997E+02  0.45594000000E+02  0.51100000000E-03 0. -1.
         23    2    1    2    0    0  0.00000000000E+00  0.00000000000E+00  0.66613381478E-15  0.91188000000E+02  0.91188000000E+02 0.  0.
    9900012    2    3    3    0    0  0.29267759227E+02 -0.32017859430E+02 -0.13705992743E+01  0.47787267345E+02  0.19999983132E+02 0.  0.
         12    1    3    3    0    0 -0.29267759227E+02  0.32017859430E+02  0.13705992743E+01  0.43400732655E+02  0.00000000000E+00 0. -1.
         11    1    4    4    0    0  0.13264499544E+02 -0.16939520836E+02 -0.95806205905E+01  0.23551700692E+02  0.51100000000E-03 0. -1.
        -11    1    4    4    0    0  0.11408554834E+02 -0.78392373056E+01  0.71979551072E+01  0.15601901260E+02  0.51100000000E-03 0.  1.
        -12    1    4    4    0    0  0.45947048477E+01 -0.72391012886E+01  0.10120662091E+01  0.86336653929E+01  0.00000000000E+00 0.  1.
</event>
<event>
 8    1  0.6469014E-010  0.9118800E+02  0.7816164E-02  0.1184000E+00
        -11   -1    0    0    0    0  0.00000000000E+00  0.00000000000E+00  0.45593999997E+02  0.45594000000E+02  0.51100000000E-03 0. -1.
         11   -1    0    0    0    0 -0.00000000000E+00 -0.00000000000E+00 -0.45593999997E+02  0.45594000000E+02  0.51100000000E-03 0.  1.
         23    2    1    2    0    0  0.48572257327E-16  0.00000000000E+00  0.00000000000E+00  0.91188000000E+02  0.91188000000E+02 0.  0.
    9900012    2    3    3    0    0  0.18263352162E-01 -0.24200173820E+02  0.36027402773E+02  0.47787279994E+02  0.20000040804E+02 0.  0.
        -12    1    3    3    0    0 -0.18263352162E-01  0.24200173820E+02 -0.36027402773E+02  0.43400720006E+02  0.00000000000E+00 0.  1.
         11    1    4    4    0    0  0.55320090463E+01 -0.64564156470E+01  0.21362390643E+02  0.22992176089E+02  0.51100000000E-03 0. -1.
        -11    1    4    4    0    0 -0.68003830002E+01 -0.16984388973E+02  0.12473500946E+02  0.22142784464E+02  0.51100000000E-03 0.  1.
        -12    1    4    4    0    0  0.12866373060E+01 -0.75936920026E+00  0.21915111851E+01  0.26523194404E+01  0.00000000000E+00 0.  1.
</event>
<event>
 8    1  0.6469014E-010  0.9118800E+02  0.7816164E-02  0.1184000E+00
        -11   -1    0    0    0    0  0.00000000000E+00  0.00000000000E+00  0.45593999997E+02  0.45594000000E+02  0.51100000000E-03 0. -1.
         11   -1    0    0    0    0 -0.00000000000E+00 -0.00000000000E+00 -0.45593999997E+02  0.45594000000E+02  0.51100000000E-03 0.  1.
         23    2    1    2    0    0  0.88817841970E-15  0.88817841970E-15  0.00000000000E+00  0.91188000000E+02  0.91188000000E+02 0.  0.
    9900012    2    3    3    0    0  0.65673219201E+01  0.42660968083E+01  0.42688338458E+02  0.47787267984E+02  0.19999986047E+02 0.  0.
        -12    1    3    3    0    0 -0.65673219201E+01 -0.42660968083E+01 -0.42688338458E+02  0.43400732016E+02  0.00000000000E+00 0.  1.
         11    1    4    4    0    0  0.12557889954E+02  0.10181696795E+01  0.29547532087E+02  0.32121549189E+02  0.51100000000E-03 0. -1.
        -11    1    4    4    0    0 -0.50190389195E+01  0.11152669228E+01  0.12008730644E+02  0.13063084779E+02  0.51100000000E-03 0.  1.
         12    1    4    4    0    0 -0.97152911419E+00  0.21326602060E+01  0.11320757266E+01  0.26026340166E+01  0.00000000000E+00 0. -1.
</event>
<event>
 8    1  0.6469014E-010  0.9118800E+02  0.7816164E-02  0.1184000E+00
        -11   -1    0    0    0    0  0.00000000000E+00  0.00000000000E+00  0.45593999997E+02  0.45594000000E+02  0.51100000000E-03 0.  1.
         11   -1    0    0    0    0 -0.00000000000E+00 -0.00000000000E+00 -0.45593999997E+02  0.45594000000E+02  0.51100000000E-03 0. -1.
         23    2    1    2    0    0  0.71054273576E-14 -0.35527136788E-14 -0.44408920985E-15  0.91188000000E+02  0.91188000000E+02 0.  0.
    9900012    2    3    3    0    0  0.38429651881E+02 -0.19807700263E+02  0.37998820873E+01  0.47787282986E+02  0.20000054446E+02 0.  0.
         12    1    3    3    0    0 -0.38429651881E+02  0.19807700263E+02 -0.37998820873E+01  0.43400717014E+02  0.00000000000E+00 0. -1.
         11    1    4    4    0    0  0.53140052885E+01 -0.84123673353E+00 -0.57638311324E+01  0.78846738064E+01  0.51100000000E-03 0. -1.
        -11    1    4    4    0    0  0.10182324648E+02 -0.79375733503E+01  0.58921946195E+01  0.14191644148E+02  0.51100000000E-03 0.  1.
         12    1    4    4    0    0  0.22933321945E+02 -0.11028890180E+02  0.36715186002E+01  0.25710965031E+02  0.00000000000E+00 0. -1.
</event>
<event>
 8    1  0.6469014E-010  0.9118800E+02  0.7816164E-02  0.1184000E+00
        -11   -1    0    0    0    0  0.00000000000E+00  0.00000000000E+00  0.45593999997E+02  0.45594000000E+02  0.51100000000E-03 0. -1.
         11   -1    0    0    0    0 -0.00000000000E+00 -0.00000000000E+00 -0.45593999997E+02  0.45594000000E+02  0.51100000000E-03 0.  1.
         23    2    1    2    0    0  0.00000000000E+00  0.00000000000E+00  0.35527136788E-14  0.91188000000E+02  0.91188000000E+02 0.  0.
    9900012    2    3    3    0    0  0.27126081911E+02 -0.19230653694E+02 -0.27892298423E+02  0.47787277970E+02  0.20000031578E+02 0.  0.
         12    1    3    3    0    0 -0.27126081911E+02  0.19230653694E+02  0.27892298423E+02  0.43400722030E+02  0.00000000000E+00 0. -1.
         11    1    4    4    0    0  0.18304502960E+02 -0.12190545512E+02 -0.96889874354E+01  0.24032076612E+02  0.51100000000E-03 0. -1.
        -11    1    4    4    0    0 -0.16234634828E+01 -0.60595412039E+00 -0.67609154914E+01  0.69794550374E+01  0.51100000000E-03 0.  1.
         12    1    4    4    0    0  0.10445042434E+02 -0.64341540618E+01 -0.11442395497E+02  0.16775746321E+02  0.00000000000E+00 0. -1.
</event>
<event>
 8    1  0.6469014E-010  0.9118800E+02  0.7816164E-02  0.1184000E+00
        -11   -1    0    0    0    0  0.00000000000E+00  0.00000000000E+00  0.45593999997E+02  0.45594000000E+02  0.51100000000E-03 0. -1.
         11   -1    0    0    0    0 -0.00000000000E+00 -0.00000000000E+00 -0.45593999997E+02  0.45594000000E+02  0.51100000000E-03 0.  1.
         23    2    1    2    0    0  0.17763568394E-14 -0.71054273576E-14  0.00000000000E+00  0.91188000000E+02  0.91188000000E+02 0.  0.
    9900012    2    3    3    0    0  0.11465193663E+02 -0.37621973689E+02  0.18351007639E+02  0.47787273608E+02  0.20000011687E+02 0.  0.
        -12    1    3    3    0    0 -0.11465193663E+02  0.37621973689E+02 -0.18351007639E+02  0.43400726392E+02  0.00000000000E+00 0.  1.
         11    1    4    4    0    0 -0.17866648549E+01 -0.12384695219E+02  0.25282581382E+01  0.12765772066E+02  0.51100000000E-03 0. -1.
        -11    1    4    4    0    0  0.71975738138E+01 -0.31600089514E+01  0.68736231011E+01  0.10442098456E+02  0.51100000000E-03 0.  1.
         12    1    4    4    0    0  0.60542847040E+01 -0.22077269519E+02  0.89491263998E+01  0.24579403085E+02  0.00000000000E+00 0. -1.
</event>
<event>
 8    1  0.6469014E-010  0.9118800E+02  0.7816164E-02  0.1184000E+00
        -11   -1    0    0    0    0  0.00000000000E+00  0.00000000000E+00  0.45593999997E+02  0.45594000000E+02  0.51100000000E-03 0. -1.
         11   -1    0    0    0    0 -0.00000000000E+00 -0.00000000000E+00 -0.45593999997E+02  0.45594000000E+02  0.51100000000E-03 0.  1.
         23    2    1    2    0    0  0.44408920985E-15  0.00000000000E+00  0.71054273576E-14  0.91188000000E+02  0.91188000000E+02 0.  0.
    9900012    2    3    3    0    0 -0.33353095495E+01 -0.95343713351E+01  0.42208939793E+02  0.47787272759E+02  0.20000007818E+02 0.  0.
        -12    1    3    3    0    0  0.33353095495E+01  0.95343713351E+01 -0.42208939793E+02  0.43400727241E+02  0.00000000000E+00 0.  1.
         11    1    4    4    0    0 -0.99021644073E+01 -0.22781969409E+00  0.25315146698E+02  0.27183844731E+02  0.51100000000E-03 0. -1.
        -11    1    4    4    0    0  0.40857952878E+01 -0.71543777084E+01  0.99218970428E+01  0.12896622997E+02  0.51100000000E-03 0.  1.
        -12    1    4    4    0    0  0.24810595700E+01 -0.21521739326E+01  0.69718960528E+01  0.77068050318E+01  0.00000000000E+00 0.  1.
</event>
<event>
 8    1  0.6469014E-010  0.9118800E+02  0.7816164E-02  0.1184000E+00
        -11   -1    0    0    0    0  0.00000000000E+00  0.00000000000E+00  0.45593999997E+02  0.45594000000E+02  0.51100000000E-03 0. -1.
         11   -1    0    0    0    0 -0.00000000000E+00 -0.00000000000E+00 -0.45593999997E+02  0.45594000000E+02  0.51100000000E-03 0.  1.
         23    2    1    2    0    0  0.00000000000E+00 -0.11102230246E-15  0.00000000000E+00  0.91188000000E+02  0.91188000000E+02 0.  0.
    9900012    2    3    3    0    0 -0.10714188381E+02  0.56622503211E+00  0.42053642001E+02  0.47787271331E+02  0.20000001308E+02 0.  0.
        -12    1    3    3    0    0  0.10714188381E+02 -0.56622503211E+00 -0.42053642001E+02  0.43400728669E+02  0.00000000000E+00 0.  1.
         11    1    4    4    0    0  0.20859723856E+01  0.26516139701E+01  0.10097000585E+02  0.10645738984E+02  0.51100000000E-03 0. -1.
        -11    1    4    4    0    0 -0.15616853352E+02 -0.27373458440E+01  0.28687841394E+02  0.32777605388E+02  0.51100000000E-03 0.  1.
        -12    1    4    4    0    0  0.28166925846E+01  0.65195690596E+00  0.32688000221E+01  0.43639269595E+01  0.00000000000E+00 0.  1.
</event>
<event>
 8    1  0.6469014E-010  0.9118800E+02  0.7816164E-02  0.1184000E+00
        -11   -1    0    0    0    0  0.00000000000E+00  0.00000000000E+00  0.45593999997E+02  0.45594000000E+02  0.51100000000E-03 0. -1.
         11   -1    0    0    0    0 -0.00000000000E+00 -0.00000000000E+00 -0.45593999997E+02  0.45594000000E+02  0.51100000000E-03 0.  1.
         23    2    1    2    0    0  0.00000000000E+00  0.00000000000E+00  0.35527136788E-14  0.91188000000E+02  0.91188000000E+02 0.  0.
    9900012    2    3    3    0    0  0.22327527316E+02  0.32058155931E+02  0.18904480928E+02  0.47787271471E+02  0.20000001943E+02 0.  0.
        -12    1    3    3    0    0 -0.22327527316E+02 -0.32058155931E+02 -0.18904480928E+02  0.43400728529E+02  0.00000000000E+00 0.  1.
         11    1    4    4    0    0  0.53540608027E-01  0.80612459873E+01  0.89576326282E+01  0.12050964112E+02  0.51100000000E-03 0. -1.
        -11    1    4    4    0    0  0.74122687536E+01  0.54483692014E+01 -0.15579556091E+01  0.93302562114E+01  0.51100000000E-03 0.  1.
         12    1    4    4    0    0  0.14861717955E+02  0.18548540742E+02  0.11504803909E+02  0.26406051147E+02  0.00000000000E+00 0. -1.
</event>
<event>
 8    1  0.6469014E-010  0.9118800E+02  0.7816164E-02  0.1184000E+00
        -11   -1    0    0    0    0  0.00000000000E+00  0.00000000000E+00  0.45593999997E+02  0.45594000000E+02  0.51100000000E-03 0.  1.
         11   -1    0    0    0    0 -0.00000000000E+00 -0.00000000000E+00 -0.45593999997E+02  0.45594000000E+02  0.51100000000E-03 0. -1.
         23    2    1    2    0    0  0.35527136788E-14  0.00000000000E+00  0.13322676296E-14  0.91188000000E+02  0.91188000000E+02 0.  0.
    9900012    2    3    3    0    0  0.23224474923E+02  0.36621918256E+02  0.17554599473E+01  0.47787276828E+02  0.20000026371E+02 0.  0.
         12    1    3    3    0    0 -0.23224474923E+02 -0.36621918256E+02 -0.17554599473E+01  0.43400723172E+02  0.00000000000E+00 0. -1.
         11    1    4    4    0    0  0.12250676217E+02  0.23589544442E+02 -0.70054504475E+01  0.27488579647E+02  0.51100000000E-03 0. -1.
        -11    1    4    4    0    0  0.11341033143E+02  0.13365614336E+02  0.90474209057E+01  0.19725985518E+02  0.51100000000E-03 0.  1.
         12    1    4    4    0    0 -0.36723443641E+00 -0.33324052256E+00 -0.28651051091E+00  0.57271166395E+00  0.00000000000E+00 0. -1.
</event>
<event>
 8    1  0.6469014E-010  0.9118800E+02  0.7816164E-02  0.1184000E+00
        -11   -1    0    0    0    0  0.00000000000E+00  0.00000000000E+00  0.45593999997E+02  0.45594000000E+02  0.51100000000E-03 0. -1.
         11   -1    0    0    0    0 -0.00000000000E+00 -0.00000000000E+00 -0.45593999997E+02  0.45594000000E+02  0.51100000000E-03 0.  1.
         23    2    1    2    0    0  0.00000000000E+00  0.00000000000E+00  0.00000000000E+00  0.91188000000E+02  0.91188000000E+02 0.  0.
    9900012    2    3    3    0    0  0.10805105608E+02  0.22648162630E+02  0.35410927157E+02  0.47787270284E+02  0.19999996533E+02 0.  0.
        -12    1    3    3    0    0 -0.10805105608E+02 -0.22648162630E+02 -0.35410927157E+02  0.43400729716E+02  0.00000000000E+00 0.  1.
         11    1    4    4    0    0  0.10005904800E+02  0.41256451729E+01  0.63797328967E+01  0.12563441847E+02  0.51100000000E-03 0. -1.
        -11    1    4    4    0    0 -0.26864770903E+01  0.64092908682E+01  0.13818848202E+02  0.15467925991E+02  0.51100000000E-03 0.  1.
         12    1    4    4    0    0  0.34856778986E+01  0.12113226589E+02  0.15212346059E+02  0.19755902445E+02  0.00000000000E+00 0. -1.
</event>
<event>
 8    1  0.6469014E-010  0.9118800E+02  0.7816164E-02  0.1184000E+00
        -11   -1    0    0    0    0  0.00000000000E+00  0.00000000000E+00  0.45593999997E+02  0.45594000000E+02  0.51100000000E-03 0. -1.
         11   -1    0    0    0    0 -0.00000000000E+00 -0.00000000000E+00 -0.45593999997E+02  0.45594000000E+02  0.51100000000E-03 0.  1.
         23    2    1    2    0    0  0.00000000000E+00  0.71054273576E-14 -0.71054273576E-14  0.91188000000E+02  0.91188000000E+02 0.  0.
    9900012    2    3    3    0    0 -0.10708065581E+02 -0.31253467926E+02  0.28145705756E+02  0.47787277905E+02  0.20000031281E+02 0.  0.
        -12    1    3    3    0    0  0.10708065581E+02  0.31253467926E+02 -0.28145705756E+02  0.43400722095E+02  0.00000000000E+00 0.  1.
         11    1    4    4    0    0  0.89528220333E+00  0.11837777942E+01 -0.11571714834E+01  0.18819952691E+01  0.51100000000E-03 0. -1.
        -11    1    4    4    0    0 -0.26809745441E+01 -0.17020260753E+01  0.39982913584E+01  0.51059623299E+01  0.51100000000E-03 0.  1.
         12    1    4    4    0    0 -0.89223732399E+01 -0.30735219645E+02  0.25304585881E+02  0.40799320306E+02  0.00000000000E+00 0. -1.
</event>
<event>
 8    1  0.6469014E-010  0.9118800E+02  0.7816164E-02  0.1184000E+00
        -11   -1    0    0    0    0  0.00000000000E+00  0.00000000000E+00  0.45593999997E+02  0.45594000000E+02  0.51100000000E-03 0. -1.
         11   -1    0    0    0    0 -0.00000000000E+00 -0.00000000000E+00 -0.45593999997E+02  0.45594000000E+02  0.51100000000E-03 0.  1.
         23    2    1    2    0    0 -0.71054273576E-14  0.00000000000E+00 -0.35527136788E-14  0.91188000000E+02  0.91188000000E+02 0.  0.
    9900012    2    3    3    0    0 -0.32809476481E+02  0.19387880375E+02  0.20767081150E+02  0.47787270607E+02  0.19999998004E+02 0.  0.
        -12    1    3    3    0    0  0.32809476481E+02 -0.19387880375E+02 -0.20767081150E+02  0.43400729393E+02  0.00000000000E+00 0.  1.
         11    1    4    4    0    0 -0.96043198596E+01  0.79747391218E+01  0.86313046820E+01  0.15176918159E+02  0.51100000000E-03 0. -1.
        -11    1    4    4    0    0 -0.15142546723E+02  0.84595167604E+01 -0.47735804658E+00  0.17351887968E+02  0.51100000000E-03 0.  1.
        -12    1    4    4    0    0 -0.80626098981E+01  0.29536244932E+01  0.12613134514E+02  0.15258464480E+02  0.00000000000E+00 0.  1.
</event>
<event>
 8    1  0.6469014E-010  0.9118800E+02  0.7816164E-02  0.1184000E+00
        -11   -1    0    0    0    0  0.00000000000E+00  0.00000000000E+00  0.45593999997E+02  0.45594000000E+02  0.51100000000E-03 0. -1.
         11   -1    0    0    0    0 -0.00000000000E+00 -0.00000000000E+00 -0.45593999997E+02  0.45594000000E+02  0.51100000000E-03 0.  1.
         23    2    1    2    0    0  0.00000000000E+00 -0.88817841970E-15  0.00000000000E+00  0.91188000000E+02  0.91188000000E+02 0.  0.
    9900012    2    3    3    0    0 -0.32204602647E+02 -0.40606367706E+01 -0.28809688124E+02  0.47787270370E+02  0.19999996926E+02 0.  0.
         12    1    3    3    0    0  0.32204602647E+02  0.40606367706E+01  0.28809688124E+02  0.43400729630E+02  0.00000000000E+00 0. -1.
         11    1    4    4    0    0 -0.99824818231E+01 -0.97065992033E+01 -0.95978426651E+01  0.16911138209E+02  0.51100000000E-03 0. -1.
        -11    1    4    4    0    0 -0.97127636568E+01 -0.13718490675E+01 -0.83982057723E+01  0.12913156398E+02  0.51100000000E-03 0.  1.
         12    1    4    4    0    0 -0.12509357167E+02  0.70178115002E+01 -0.10813639686E+02  0.17962975763E+02  0.00000000000E+00 0. -1.
</event>
<event>
 8    1  0.6469014E-010  0.9118800E+02  0.7816164E-02  0.1184000E+00
        -11   -1    0    0    0    0  0.00000000000E+00  0.00000000000E+00  0.45593999997E+02  0.45594000000E+02  0.51100000000E-03 0. -1.
         11   -1    0    0    0    0 -0.00000000000E+00 -0.00000000000E+00 -0.45593999997E+02  0.45594000000E+02  0.51100000000E-03 0.  1.
         23    2    1    2    0    0  0.35527136788E-14  0.00000000000E+00 -0.71054273576E-14  0.91188000000E+02  0.91188000000E+02 0.  0.
    9900012    2    3    3    0    0  0.20089986355E+02  0.20124034081E+02  0.32787795246E+02  0.47787264793E+02  0.19999971497E+02 0.  0.
        -12    1    3    3    0    0 -0.20089986355E+02 -0.20124034081E+02 -0.32787795246E+02  0.43400735207E+02  0.00000000000E+00 0.  1.
         11    1    4    4    0    0  0.13910376908E+02  0.89498154506E+01  0.26901618724E+02  0.31579975816E+02  0.51100000000E-03 0. -1.
        -11    1    4    4    0    0  0.38075607768E+01  0.76913652703E+01 -0.45429619661E+00  0.85942424964E+01  0.51100000000E-03 0.  1.
        -12    1    4    4    0    0  0.23720486693E+01  0.34828533603E+01  0.63404727185E+01  0.76130464804E+01  0.00000000000E+00 0.  1.
</event>
<event>
 8    1  0.6469014E-010  0.9118800E+02  0.7816164E-02  0.1184000E+00
        -11   -1    0    0    0    0  0.00000000000E+00  0.00000000000E+00  0.45593999997E+02  0.45594000000E+02  0.51100000000E-03 0. -1.
         11   -1    0    0    0    0 -0.00000000000E+00 -0.00000000000E+00 -0.45593999997E+02  0.45594000000E+02  0.51100000000E-03 0.  1.
         23    2    1    2    0    0  0.00000000000E+00  0.00000000000E+00  0.71054273576E-14  0.91188000000E+02  0.91188000000E+02 0.  0.
    9900012    2    3    3    0    0 -0.68618416698E+01 -0.24472256716E+02  0.35180207952E+02  0.47787271303E+02  0.20000001178E+02 0.  0.
        -12    1    3    3    0    0  0.68618416698E+01  0.24472256716E+02 -0.35180207952E+02  0.43400728697E+02  0.00000000000E+00 0.  1.
         11    1    4    4    0    0 -0.56907702057E+01 -0.88850080257E+01  0.20281548815E+02  0.22861965264E+02  0.51100000000E-03 0. -1.
        -11    1    4    4    0    0 -0.41900935001E+01 -0.88582723506E+01  0.19024478252E+01  0.99822432632E+01  0.51100000000E-03 0.  1.
        -12    1    4    4    0    0  0.30190220360E+01 -0.67289763399E+01  0.12996211313E+02  0.14943062776E+02  0.00000000000E+00 0.  1.
</event>
<event>
 8    1  0.6469014E-010  0.9118800E+02  0.7816164E-02  0.1184000E+00
        -11   -1    0    0    0    0  0.00000000000E+00  0.00000000000E+00  0.45593999997E+02  0.45594000000E+02  0.51100000000E-03 0. -1.
         11   -1    0    0    0    0 -0.00000000000E+00 -0.00000000000E+00 -0.45593999997E+02  0.45594000000E+02  0.51100000000E-03 0.  1.
         23    2    1    2    0    0  0.00000000000E+00  0.00000000000E+00  0.71054273576E-14  0.91188000000E+02  0.91188000000E+02 0.  0.
    9900012    2    3    3    0    0  0.14888529147E+02  0.23203883970E+02  0.33519167769E+02  0.47787272594E+02  0.20000007064E+02 0.  0.
        -12    1    3    3    0    0 -0.14888529147E+02 -0.23203883970E+02 -0.33519167769E+02  0.43400727406E+02  0.00000000000E+00 0.  1.
         11    1    4    4    0    0  0.77604840386E+01  0.17098241367E+02  0.23546936511E+02  0.30116991711E+02  0.51100000000E-03 0. -1.
        -11    1    4    4    0    0 -0.12344482866E+01  0.14665453356E+01 -0.17129384825E+01  0.25707540333E+01  0.51100000000E-03 0.  1.
        -12    1    4    4    0    0  0.83624933949E+01  0.46390972674E+01  0.11685169740E+02  0.15099526850E+02  0.00000000000E+00 0.  1.
</event>
<event>
 8    1  0.6469014E-010  0.9118800E+02  0.7816164E-02  0.1184000E+00
        -11   -1    0    0    0    0  0.00000000000E+00  0.00000000000E+00  0.45593999997E+02  0.45594000000E+02  0.51100000000E-03 0. -1.
         11   -1    0    0    0    0 -0.00000000000E+00 -0.00000000000E+00 -0.45593999997E+02  0.45594000000E+02  0.51100000000E-03 0.  1.
         23    2    1    2    0    0 -0.17763568394E-14  0.00000000000E+00 -0.35527136788E-14  0.91188000000E+02  0.91188000000E+02 0.  0.
    9900012    2    3    3    0    0 -0.13993468292E+02 -0.33429887057E+02 -0.23879880983E+02  0.47787271674E+02  0.20000002869E+02 0.  0.
         12    1    3    3    0    0  0.13993468292E+02  0.33429887057E+02  0.23879880983E+02  0.43400728326E+02  0.00000000000E+00 0. -1.
         11    1    4    4    0    0 -0.32738988041E+01 -0.11164783569E+02 -0.16927922957E+01  0.11757395611E+02  0.51100000000E-03 0. -1.
        -11    1    4    4    0    0 -0.64613847219E+01 -0.22849417229E+02 -0.20639589110E+02  0.31461690976E+02  0.51100000000E-03 0.  1.
        -12    1    4    4    0    0 -0.42581847655E+01  0.58431374038E+00 -0.15474995773E+01  0.45681850867E+01  0.00000000000E+00 0.  1.
</event>
<event>
 8    1  0.6469014E-010  0.9118800E+02  0.7816164E-02  0.1184000E+00
        -11   -1    0    0    0    0  0.00000000000E+00  0.00000000000E+00  0.45593999997E+02  0.45594000000E+02  0.51100000000E-03 0. -1.
         11   -1    0    0    0    0 -0.00000000000E+00 -0.00000000000E+00 -0.45593999997E+02  0.45594000000E+02  0.51100000000E-03 0.  1.
         23    2    1    2    0    0  0.71054273576E-14 -0.88817841970E-15  0.00000000000E+00  0.91188000000E+02  0.91188000000E+02 0.  0.
    9900012    2    3    3    0    0 -0.38362890597E+02  0.79773937033E+01 -0.18662076189E+02  0.47787271056E+02  0.20000000051E+02 0.  0.
         12    1    3    3    0    0  0.38362890597E+02 -0.79773937033E+01  0.18662076189E+02  0.43400728944E+02  0.00000000000E+00 0. -1.
         11    1    4    4    0    0 -0.21176214822E+01  0.34243908670E+00 -0.48794854586E+01  0.53301936054E+01  0.51100000000E-03 0. -1.
        -11    1    4    4    0    0 -0.32957388501E+02  0.27039915261E+01 -0.15152163343E+02  0.36374291487E+02  0.51100000000E-03 0.  1.
        -12    1    4    4    0    0 -0.32878806136E+01  0.49309630905E+01  0.13695726125E+01  0.60827859628E+01  0.00000000000E+00 0.  1.
</event>
<event>
 8    1  0.6469014E-010  0.9118800E+02  0.7816164E-02  0.1184000E+00
        -11   -1    0    0    0    0  0.00000000000E+00  0.00000000000E+00  0.45593999997E+02  0.45594000000E+02  0.51100000000E-03 0. -1.
         11   -1    0    0    0    0 -0.00000000000E+00 -0.00000000000E+00 -0.45593999997E+02  0.45594000000E+02  0.51100000000E-03 0.  1.
         23    2    1    2    0    0 -0.17763568394E-14  0.00000000000E+00  0.00000000000E+00  0.91188000000E+02  0.91188000000E+02 0.  0.
    9900012    2    3    3    0    0  0.20540254999E+01 -0.16754369411E+02  0.39983692880E+02  0.47787267156E+02  0.19999982270E+02 0.  0.
        -12    1    3    3    0    0 -0.20540254999E+01  0.16754369411E+02 -0.39983692880E+02  0.43400732844E+02  0.00000000000E+00 0.  1.
         11    1    4    4    0    0 -0.21127534473E+01 -0.16425710521E+01  0.16800071978E+01  0.31597770864E+01  0.51100000000E-03 0.  1.
        -11    1    4    4    0    0 -0.49554317182E+01 -0.42822820519E+01  0.22381156762E+02  0.23319743167E+02  0.51100000000E-03 0. -1.
        -12    1    4    4    0    0  0.91222106654E+01 -0.10829516307E+02  0.15922528920E+02  0.21307746903E+02  0.00000000000E+00 0.  1.
</event>
<event>
 8    1  0.6469014E-010  0.9118800E+02  0.7816164E-02  0.1184000E+00
        -11   -1    0    0    0    0  0.00000000000E+00  0.00000000000E+00  0.45593999997E+02  0.45594000000E+02  0.51100000000E-03 0. -1.
         11   -1    0    0    0    0 -0.00000000000E+00 -0.00000000000E+00 -0.45593999997E+02  0.45594000000E+02  0.51100000000E-03 0.  1.
         23    2    1    2    0    0  0.71054273576E-14  0.00000000000E+00  0.00000000000E+00  0.91188000000E+02  0.91188000000E+02 0.  0.
    9900012    2    3    3    0    0  0.32946787888E+02  0.10010380035E+02 -0.26418263921E+02  0.47787271790E+02  0.20000003398E+02 0.  0.
         12    1    3    3    0    0 -0.32946787888E+02 -0.10010380035E+02  0.26418263921E+02  0.43400728210E+02  0.00000000000E+00 0. -1.
         11    1    4    4    0    0  0.27898951705E+01 -0.42165394071E+01  0.13628513397E+00  0.50577953233E+01  0.51100000000E-03 0. -1.
        -11    1    4    4    0    0  0.20842883459E+02  0.83908725233E+01 -0.17197514866E+02  0.28294647028E+02  0.51100000000E-03 0.  1.
        -12    1    4    4    0    0  0.93140092582E+01  0.58360469192E+01 -0.93570341891E+01  0.14434829439E+02  0.00000000000E+00 0.  1.
</event>
<event>
 8    1  0.6469014E-010  0.9118800E+02  0.7816164E-02  0.1184000E+00
        -11   -1    0    0    0    0  0.00000000000E+00  0.00000000000E+00  0.45593999997E+02  0.45594000000E+02  0.51100000000E-03 0. -1.
         11   -1    0    0    0    0 -0.00000000000E+00 -0.00000000000E+00 -0.45593999997E+02  0.45594000000E+02  0.51100000000E-03 0.  1.
         23    2    1    2    0    0 -0.88817841970E-15  0.00000000000E+00  0.00000000000E+00  0.91188000000E+02  0.91188000000E+02 0.  0.
    9900012    2    3    3    0    0 -0.59677912041E+01  0.21981808858E+01 -0.42932233968E+02  0.47787271383E+02  0.20000001543E+02 0.  0.
         12    1    3    3    0    0  0.59677912041E+01 -0.21981808858E+01  0.42932233968E+02  0.43400728617E+02  0.00000000000E+00 0. -1.
         11    1    4    4    0    0 -0.64175427634E+01 -0.11960962363E+01 -0.16210074424E+02  0.17475182815E+02  0.51100000000E-03 0. -1.
        -11    1    4    4    0    0 -0.26123945338E+01  0.78357374979E+01 -0.11474130022E+02  0.14137858655E+02  0.51100000000E-03 0.  1.
        -12    1    4    4    0    0  0.30621460931E+01 -0.44414603758E+01 -0.15248029522E+02  0.16174229913E+02  0.00000000000E+00 0.  1.
</event>
<event>
 8    1  0.6469014E-010  0.9118800E+02  0.7816164E-02  0.1184000E+00
        -11   -1    0    0    0    0  0.00000000000E+00  0.00000000000E+00  0.45593999997E+02  0.45594000000E+02  0.51100000000E-03 0. -1.
         11   -1    0    0    0    0 -0.00000000000E+00 -0.00000000000E+00 -0.45593999997E+02  0.45594000000E+02  0.51100000000E-03 0.  1.
         23    2    1    2    0    0  0.35527136788E-14  0.00000000000E+00  0.44408920985E-15  0.91188000000E+02  0.91188000000E+02 0.  0.
    9900012    2    3    3    0    0  0.28286537775E+02  0.32673047955E+02 -0.39958754403E+01  0.47787270714E+02  0.19999998495E+02 0.  0.
         12    1    3    3    0    0 -0.28286537775E+02 -0.32673047955E+02  0.39958754403E+01  0.43400729286E+02  0.00000000000E+00 0. -1.
         11    1    4    4    0    0 -0.14021556653E+01  0.10732749080E+01  0.20265800099E+00  0.17773660468E+01  0.51100000000E-03 0. -1.
        -11    1    4    4    0    0  0.17742215587E+02  0.27225875546E+02 -0.63387754948E+01  0.33109131493E+02  0.51100000000E-03 0.  1.
        -12    1    4    4    0    0  0.11946477854E+02  0.43738975012E+01  0.21402420535E+01  0.12900773175E+02  0.00000000000E+00 0.  1.
</event>
<event>
 8    1  0.6469014E-010  0.9118800E+02  0.7816164E-02  0.1184000E+00
        -11   -1    0    0    0    0  0.00000000000E+00  0.00000000000E+00  0.45593999997E+02  0.45594000000E+02  0.51100000000E-03 0. -1.
         11   -1    0    0    0    0 -0.00000000000E+00 -0.00000000000E+00 -0.45593999997E+02  0.45594000000E+02  0.51100000000E-03 0.  1.
         23    2    1    2    0    0  0.00000000000E+00  0.00000000000E+00  0.71054273576E-14  0.91188000000E+02  0.91188000000E+02 0.  0.
    9900012    2    3    3    0    0  0.56451136250E+01  0.11634430992E+02 -0.41429410100E+02  0.47787270587E+02  0.19999997914E+02 0.  0.
         12    1    3    3    0    0 -0.56451136250E+01 -0.11634430992E+02  0.41429410100E+02  0.43400729413E+02  0.00000000000E+00 0. -1.
         11    1    4    4    0    0  0.80115534520E+01  0.27430849391E+01 -0.46636939966E+01  0.96674477320E+01  0.51100000000E-03 0. -1.
        -11    1    4    4    0    0 -0.34572027533E+01  0.59813845367E+01 -0.27103304285E+02  0.27969953795E+02  0.51100000000E-03 0.  1.
         12    1    4    4    0    0  0.10907629263E+01  0.29099615158E+01 -0.96624118189E+01  0.10149869060E+02  0.00000000000E+00 0. -1.
</event>
<event>
 8    1  0.6469014E-010  0.9118800E+02  0.7816164E-02  0.1184000E+00
        -11   -1    0    0    0    0  0.00000000000E+00  0.00000000000E+00  0.45593999997E+02  0.45594000000E+02  0.51100000000E-03 0. -1.
         11   -1    0    0    0    0 -0.00000000000E+00 -0.00000000000E+00 -0.45593999997E+02  0.45594000000E+02  0.51100000000E-03 0.  1.
         23    2    1    2    0    0  0.35527136788E-14  0.00000000000E+00 -0.35527136788E-14  0.91188000000E+02  0.91188000000E+02 0.  0.
    9900012    2    3    3    0    0  0.28166453097E+02  0.18607895013E+02 -0.27276739577E+02  0.47787270065E+02  0.19999995536E+02 0.  0.
         12    1    3    3    0    0 -0.28166453097E+02 -0.18607895013E+02  0.27276739577E+02  0.43400729935E+02  0.00000000000E+00 0. -1.
         11    1    4    4    0    0  0.14297258500E+01  0.94205478634E+01 -0.40959110551E+01  0.10371466901E+02  0.51100000000E-03 0. -1.
        -11    1    4    4    0    0  0.98581113840E+01  0.28207199647E+01 -0.37909895124E+01  0.10932082277E+02  0.51100000000E-03 0.  1.
         12    1    4    4    0    0  0.16878615864E+02  0.63666271851E+01 -0.19389839009E+02  0.26483720887E+02  0.00000000000E+00 0. -1.
</event>
<event>
 8    1  0.6469014E-010  0.9118800E+02  0.7816164E-02  0.1184000E+00
        -11   -1    0    0    0    0  0.00000000000E+00  0.00000000000E+00  0.45593999997E+02  0.45594000000E+02  0.51100000000E-03 0. -1.
         11   -1    0    0    0    0 -0.00000000000E+00 -0.00000000000E+00 -0.45593999997E+02  0.45594000000E+02  0.51100000000E-03 0.  1.
         23    2    1    2    0    0  0.00000000000E+00 -0.22204460493E-15  0.00000000000E+00  0.91188000000E+02  0.91188000000E+02 0.  0.
    9900012    2    3    3    0    0 -0.84403458941E+01  0.14327046014E+01 -0.42547933018E+02  0.47787323907E+02  0.20000241018E+02 0.  0.
         12    1    3    3    0    0  0.84403458941E+01 -0.14327046014E+01  0.42547933018E+02  0.43400676093E+02  0.00000000000E+00 0. -1.
         11    1    4    4    0    0 -0.12097464006E+01  0.54876239065E+00  0.17657020523E+01  0.22095996274E+01  0.51100000000E-03 0. -1.
        -11    1    4    4    0    0 -0.21341067392E+01 -0.33453233708E+01 -0.19180672868E+02  0.19586827511E+02  0.51100000000E-03 0.  1.
         12    1    4    4    0    0 -0.50964927544E+01  0.42292655815E+01 -0.25132962202E+02  0.25990896768E+02  0.00000000000E+00 0. -1.
</event>
<event>
 8    1  0.6469014E-010  0.9118800E+02  0.7816164E-02  0.1184000E+00
        -11   -1    0    0    0    0  0.00000000000E+00  0.00000000000E+00  0.45593999997E+02  0.45594000000E+02  0.51100000000E-03 0. -1.
         11   -1    0    0    0    0 -0.00000000000E+00 -0.00000000000E+00 -0.45593999997E+02  0.45594000000E+02  0.51100000000E-03 0.  1.
         23    2    1    2    0    0  0.00000000000E+00  0.00000000000E+00  0.00000000000E+00  0.91188000000E+02  0.91188000000E+02 0.  0.
    9900012    2    3    3    0    0  0.35149532884E+02 -0.25219106919E+02 -0.34829763654E+01  0.47787261065E+02  0.19999954499E+02 0.  0.
         12    1    3    3    0    0 -0.35149532884E+02  0.25219106919E+02  0.34829763654E+01  0.43400738935E+02  0.00000000000E+00 0. -1.
         11    1    4    4    0    0  0.16529802606E+01 -0.64315305641E+01 -0.13653716871E+01  0.67794667375E+01  0.51100000000E-03 0. -1.
        -11    1    4    4    0    0  0.33554577199E+02 -0.20232377216E+02 -0.10255811088E+01  0.39195797679E+02  0.51100000000E-03 0.  1.
        -12    1    4    4    0    0 -0.58024575288E-01  0.14448008608E+01 -0.10920235695E+01  0.18119966488E+01  0.00000000000E+00 0.  1.
</event>
<event>
 8    1  0.6469014E-010  0.9118800E+02  0.7816164E-02  0.1184000E+00
        -11   -1    0    0    0    0  0.00000000000E+00  0.00000000000E+00  0.45593999997E+02  0.45594000000E+02  0.51100000000E-03 0. -1.
         11   -1    0    0    0    0 -0.00000000000E+00 -0.00000000000E+00 -0.45593999997E+02  0.45594000000E+02  0.51100000000E-03 0.  1.
         23    2    1    2    0    0  0.00000000000E+00  0.00000000000E+00 -0.35527136788E-14  0.91188000000E+02  0.91188000000E+02 0.  0.
    9900012    2    3    3    0    0 -0.30701823448E+02  0.81828625130E+01  0.29564540824E+02  0.47787271019E+02  0.19999999886E+02 0.  0.
        -12    1    3    3    0    0  0.30701823448E+02 -0.81828625130E+01 -0.29564540824E+02  0.43400728981E+02  0.00000000000E+00 0.  1.
         11    1    4    4    0    0 -0.13589791546E+02  0.19484191947E+01  0.49283383662E+01  0.14586544859E+02  0.51100000000E-03 0. -1.
        -11    1    4    4    0    0 -0.88750155623E+01  0.66595331105E+01  0.21830701493E+02  0.24488666979E+02  0.51100000000E-03 0.  1.
        -12    1    4    4    0    0 -0.82370163401E+01 -0.42508979209E+00  0.28055009650E+01  0.87120591815E+01  0.00000000000E+00 0.  1.
</event>
<event>
 8    1  0.6469014E-010  0.9118800E+02  0.7816164E-02  0.1184000E+00
        -11   -1    0    0    0    0  0.00000000000E+00  0.00000000000E+00  0.45593999997E+02  0.45594000000E+02  0.51100000000E-03 0.  1.
         11   -1    0    0    0    0 -0.00000000000E+00 -0.00000000000E+00 -0.45593999997E+02  0.45594000000E+02  0.51100000000E-03 0. -1.
         23    2    1    2    0    0  0.00000000000E+00  0.35527136788E-14  0.00000000000E+00  0.91188000000E+02  0.91188000000E+02 0.  0.
    9900012    2    3    3    0    0  0.36172942728E+02 -0.22642710612E+02 -0.79024832353E+01  0.47787269928E+02  0.19999994911E+02 0.  0.
         12    1    3    3    0    0 -0.36172942728E+02  0.22642710612E+02  0.79024832353E+01  0.43400730072E+02  0.00000000000E+00 0. -1.
         11    1    4    4    0    0  0.11086676753E+02 -0.23833794893E+01 -0.68591115670E+01  0.13253011392E+02  0.51100000000E-03 0. -1.
        -11    1    4    4    0    0  0.22946436480E+02 -0.21915427738E+02 -0.16037533429E+01  0.31771007934E+02  0.51100000000E-03 0.  1.
        -12    1    4    4    0    0  0.21398294955E+01  0.16560966157E+01  0.56038167458E+00  0.27632506024E+01  0.00000000000E+00 0.  1.
</event>
<event>
 8    1  0.6469014E-010  0.9118800E+02  0.7816164E-02  0.1184000E+00
        -11   -1    0    0    0    0  0.00000000000E+00  0.00000000000E+00  0.45593999997E+02  0.45594000000E+02  0.51100000000E-03 0. -1.
         11   -1    0    0    0    0 -0.00000000000E+00 -0.00000000000E+00 -0.45593999997E+02  0.45594000000E+02  0.51100000000E-03 0.  1.
         23    2    1    2    0    0  0.17763568394E-14 -0.71054273576E-14  0.00000000000E+00  0.91188000000E+02  0.91188000000E+02 0.  0.
    9900012    2    3    3    0    0 -0.85220090033E+01  0.25632891892E+02  0.33969888387E+02  0.47787273033E+02  0.20000009068E+02 0.  0.
        -12    1    3    3    0    0  0.85220090033E+01 -0.25632891892E+02 -0.33969888387E+02  0.43400726967E+02  0.00000000000E+00 0.  1.
         11    1    4    4    0    0 -0.69520624082E+01  0.20037941359E+02  0.25046306596E+02  0.32820233698E+02  0.51100000000E-03 0. -1.
        -11    1    4    4    0    0  0.27793070991E+01 -0.18659054780E+01  0.29961298529E+01  0.44925433287E+01  0.51100000000E-03 0.  1.
        -12    1    4    4    0    0 -0.43492536942E+01  0.74608560106E+01  0.59274519389E+01  0.10474496007E+02  0.00000000000E+00 0.  1.
</event>
<event>
 8    1  0.6469014E-010  0.9118800E+02  0.7816164E-02  0.1184000E+00
        -11   -1    0    0    0    0  0.00000000000E+00  0.00000000000E+00  0.45593999997E+02  0.45594000000E+02  0.51100000000E-03 0. -1.
         11   -1    0    0    0    0 -0.00000000000E+00 -0.00000000000E+00 -0.45593999997E+02  0.45594000000E+02  0.51100000000E-03 0.  1.
         23    2    1    2    0    0  0.00000000000E+00  0.66613381478E-15  0.00000000000E+00  0.91188000000E+02  0.91188000000E+02 0.  0.
    9900012    2    3    3    0    0  0.38615140450E+02 -0.51479271781E+00  0.19804807097E+02  0.47787257291E+02  0.19999937292E+02 0.  0.
        -12    1    3    3    0    0 -0.38615140450E+02  0.51479271781E+00 -0.19804807097E+02  0.43400742709E+02  0.00000000000E+00 0.  1.
         11    1    4    4    0    0  0.14103722868E+02  0.19379802096E+01  0.16366701890E+02  0.21691927002E+02  0.51100000000E-03 0. -1.
        -11    1    4    4    0    0  0.22059645702E+02  0.23786707819E+00  0.39738027616E+01  0.22415968815E+02  0.51100000000E-03 0.  1.
         12    1    4    4    0    0  0.24517718796E+01 -0.26906400056E+01 -0.53569755410E+00  0.36793614743E+01  0.00000000000E+00 0. -1.
</event>
<event>
 8    1  0.6469014E-010  0.9118800E+02  0.7816164E-02  0.1184000E+00
        -11   -1    0    0    0    0  0.00000000000E+00  0.00000000000E+00  0.45593999997E+02  0.45594000000E+02  0.51100000000E-03 0.  1.
         11   -1    0    0    0    0 -0.00000000000E+00 -0.00000000000E+00 -0.45593999997E+02  0.45594000000E+02  0.51100000000E-03 0. -1.
         23    2    1    2    0    0  0.35527136788E-14  0.00000000000E+00 -0.17763568394E-14  0.91188000000E+02  0.91188000000E+02 0.  0.
    9900012    2    3    3    0    0  0.19006568382E+02  0.37073830546E+02 -0.12161611708E+02  0.47787270141E+02  0.19999995880E+02 0.  0.
         12    1    3    3    0    0 -0.19006568382E+02 -0.37073830546E+02  0.12161611708E+02  0.43400729859E+02  0.00000000000E+00 0. -1.
         11    1    4    4    0    0 -0.50895467917E+00  0.72586992905E+01 -0.35267195043E+01  0.80861301609E+01  0.51100000000E-03 0. -1.
        -11    1    4    4    0    0  0.31113939275E+01  0.70312018913E+01  0.42780987353E+01  0.87989034123E+01  0.51100000000E-03 0.  1.
        -12    1    4    4    0    0  0.16404129134E+02  0.22783929364E+02 -0.12912990939E+02  0.30902236568E+02  0.00000000000E+00 0.  1.
</event>
<event>
 8    1  0.6469014E-010  0.9118800E+02  0.7816164E-02  0.1184000E+00
        -11   -1    0    0    0    0  0.00000000000E+00  0.00000000000E+00  0.45593999997E+02  0.45594000000E+02  0.51100000000E-03 0. -1.
         11   -1    0    0    0    0 -0.00000000000E+00 -0.00000000000E+00 -0.45593999997E+02  0.45594000000E+02  0.51100000000E-03 0.  1.
         23    2    1    2    0    0  0.00000000000E+00 -0.71054273576E-14  0.00000000000E+00  0.91188000000E+02  0.91188000000E+02 0.  0.
    9900012    2    3    3    0    0 -0.16474121136E+02 -0.36103224568E+02 -0.17572231575E+02  0.47787276343E+02  0.20000024160E+02 0.  0.
         12    1    3    3    0    0  0.16474121136E+02  0.36103224568E+02  0.17572231575E+02  0.43400723657E+02  0.00000000000E+00 0. -1.
         11    1    4    4    0    0 -0.15205543565E+02 -0.12985993256E+02 -0.13472012232E+02  0.24110986911E+02  0.51100000000E-03 0.  1.
        -11    1    4    4    0    0 -0.46761285852E+00 -0.12324673240E+02 -0.78868646266E+00  0.12358732089E+02  0.51100000000E-03 0. -1.
        -12    1    4    4    0    0 -0.80096471230E+00 -0.10792558072E+02 -0.33115328797E+01  0.11317557343E+02  0.00000000000E+00 0.  1.
</event>
<event>
 8    1  0.6469014E-010  0.9118800E+02  0.7816164E-02  0.1184000E+00
        -11   -1    0    0    0    0  0.00000000000E+00  0.00000000000E+00  0.45593999997E+02  0.45594000000E+02  0.51100000000E-03 0. -1.
         11   -1    0    0    0    0 -0.00000000000E+00 -0.00000000000E+00 -0.45593999997E+02  0.45594000000E+02  0.51100000000E-03 0.  1.
         23    2    1    2    0    0  0.00000000000E+00  0.00000000000E+00  0.00000000000E+00  0.91188000000E+02  0.91188000000E+02 0.  0.
    9900012    2    3    3    0    0 -0.28463641257E+02 -0.94645439874E+01  0.31366654917E+02  0.47787268356E+02  0.19999987743E+02 0.  0.
        -12    1    3    3    0    0  0.28463641257E+02  0.94645439874E+01 -0.31366654917E+02  0.43400731644E+02  0.00000000000E+00 0.  1.
         11    1    4    4    0    0 -0.19041402626E+02 -0.13674700292E+01  0.20205499507E+02  0.27797611387E+02  0.51100000000E-03 0. -1.
        -11    1    4    4    0    0  0.12028345587E+01 -0.51109559372E+01  0.19056320654E+01  0.55857063472E+01  0.51100000000E-03 0.  1.
         12    1    4    4    0    0 -0.10625073190E+02 -0.29861180210E+01  0.92555233451E+01  0.14403950622E+02  0.00000000000E+00 0. -1.
</event>
<event>
 8    1  0.6469014E-010  0.9118800E+02  0.7816164E-02  0.1184000E+00
        -11   -1    0    0    0    0  0.00000000000E+00  0.00000000000E+00  0.45593999997E+02  0.45594000000E+02  0.51100000000E-03 0. -1.
         11   -1    0    0    0    0 -0.00000000000E+00 -0.00000000000E+00 -0.45593999997E+02  0.45594000000E+02  0.51100000000E-03 0.  1.
         23    2    1    2    0    0  0.44408920985E-15 -0.17763568394E-14  0.00000000000E+00  0.91188000000E+02  0.91188000000E+02 0.  0.
    9900012    2    3    3    0    0 -0.28935227353E+01  0.86248624800E+01 -0.42436574595E+02  0.47787267403E+02  0.19999983395E+02 0.  0.
         12    1    3    3    0    0  0.28935227353E+01 -0.86248624800E+01  0.42436574595E+02  0.43400732597E+02  0.00000000000E+00 0. -1.
         11    1    4    4    0    0  0.16263949580E+01 -0.27978913333E+01 -0.11692758759E+02  0.12132351962E+02  0.51100000000E-03 0. -1.
        -11    1    4    4    0    0 -0.48266960012E+01  0.13926563476E+02 -0.29168220032E+02  0.32680747002E+02  0.51100000000E-03 0.  1.
        -12    1    4    4    0    0  0.30677830791E+00 -0.25038096631E+01 -0.15755958043E+01  0.29741684381E+01  0.00000000000E+00 0.  1.
</event>
<event>
 8    1  0.6469014E-010  0.9118800E+02  0.7816164E-02  0.1184000E+00
        -11   -1    0    0    0    0  0.00000000000E+00  0.00000000000E+00  0.45593999997E+02  0.45594000000E+02  0.51100000000E-03 0. -1.
         11   -1    0    0    0    0 -0.00000000000E+00 -0.00000000000E+00 -0.45593999997E+02  0.45594000000E+02  0.51100000000E-03 0.  1.
         23    2    1    2    0    0  0.00000000000E+00 -0.88817841970E-15  0.00000000000E+00  0.91188000000E+02  0.91188000000E+02 0.  0.
    9900012    2    3    3    0    0 -0.34765874319E+01  0.29889557964E+01  0.43157885016E+02  0.47787267794E+02  0.19999985180E+02 0.  0.
        -12    1    3    3    0    0  0.34765874319E+01 -0.29889557964E+01 -0.43157885016E+02  0.43400732206E+02  0.00000000000E+00 0.  1.
         11    1    4    4    0    0 -0.72691613010E+01  0.56596598920E+01  0.41826019869E+02  0.42828593188E+02  0.51100000000E-03 0. -1.
        -11    1    4    4    0    0  0.35180894982E+01 -0.21196443786E+01  0.13998658647E+01  0.43392938031E+01  0.51100000000E-03 0.  1.
         12    1    4    4    0    0  0.27448437093E+00 -0.55105971696E+00 -0.68000717423E-01  0.61938080299E+00  0.00000000000E+00 0. -1.
</event>
<event>
 8    1  0.6469014E-010  0.9118800E+02  0.7816164E-02  0.1184000E+00
        -11   -1    0    0    0    0  0.00000000000E+00  0.00000000000E+00  0.45593999997E+02  0.45594000000E+02  0.51100000000E-03 0. -1.
         11   -1    0    0    0    0 -0.00000000000E+00 -0.00000000000E+00 -0.45593999997E+02  0.45594000000E+02  0.51100000000E-03 0.  1.
         23    2    1    2    0    0  0.00000000000E+00  0.00000000000E+00 -0.35527136788E-14  0.91188000000E+02  0.91188000000E+02 0.  0.
    9900012    2    3    3    0    0 -0.23714222871E+02  0.28640516811E+02  0.22382609934E+02  0.47787253497E+02  0.19999919993E+02 0.  0.
        -12    1    3    3    0    0  0.23714222871E+02 -0.28640516811E+02 -0.22382609934E+02  0.43400746503E+02  0.00000000000E+00 0.  1.
         11    1    4    4    0    0 -0.13473903138E+02  0.35770419763E+01  0.38586859640E+01  0.14464810842E+02  0.51100000000E-03 0. -1.
        -11    1    4    4    0    0  0.63326760909E+00  0.13188250999E+01  0.17616693176E+01  0.22899359280E+01  0.51100000000E-03 0.  1.
         12    1    4    4    0    0 -0.10873587342E+02  0.23744649735E+02  0.16762254652E+02  0.31032506727E+02  0.00000000000E+00 0. -1.
</event>
<event>
 8    1  0.6469014E-010  0.9118800E+02  0.7816164E-02  0.1184000E+00
        -11   -1    0    0    0    0  0.00000000000E+00  0.00000000000E+00  0.45593999997E+02  0.45594000000E+02  0.51100000000E-03 0.  1.
         11   -1    0    0    0    0 -0.00000000000E+00 -0.00000000000E+00 -0.45593999997E+02  0.45594000000E+02  0.51100000000E-03 0. -1.
         23    2    1    2    0    0  0.35527136788E-14  0.71054273576E-14  0.00000000000E+00  0.91188000000E+02  0.91188000000E+02 0.  0.
    9900012    2    3    3    0    0 -0.23486971680E+02 -0.36219313778E+02  0.44885696351E+01  0.47787265137E+02  0.19999973066E+02 0.  0.
         12    1    3    3    0    0  0.23486971680E+02  0.36219313778E+02 -0.44885696351E+01  0.43400734863E+02  0.00000000000E+00 0. -1.
         11    1    4    4    0    0 -0.48993185580E+01 -0.11189728976E+02  0.10403002475E+02  0.16044806563E+02  0.51100000000E-03 0. -1.
        -11    1    4    4    0    0 -0.29746783374E+01 -0.44990161069E+01 -0.97283314328E+00  0.54805348030E+01  0.51100000000E-03 0.  1.
         12    1    4    4    0    0 -0.15612974785E+02 -0.20530568696E+02 -0.49415996967E+01  0.26261923771E+02  0.00000000000E+00 0. -1.
</event>
<event>
 8    1  0.6469014E-010  0.9118800E+02  0.7816164E-02  0.1184000E+00
        -11   -1    0    0    0    0  0.00000000000E+00  0.00000000000E+00  0.45593999997E+02  0.45594000000E+02  0.51100000000E-03 0. -1.
         11   -1    0    0    0    0 -0.00000000000E+00 -0.00000000000E+00 -0.45593999997E+02  0.45594000000E+02  0.51100000000E-03 0.  1.
         23    2    1    2    0    0  0.17763568394E-14 -0.88817841970E-15  0.00000000000E+00  0.91188000000E+02  0.91188000000E+02 0.  0.
    9900012    2    3    3    0    0  0.37538443786E+01 -0.64807394616E+01 -0.42749640391E+02  0.47787273219E+02  0.20000009915E+02 0.  0.
         12    1    3    3    0    0 -0.37538443786E+01  0.64807394616E+01  0.42749640391E+02  0.43400726781E+02  0.00000000000E+00 0. -1.
         11    1    4    4    0    0  0.10329864576E+02 -0.62176872912E+01 -0.14891796817E+02  0.19160671964E+02  0.51100000000E-03 0. -1.
        -11    1    4    4    0    0 -0.45253413395E+01 -0.83817787246E-01 -0.19657231127E+02  0.20171575930E+02  0.51100000000E-03 0.  1.
         12    1    4    4    0    0 -0.20506788582E+01 -0.17923438313E+00 -0.82006124471E+01  0.84550253253E+01  0.00000000000E+00 0. -1.
</event>
<event>
 8    1  0.6469014E-010  0.9118800E+02  0.7816164E-02  0.1184000E+00
        -11   -1    0    0    0    0  0.00000000000E+00  0.00000000000E+00  0.45593999997E+02  0.45594000000E+02  0.51100000000E-03 0. -1.
         11   -1    0    0    0    0 -0.00000000000E+00 -0.00000000000E+00 -0.45593999997E+02  0.45594000000E+02  0.51100000000E-03 0.  1.
         23    2    1    2    0    0  0.00000000000E+00  0.00000000000E+00  0.35527136788E-14  0.91188000000E+02  0.91188000000E+02 0.  0.
    9900012    2    3    3    0    0  0.10718777737E+02 -0.36007160087E+02 -0.21730513901E+02  0.47787274106E+02  0.20000013960E+02 0.  0.
         12    1    3    3    0    0 -0.10718777737E+02  0.36007160087E+02  0.21730513901E+02  0.43400725894E+02  0.00000000000E+00 0. -1.
         11    1    4    4    0    0 -0.11439610107E+01  0.15557137559E+01  0.91083661125E-01  0.19331809483E+01  0.51100000000E-03 0. -1.
        -11    1    4    4    0    0  0.69500384893E+01 -0.18752316697E+02 -0.62725394114E+01  0.20959417154E+02  0.51100000000E-03 0.  1.
         12    1    4    4    0    0  0.49127002581E+01 -0.18810557147E+02 -0.15549058150E+02  0.24894676004E+02  0.00000000000E+00 0. -1.
</event>
<event>
 8    1  0.6469014E-010  0.9118800E+02  0.7816164E-02  0.1184000E+00
        -11   -1    0    0    0    0  0.00000000000E+00  0.00000000000E+00  0.45593999997E+02  0.45594000000E+02  0.51100000000E-03 0. -1.
         11   -1    0    0    0    0 -0.00000000000E+00 -0.00000000000E+00 -0.45593999997E+02  0.45594000000E+02  0.51100000000E-03 0.  1.
         23    2    1    2    0    0  0.44408920985E-15  0.11102230246E-14  0.00000000000E+00  0.91188000000E+02  0.91188000000E+02 0.  0.
    9900012    2    3    3    0    0 -0.15326333456E+01  0.13993159540E+01  0.43351079574E+02  0.47787272467E+02  0.20000006487E+02 0.  0.
        -12    1    3    3    0    0  0.15326333456E+01 -0.13993159540E+01 -0.43351079574E+02  0.43400727533E+02  0.00000000000E+00 0.  1.
         11    1    4    4    0    0  0.18953701941E+00  0.45742202698E+01  0.16743155353E+02  0.17357784040E+02  0.51100000000E-03 0. -1.
        -11    1    4    4    0    0 -0.37429574549E+01 -0.37085356532E+01  0.18513461350E+01  0.55848410875E+01  0.51100000000E-03 0.  1.
        -12    1    4    4    0    0  0.20207870899E+01  0.53363133743E+00  0.24756578086E+02  0.24844647339E+02  0.00000000000E+00 0.  1.
</event>
<event>
 8    1  0.6469014E-010  0.9118800E+02  0.7816164E-02  0.1184000E+00
        -11   -1    0    0    0    0  0.00000000000E+00  0.00000000000E+00  0.45593999997E+02  0.45594000000E+02  0.51100000000E-03 0. -1.
         11   -1    0    0    0    0 -0.00000000000E+00 -0.00000000000E+00 -0.45593999997E+02  0.45594000000E+02  0.51100000000E-03 0.  1.
         23    2    1    2    0    0  0.00000000000E+00  0.35527136788E-14  0.00000000000E+00  0.91188000000E+02  0.91188000000E+02 0.  0.
    9900012    2    3    3    0    0 -0.30918565102E+02  0.21805863754E+02  0.21264304325E+02  0.47787262674E+02  0.19999961834E+02 0.  0.
        -12    1    3    3    0    0  0.30918565102E+02 -0.21805863754E+02 -0.21264304325E+02  0.43400737326E+02  0.00000000000E+00 0.  1.
         11    1    4    4    0    0 -0.23014435480E+02  0.20796223239E+02  0.16339229260E+02  0.35058772861E+02  0.51100000000E-03 0. -1.
        -11    1    4    4    0    0 -0.42119154017E+01 -0.26704914060E+01 -0.72649059950E+00  0.50397960825E+01  0.51100000000E-03 0.  1.
        -12    1    4    4    0    0 -0.36922142204E+01  0.36801319211E+01  0.56515656651E+01  0.76886937300E+01  0.00000000000E+00 0.  1.
</event>
<event>
 8    1  0.6469014E-010  0.9118800E+02  0.7816164E-02  0.1184000E+00
        -11   -1    0    0    0    0  0.00000000000E+00  0.00000000000E+00  0.45593999997E+02  0.45594000000E+02  0.51100000000E-03 0. -1.
         11   -1    0    0    0    0 -0.00000000000E+00 -0.00000000000E+00 -0.45593999997E+02  0.45594000000E+02  0.51100000000E-03 0.  1.
         23    2    1    2    0    0  0.00000000000E+00  0.00000000000E+00  0.00000000000E+00  0.91188000000E+02  0.91188000000E+02 0.  0.
    9900012    2    3    3    0    0 -0.22174562952E+02  0.36845471228E+02 -0.58588585505E+01  0.47787237153E+02  0.19999845477E+02 0.  0.
         12    1    3    3    0    0  0.22174562952E+02 -0.36845471228E+02  0.58588585505E+01  0.43400762847E+02  0.00000000000E+00 0. -1.
         11    1    4    4    0    0  0.23785634517E+01  0.16136019596E+01 -0.11580801567E+01  0.30987780314E+01  0.51100000000E-03 0. -1.
        -11    1    4    4    0    0 -0.16296589670E+02  0.27499160479E+02  0.10825356495E+01  0.31983660604E+02  0.51100000000E-03 0.  1.
         12    1    4    4    0    0 -0.82565367337E+01  0.77327087892E+01 -0.57833140434E+01  0.12704798518E+02  0.00000000000E+00 0. -1.
</event>
<event>
 8    1  0.6469014E-010  0.9118800E+02  0.7816164E-02  0.1184000E+00
        -11   -1    0    0    0    0  0.00000000000E+00  0.00000000000E+00  0.45593999997E+02  0.45594000000E+02  0.51100000000E-03 0.  1.
         11   -1    0    0    0    0 -0.00000000000E+00 -0.00000000000E+00 -0.45593999997E+02  0.45594000000E+02  0.51100000000E-03 0. -1.
         23    2    1    2    0    0  0.35527136788E-14  0.00000000000E+00  0.00000000000E+00  0.91188000000E+02  0.91188000000E+02 0.  0.
    9900012    2    3    3    0    0 -0.25980908726E+02 -0.29933345221E+02 -0.17680788500E+02  0.47787273550E+02  0.20000011426E+02 0.  0.
         12    1    3    3    0    0  0.25980908726E+02  0.29933345221E+02  0.17680788500E+02  0.43400726450E+02  0.00000000000E+00 0. -1.
         11    1    4    4    0    0 -0.22317248224E+02 -0.11430475255E+02 -0.11182970466E+02  0.27454947851E+02  0.51100000000E-03 0. -1.
        -11    1    4    4    0    0 -0.37316483300E+01 -0.15128587049E+02 -0.66776026340E+01  0.16952572741E+02  0.51100000000E-03 0.  1.
         12    1    4    4    0    0  0.67987827777E-01 -0.33742829178E+01  0.17978459932E+00  0.33797529579E+01  0.00000000000E+00 0. -1.
</event>
<event>
 8    1  0.6469014E-010  0.9118800E+02  0.7816164E-02  0.1184000E+00
        -11   -1    0    0    0    0  0.00000000000E+00  0.00000000000E+00  0.45593999997E+02  0.45594000000E+02  0.51100000000E-03 0. -1.
         11   -1    0    0    0    0 -0.00000000000E+00 -0.00000000000E+00 -0.45593999997E+02  0.45594000000E+02  0.51100000000E-03 0.  1.
         23    2    1    2    0    0  0.00000000000E+00  0.00000000000E+00  0.00000000000E+00  0.91188000000E+02  0.91188000000E+02 0.  0.
    9900012    2    3    3    0    0 -0.23284289289E+02  0.17181046821E+02 -0.32346202196E+02  0.47787270812E+02  0.19999998940E+02 0.  0.
         12    1    3    3    0    0  0.23284289289E+02 -0.17181046821E+02  0.32346202196E+02  0.43400729188E+02  0.00000000000E+00 0. -1.
         11    1    4    4    0    0 -0.58016010393E+01  0.18173624625E+01 -0.17325238737E+02  0.18360971611E+02  0.51100000000E-03 0. -1.
        -11    1    4    4    0    0 -0.16676507763E+02  0.99969258642E+01 -0.13856894313E+02  0.23875886542E+02  0.51100000000E-03 0.  1.
         12    1    4    4    0    0 -0.80618048683E+00  0.53667584943E+01 -0.11640691464E+01  0.55504126595E+01  0.00000000000E+00 0. -1.
</event>
<event>
 8    1  0.6491099E-010  0.9118800E+02  0.7816164E-02  0.1184000E+00
        -11   -1    0    0    0    0  0.00000000000E+00  0.00000000000E+00  0.45593999997E+02  0.45594000000E+02  0.51100000000E-03 0. -1.
         11   -1    0    0    0    0 -0.00000000000E+00 -0.00000000000E+00 -0.45593999997E+02  0.45594000000E+02  0.51100000000E-03 0.  1.
         23    2    1    2    0    0  0.00000000000E+00 -0.88817841970E-15  0.00000000000E+00  0.91188000000E+02  0.91188000000E+02 0.  0.
    9900012    2    3    3    0    0 -0.17281866972E+02  0.57379814831E+01 -0.39395884878E+02  0.47787273015E+02  0.20000008984E+02 0.  0.
         12    1    3    3    0    0  0.17281866972E+02 -0.57379814831E+01  0.39395884878E+02  0.43400726985E+02  0.00000000000E+00 0. -1.
         11    1    4    4    0    0 -0.11816723590E+02  0.41039473109E+01 -0.32406802026E+02  0.34737273321E+02  0.51100000000E-03 0. -1.
        -11    1    4    4    0    0 -0.22684699659E+01  0.14060022453E+01 -0.89184742065E+01  0.93092416841E+01  0.51100000000E-03 0.  1.
         12    1    4    4    0    0 -0.31966734159E+01  0.22803192684E+00  0.19293913550E+01  0.37407580099E+01  0.00000000000E+00 0. -1.
</event>
<event>
 8    1  0.6469014E-010  0.9118800E+02  0.7816164E-02  0.1184000E+00
        -11   -1    0    0    0    0  0.00000000000E+00  0.00000000000E+00  0.45593999997E+02  0.45594000000E+02  0.51100000000E-03 0. -1.
         11   -1    0    0    0    0 -0.00000000000E+00 -0.00000000000E+00 -0.45593999997E+02  0.45594000000E+02  0.51100000000E-03 0.  1.
         23    2    1    2    0    0  0.00000000000E+00  0.00000000000E+00  0.00000000000E+00  0.91188000000E+02  0.91188000000E+02 0.  0.
    9900012    2    3    3    0    0 -0.24622541759E+02 -0.48347405811E+01  0.35411568061E+02  0.47787269226E+02  0.19999991707E+02 0.  0.
        -12    1    3    3    0    0  0.24622541759E+02  0.48347405811E+01 -0.35411568061E+02  0.43400730774E+02  0.00000000000E+00 0.  1.
         11    1    4    4    0    0 -0.48607394685E+01 -0.57280252947E+01  0.23287720613E+02  0.24469470643E+02  0.51100000000E-03 0. -1.
        -11    1    4    4    0    0 -0.12811416330E+02  0.43412782625E+00  0.65416657173E+01  0.14391464344E+02  0.51100000000E-03 0.  1.
         12    1    4    4    0    0 -0.69503859613E+01  0.45915688729E+00  0.55821817315E+01  0.89263342387E+01  0.00000000000E+00 0. -1.
</event>
<event>
 8    1  0.6469014E-010  0.9118800E+02  0.7816164E-02  0.1184000E+00
        -11   -1    0    0    0    0  0.00000000000E+00  0.00000000000E+00  0.45593999997E+02  0.45594000000E+02  0.51100000000E-03 0. -1.
         11   -1    0    0    0    0 -0.00000000000E+00 -0.00000000000E+00 -0.45593999997E+02  0.45594000000E+02  0.51100000000E-03 0.  1.
         23    2    1    2    0    0  0.00000000000E+00  0.35527136788E-14 -0.71054273576E-14  0.91188000000E+02  0.91188000000E+02 0.  0.
    9900012    2    3    3    0    0 -0.21580090270E+02  0.17238703464E+02 -0.33477603116E+02  0.47787273007E+02  0.20000008946E+02 0.  0.
         12    1    3    3    0    0  0.21580090270E+02 -0.17238703464E+02  0.33477603116E+02  0.43400726993E+02  0.00000000000E+00 0. -1.
         11    1    4    4    0    0  0.60467507017E+00  0.87524313549E+00  0.16537486505E+01  0.19663589059E+01  0.51100000000E-03 0. -1.
        -11    1    4    4    0    0 -0.20808902632E+02  0.11343762171E+02 -0.31726607836E+02  0.39601376415E+02  0.51100000000E-03 0.  1.
         12    1    4    4    0    0 -0.13758627084E+01  0.50196981584E+01 -0.34047439300E+01  0.62195376856E+01  0.00000000000E+00 0. -1.
</event>
<event>
 8    1  0.6469014E-010  0.9118800E+02  0.7816164E-02  0.1184000E+00
        -11   -1    0    0    0    0  0.00000000000E+00  0.00000000000E+00  0.45593999997E+02  0.45594000000E+02  0.51100000000E-03 0. -1.
         11   -1    0    0    0    0 -0.00000000000E+00 -0.00000000000E+00 -0.45593999997E+02  0.45594000000E+02  0.51100000000E-03 0.  1.
         23    2    1    2    0    0  0.00000000000E+00  0.00000000000E+00  0.35527136788E-14  0.91188000000E+02  0.91188000000E+02 0.  0.
    9900012    2    3    3    0    0 -0.28415569078E+02 -0.26172518792E+02 -0.19778220998E+02  0.47787270377E+02  0.19999996955E+02 0.  0.
         12    1    3    3    0    0  0.28415569078E+02  0.26172518792E+02  0.19778220998E+02  0.43400729623E+02  0.00000000000E+00 0. -1.
         11    1    4    4    0    0  0.51750731760E+00  0.98380382392E+00 -0.60777313145E-01  0.11132735201E+01  0.51100000000E-03 0. -1.
        -11    1    4    4    0    0 -0.30010537246E+02 -0.23615564237E+02 -0.15926871966E+02  0.41376230748E+02  0.51100000000E-03 0.  1.
         12    1    4    4    0    0  0.10774608498E+01 -0.35407583795E+01 -0.37905717189E+01  0.52977661086E+01  0.00000000000E+00 0. -1.
</event>
<event>
 8    1  0.6469014E-010  0.9118800E+02  0.7816164E-02  0.1184000E+00
        -11   -1    0    0    0    0  0.00000000000E+00  0.00000000000E+00  0.45593999997E+02  0.45594000000E+02  0.51100000000E-03 0. -1.
         11   -1    0    0    0    0 -0.00000000000E+00 -0.00000000000E+00 -0.45593999997E+02  0.45594000000E+02  0.51100000000E-03 0.  1.
         23    2    1    2    0    0  0.17763568394E-14  0.00000000000E+00  0.00000000000E+00  0.91188000000E+02  0.91188000000E+02 0.  0.
    9900012    2    3    3    0    0  0.11846697884E+02  0.35172245580E+02 -0.22498734571E+02  0.47787260753E+02  0.19999953077E+02 0.  0.
         12    1    3    3    0    0 -0.11846697884E+02 -0.35172245580E+02  0.22498734571E+02  0.43400739247E+02  0.00000000000E+00 0. -1.
         11    1    4    4    0    0  0.23061638163E+01  0.15139496403E+01  0.13242021914E+01  0.30600566606E+01  0.51100000000E-03 0. -1.
        -11    1    4    4    0    0 -0.13898545719E+01  0.20660455202E+02 -0.15153004633E+02  0.25659299573E+02  0.51100000000E-03 0.  1.
        -12    1    4    4    0    0  0.10930388639E+02  0.12997840738E+02 -0.86699321293E+01  0.19067904520E+02  0.00000000000E+00 0.  1.
</event>
<event>
 8    1  0.6469014E-010  0.9118800E+02  0.7816164E-02  0.1184000E+00
        -11   -1    0    0    0    0  0.00000000000E+00  0.00000000000E+00  0.45593999997E+02  0.45594000000E+02  0.51100000000E-03 0. -1.
         11   -1    0    0    0    0 -0.00000000000E+00 -0.00000000000E+00 -0.45593999997E+02  0.45594000000E+02  0.51100000000E-03 0.  1.
         23    2    1    2    0    0  0.00000000000E+00  0.00000000000E+00  0.00000000000E+00  0.91188000000E+02  0.91188000000E+02 0.  0.
    9900012    2    3    3    0    0 -0.15805148795E+02  0.12638942319E+02  0.38393681094E+02  0.47787304852E+02  0.20000154144E+02 0.  0.
        -12    1    3    3    0    0  0.15805148795E+02 -0.12638942319E+02 -0.38393681094E+02  0.43400695148E+02  0.00000000000E+00 0.  1.
         11    1    4    4    0    0 -0.13302702191E+02  0.11842446833E+02  0.28771938179E+02  0.33838289842E+02  0.51100000000E-03 0. -1.
        -11    1    4    4    0    0 -0.12226857943E+01 -0.64735788045E+00 -0.18533925068E+01  0.23128114541E+01  0.51100000000E-03 0.  1.
         12    1    4    4    0    0 -0.12797608097E+01  0.14438533664E+01  0.11475135422E+02  0.11636203557E+02  0.00000000000E+00 0. -1.
</event>
<event>
 8    1  0.6469014E-010  0.9118800E+02  0.7816164E-02  0.1184000E+00
        -11   -1    0    0    0    0  0.00000000000E+00  0.00000000000E+00  0.45593999997E+02  0.45594000000E+02  0.51100000000E-03 0. -1.
         11   -1    0    0    0    0 -0.00000000000E+00 -0.00000000000E+00 -0.45593999997E+02  0.45594000000E+02  0.51100000000E-03 0.  1.
         23    2    1    2    0    0  0.35527136788E-14  0.35527136788E-14 -0.35527136788E-14  0.91188000000E+02  0.91188000000E+02 0.  0.
    9900012    2    3    3    0    0 -0.19545776627E+02 -0.25886179265E+02  0.28835585480E+02  0.47787278222E+02  0.20000032726E+02 0.  0.
        -12    1    3    3    0    0  0.19545776627E+02  0.25886179265E+02 -0.28835585480E+02  0.43400721778E+02  0.00000000000E+00 0.  1.
         11    1    4    4    0    0  0.21359555892E+01 -0.42248813207E+01 -0.34956059004E+00  0.47470118307E+01  0.51100000000E-03 0. -1.
        -11    1    4    4    0    0 -0.59531216942E+01 -0.50839645885E+01  0.32565541026E+01  0.84788854649E+01  0.51100000000E-03 0.  1.
         12    1    4    4    0    0 -0.15728610522E+02 -0.16577333356E+02  0.25928591967E+02  0.34561380926E+02  0.00000000000E+00 0. -1.
</event>
<event>
 8    1  0.6469014E-010  0.9118800E+02  0.7816164E-02  0.1184000E+00
        -11   -1    0    0    0    0  0.00000000000E+00  0.00000000000E+00  0.45593999997E+02  0.45594000000E+02  0.51100000000E-03 0. -1.
         11   -1    0    0    0    0 -0.00000000000E+00 -0.00000000000E+00 -0.45593999997E+02  0.45594000000E+02  0.51100000000E-03 0.  1.
         23    2    1    2    0    0  0.00000000000E+00  0.35527136788E-14  0.00000000000E+00  0.91188000000E+02  0.91188000000E+02 0.  0.
    9900012    2    3    3    0    0 -0.66473315466E+01 -0.30531379657E+02  0.30120943247E+02  0.47787269792E+02  0.19999994292E+02 0.  0.
        -12    1    3    3    0    0  0.66473315466E+01  0.30531379657E+02 -0.30120943247E+02  0.43400730208E+02  0.00000000000E+00 0.  1.
         11    1    4    4    0    0 -0.63459134054E+00 -0.14293118103E+02  0.60515512988E+01  0.15534387811E+02  0.51100000000E-03 0. -1.
        -11    1    4    4    0    0 -0.45950504720E+01 -0.13660075599E+02  0.25257236541E+02  0.29079892575E+02  0.51100000000E-03 0.  1.
        -12    1    4    4    0    0 -0.14176897340E+01 -0.25781859546E+01 -0.11878445924E+01  0.31729894065E+01  0.00000000000E+00 0.  1.
</event>
<event>
 8    1  0.6469014E-010  0.9118800E+02  0.7816164E-02  0.1184000E+00
        -11   -1    0    0    0    0  0.00000000000E+00  0.00000000000E+00  0.45593999997E+02  0.45594000000E+02  0.51100000000E-03 0. -1.
         11   -1    0    0    0    0 -0.00000000000E+00 -0.00000000000E+00 -0.45593999997E+02  0.45594000000E+02  0.51100000000E-03 0.  1.
         23    2    1    2    0    0 -0.35527136788E-14  0.00000000000E+00  0.00000000000E+00  0.91188000000E+02  0.91188000000E+02 0.  0.
    9900012    2    3    3    0    0 -0.29548106045E+02  0.66872588886E+01  0.31077536156E+02  0.47787271252E+02  0.20000000946E+02 0.  0.
        -12    1    3    3    0    0  0.29548106045E+02 -0.66872588886E+01 -0.31077536156E+02  0.43400728748E+02  0.00000000000E+00 0.  1.
         11    1    4    4    0    0  0.11321336579E+01 -0.23678561516E+01  0.52912748362E+00  0.26773952882E+01  0.51100000000E-03 0. -1.
        -11    1    4    4    0    0 -0.81660502578E+01  0.66151465360E+01  0.87107171070E+01  0.13649949937E+02  0.51100000000E-03 0.  1.
         12    1    4    4    0    0 -0.22514189446E+02  0.24399685042E+01  0.21837691566E+02  0.31459926027E+02  0.00000000000E+00 0. -1.
</event>
<event>
 8    1  0.6469014E-010  0.9118800E+02  0.7816164E-02  0.1184000E+00
        -11   -1    0    0    0    0  0.00000000000E+00  0.00000000000E+00  0.45593999997E+02  0.45594000000E+02  0.51100000000E-03 0. -1.
         11   -1    0    0    0    0 -0.00000000000E+00 -0.00000000000E+00 -0.45593999997E+02  0.45594000000E+02  0.51100000000E-03 0.  1.
         23    2    1    2    0    0  0.44408920985E-15 -0.44408920985E-15  0.00000000000E+00  0.91188000000E+02  0.91188000000E+02 0.  0.
    9900012    2    3    3    0    0  0.30366080192E+01  0.31333952218E+01  0.43180834863E+02  0.47787266672E+02  0.19999980066E+02 0.  0.
        -12    1    3    3    0    0 -0.30366080192E+01 -0.31333952218E+01 -0.43180834863E+02  0.43400733328E+02  0.00000000000E+00 0.  1.
         11    1    4    4    0    0  0.69945232181E+01  0.52680601751E+01  0.13189882115E+02  0.15831891975E+02  0.51100000000E-03 0. -1.
        -11    1    4    4    0    0  0.54883485135E+00  0.26305764088E+01  0.24241893238E+01  0.36190946486E+01  0.51100000000E-03 0.  1.
         12    1    4    4    0    0 -0.45067500502E+01 -0.47652413621E+01  0.27566763425E+02  0.28336280048E+02  0.00000000000E+00 0. -1.
</event>
<event>
 8    1  0.6469014E-010  0.9118800E+02  0.7816164E-02  0.1184000E+00
        -11   -1    0    0    0    0  0.00000000000E+00  0.00000000000E+00  0.45593999997E+02  0.45594000000E+02  0.51100000000E-03 0. -1.
         11   -1    0    0    0    0 -0.00000000000E+00 -0.00000000000E+00 -0.45593999997E+02  0.45594000000E+02  0.51100000000E-03 0.  1.
         23    2    1    2    0    0  0.00000000000E+00  0.00000000000E+00  0.00000000000E+00  0.91188000000E+02  0.91188000000E+02 0.  0.
    9900012    2    3    3    0    0  0.12926290883E+02 -0.16197703832E+02  0.38133568617E+02  0.47787266586E+02  0.19999979673E+02 0.  0.
        -12    1    3    3    0    0 -0.12926290883E+02  0.16197703832E+02 -0.38133568617E+02  0.43400733414E+02  0.00000000000E+00 0.  1.
         11    1    4    4    0    0  0.15592312044E+01 -0.12193082182E+02  0.26122869826E+02  0.28870517544E+02  0.51100000000E-03 0. -1.
        -11    1    4    4    0    0 -0.79914291672E+00 -0.21400591960E+01  0.22696592086E+01  0.32202229656E+01  0.51100000000E-03 0.  1.
         12    1    4    4    0    0  0.12166202595E+02 -0.18645624537E+01  0.97410395815E+01  0.15696526076E+02  0.00000000000E+00 0. -1.
</event>
<event>
 8    1  0.6469014E-010  0.9118800E+02  0.7816164E-02  0.1184000E+00
        -11   -1    0    0    0    0  0.00000000000E+00  0.00000000000E+00  0.45593999997E+02  0.45594000000E+02  0.51100000000E-03 0. -1.
         11   -1    0    0    0    0 -0.00000000000E+00 -0.00000000000E+00 -0.45593999997E+02  0.45594000000E+02  0.51100000000E-03 0.  1.
         23    2    1    2    0    0 -0.35527136788E-14  0.35527136788E-14  0.00000000000E+00  0.91188000000E+02  0.91188000000E+02 0.  0.
    9900012    2    3    3    0    0  0.31628149653E+02  0.20220767708E+02  0.21780820657E+02  0.47787269066E+02  0.19999990978E+02 0.  0.
        -12    1    3    3    0    0 -0.31628149653E+02 -0.20220767708E+02 -0.21780820657E+02  0.43400730934E+02  0.00000000000E+00 0.  1.
         11    1    4    4    0    0  0.16632479467E+01  0.52204163340E+01  0.20421907152E+01  0.58471945077E+01  0.51100000000E-03 0.  1.
        -11    1    4    4    0    0  0.13815402833E+02  0.14731992521E+02  0.70196119896E+01  0.21381578796E+02  0.51100000000E-03 0. -1.
        -12    1    4    4    0    0  0.16149498873E+02  0.26835885301E+00  0.12719017952E+02  0.20558495762E+02  0.00000000000E+00 0.  1.
</event>
<event>
 8    1  0.6469014E-010  0.9118800E+02  0.7816164E-02  0.1184000E+00
        -11   -1    0    0    0    0  0.00000000000E+00  0.00000000000E+00  0.45593999997E+02  0.45594000000E+02  0.51100000000E-03 0. -1.
         11   -1    0    0    0    0 -0.00000000000E+00 -0.00000000000E+00 -0.45593999997E+02  0.45594000000E+02  0.51100000000E-03 0.  1.
         23    2    1    2    0    0  0.00000000000E+00 -0.55511151231E-16  0.00000000000E+00  0.91188000000E+02  0.91188000000E+02 0.  0.
    9900012    2    3    3    0    0  0.28393002368E+02  0.26217510659E+00  0.32823647056E+02  0.47787272756E+02  0.20000007803E+02 0.  0.
        -12    1    3    3    0    0 -0.28393002368E+02 -0.26217510659E+00 -0.32823647056E+02  0.43400727244E+02  0.00000000000E+00 0.  1.
         11    1    4    4    0    0 -0.21657418365E+01 -0.70468048708E+00  0.71740290901E+01  0.75268656118E+01  0.51100000000E-03 0. -1.
        -11    1    4    4    0    0  0.12214296624E+02  0.11781773735E+01  0.71281548629E+01  0.14191114683E+02  0.51100000000E-03 0.  1.
         12    1    4    4    0    0  0.18344447580E+02 -0.21132177982E+00  0.18521463103E+02  0.26069292461E+02  0.00000000000E+00 0. -1.
</event>
<event>
 8    1  0.6469014E-010  0.9118800E+02  0.7816164E-02  0.1184000E+00
        -11   -1    0    0    0    0  0.00000000000E+00  0.00000000000E+00  0.45593999997E+02  0.45594000000E+02  0.51100000000E-03 0. -1.
         11   -1    0    0    0    0 -0.00000000000E+00 -0.00000000000E+00 -0.45593999997E+02  0.45594000000E+02  0.51100000000E-03 0.  1.
         23    2    1    2    0    0  0.00000000000E+00  0.00000000000E+00 -0.17763568394E-14  0.91188000000E+02  0.91188000000E+02 0.  0.
    9900012    2    3    3    0    0  0.15741606981E+02 -0.37445171146E+02 -0.15286719399E+02  0.47787276245E+02  0.20000023712E+02 0.  0.
         12    1    3    3    0    0 -0.15741606981E+02  0.37445171146E+02  0.15286719399E+02  0.43400723755E+02  0.00000000000E+00 0. -1.
         11    1    4    4    0    0  0.81177964707E+01 -0.11647348068E+02 -0.14539527234E+02  0.20321348110E+02  0.51100000000E-03 0. -1.
        -11    1    4    4    0    0  0.77766924897E+01 -0.18276553766E+02 -0.14207726228E+01  0.19913009787E+02  0.51100000000E-03 0.  1.
         12    1    4    4    0    0 -0.15288197931E+00 -0.75212693112E+01  0.67358045750E+00  0.75529183488E+01  0.00000000000E+00 0. -1.
</event>
<event>
 8    1  0.6469014E-010  0.9118800E+02  0.7816164E-02  0.1184000E+00
        -11   -1    0    0    0    0  0.00000000000E+00  0.00000000000E+00  0.45593999997E+02  0.45594000000E+02  0.51100000000E-03 0. -1.
         11   -1    0    0    0    0 -0.00000000000E+00 -0.00000000000E+00 -0.45593999997E+02  0.45594000000E+02  0.51100000000E-03 0.  1.
         23    2    1    2    0    0  0.35527136788E-14  0.00000000000E+00  0.00000000000E+00  0.91188000000E+02  0.91188000000E+02 0.  0.
    9900012    2    3    3    0    0 -0.12304284683E+02 -0.35604440015E+02  0.21553468730E+02  0.47787267464E+02  0.19999983676E+02 0.  0.
        -12    1    3    3    0    0  0.12304284683E+02  0.35604440015E+02 -0.21553468730E+02  0.43400732536E+02  0.00000000000E+00 0.  1.
         11    1    4    4    0    0  0.19966889017E+00 -0.85338564963E+01 -0.14606817726E+01  0.86602636142E+01  0.51100000000E-03 0. -1.
        -11    1    4    4    0    0 -0.49734742539E+01 -0.48249791403E+01  0.11206807003E+01  0.70193871066E+01  0.51100000000E-03 0.  1.
         12    1    4    4    0    0 -0.75304793192E+01 -0.22245604378E+02  0.21893469803E+02  0.32107616743E+02  0.00000000000E+00 0. -1.
</event>
<event>
 8    1  0.6469014E-010  0.9118800E+02  0.7816164E-02  0.1184000E+00
        -11   -1    0    0    0    0  0.00000000000E+00  0.00000000000E+00  0.45593999997E+02  0.45594000000E+02  0.51100000000E-03 0.  1.
         11   -1    0    0    0    0 -0.00000000000E+00 -0.00000000000E+00 -0.45593999997E+02  0.45594000000E+02  0.51100000000E-03 0. -1.
         23    2    1    2    0    0  0.00000000000E+00  0.71054273576E-14 -0.17763568394E-14  0.91188000000E+02  0.91188000000E+02 0.  0.
    9900012    2    3    3    0    0  0.18578553977E+02  0.36072241879E+02 -0.15403039500E+02  0.47787275031E+02  0.20000018176E+02 0.  0.
        -12    1    3    3    0    0 -0.18578553977E+02 -0.36072241879E+02  0.15403039500E+02  0.43400724969E+02  0.00000000000E+00 0.  1.
         11    1    4    4    0    0  0.30236721827E+01  0.16439546153E+02 -0.15856505637E+01  0.16790341246E+02  0.51100000000E-03 0. -1.
        -11    1    4    4    0    0  0.84769757640E+01  0.86884504825E+01 -0.13223035262E+02  0.17949845451E+02  0.51100000000E-03 0.  1.
        -12    1    4    4    0    0  0.70779060300E+01  0.10944245244E+02 -0.59435367370E+00  0.13047088335E+02  0.00000000000E+00 0.  1.
</event>
<event>
 8    1  0.6469014E-010  0.9118800E+02  0.7816164E-02  0.1184000E+00
        -11   -1    0    0    0    0  0.00000000000E+00  0.00000000000E+00  0.45593999997E+02  0.45594000000E+02  0.51100000000E-03 0. -1.
         11   -1    0    0    0    0 -0.00000000000E+00 -0.00000000000E+00 -0.45593999997E+02  0.45594000000E+02  0.51100000000E-03 0.  1.
         23    2    1    2    0    0  0.66613381478E-15  0.00000000000E+00  0.00000000000E+00  0.91188000000E+02  0.91188000000E+02 0.  0.
    9900012    2    3    3    0    0  0.86461038061E+00  0.85666039173E+01 -0.42538089463E+02  0.47787270641E+02  0.19999998160E+02 0.  0.
         12    1    3    3    0    0 -0.86461038061E+00 -0.85666039173E+01  0.42538089463E+02  0.43400729359E+02  0.00000000000E+00 0. -1.
         11    1    4    4    0    0 -0.57387859412E+01  0.17723108158E+00 -0.49129959544E+01  0.75566265254E+01  0.51100000000E-03 0. -1.
        -11    1    4    4    0    0  0.37250291215E+01  0.56558898206E+01 -0.34555106520E+02  0.35212502304E+02  0.51100000000E-03 0.  1.
        -12    1    4    4    0    0  0.28783672003E+01  0.27334830152E+01 -0.30699869878E+01  0.50181418114E+01  0.00000000000E+00 0.  1.
</event>
<event>
 8    1  0.6469014E-010  0.9118800E+02  0.7816164E-02  0.1184000E+00
        -11   -1    0    0    0    0  0.00000000000E+00  0.00000000000E+00  0.45593999997E+02  0.45594000000E+02  0.51100000000E-03 0. -1.
         11   -1    0    0    0    0 -0.00000000000E+00 -0.00000000000E+00 -0.45593999997E+02  0.45594000000E+02  0.51100000000E-03 0.  1.
         23    2    1    2    0    0 -0.27755575616E-15  0.00000000000E+00  0.00000000000E+00  0.91188000000E+02  0.91188000000E+02 0.  0.
    9900012    2    3    3    0    0  0.11123240334E+00 -0.24844125730E+02  0.35586232989E+02  0.47787274957E+02  0.20000017838E+02 0.  0.
        -12    1    3    3    0    0 -0.11123240334E+00  0.24844125730E+02 -0.35586232989E+02  0.43400725043E+02  0.00000000000E+00 0.  1.
         11    1    4    4    0    0 -0.25372918732E+01  0.11650867404E+01  0.13439616976E-01  0.27920347503E+01  0.51100000000E-03 0.  1.
        -11    1    4    4    0    0  0.11243862801E+01 -0.21502176426E+02  0.22775603400E+02  0.31342239008E+02  0.51100000000E-03 0. -1.
        -12    1    4    4    0    0  0.15241379964E+01 -0.45070360441E+01  0.12797189972E+02  0.13653001198E+02  0.00000000000E+00 0.  1.
</event>
<event>
 8    1  0.6469014E-010  0.9118800E+02  0.7816164E-02  0.1184000E+00
        -11   -1    0    0    0    0  0.00000000000E+00  0.00000000000E+00  0.45593999997E+02  0.45594000000E+02  0.51100000000E-03 0. -1.
         11   -1    0    0    0    0 -0.00000000000E+00 -0.00000000000E+00 -0.45593999997E+02  0.45594000000E+02  0.51100000000E-03 0.  1.
         23    2    1    2    0    0  0.00000000000E+00 -0.17763568394E-14  0.35527136788E-14  0.91188000000E+02  0.91188000000E+02 0.  0.
    9900012    2    3    3    0    0  0.25020679371E+02 -0.15310675945E+02  0.31987061651E+02  0.47787270661E+02  0.19999998253E+02 0.  0.
        -12    1    3    3    0    0 -0.25020679371E+02  0.15310675945E+02 -0.31987061651E+02  0.43400729339E+02  0.00000000000E+00 0.  1.
         11    1    4    4    0    0  0.24589947263E+02 -0.18231567073E+02  0.24043285467E+02  0.38924736616E+02  0.51100000000E-03 0. -1.
        -11    1    4    4    0    0 -0.60750921015E+00  0.17827611725E+01  0.21079430108E+01  0.28267877240E+01  0.51100000000E-03 0.  1.
         12    1    4    4    0    0  0.10382413178E+01  0.11381299552E+01  0.58358331728E+01  0.60357463209E+01  0.00000000000E+00 0. -1.
</event>
<event>
 8    1  0.6469014E-010  0.9118800E+02  0.7816164E-02  0.1184000E+00
        -11   -1    0    0    0    0  0.00000000000E+00  0.00000000000E+00  0.45593999997E+02  0.45594000000E+02  0.51100000000E-03 0. -1.
         11   -1    0    0    0    0 -0.00000000000E+00 -0.00000000000E+00 -0.45593999997E+02  0.45594000000E+02  0.51100000000E-03 0.  1.
         23    2    1    2    0    0  0.00000000000E+00  0.00000000000E+00  0.35527136788E-14  0.91188000000E+02  0.91188000000E+02 0.  0.
    9900012    2    3    3    0    0  0.25627962251E+02 -0.24570708508E+02 -0.24962194650E+02  0.47787270427E+02  0.19999997185E+02 0.  0.
         12    1    3    3    0    0 -0.25627962251E+02  0.24570708508E+02  0.24962194650E+02  0.43400729573E+02  0.00000000000E+00 0. -1.
         11    1    4    4    0    0 -0.15465440611E+01 -0.29732362986E+00  0.98869786465E+00  0.18594955237E+01  0.51100000000E-03 0. -1.
        -11    1    4    4    0    0  0.21830918136E+02 -0.24095285467E+02 -0.22934983610E+02  0.39789260383E+02  0.51100000000E-03 0.  1.
        -12    1    4    4    0    0  0.53435881758E+01 -0.17809941115E+00 -0.30159089045E+01  0.61385145200E+01  0.00000000000E+00 0.  1.
</event>
<event>
 8    1  0.6469014E-010  0.9118800E+02  0.7816164E-02  0.1184000E+00
        -11   -1    0    0    0    0  0.00000000000E+00  0.00000000000E+00  0.45593999997E+02  0.45594000000E+02  0.51100000000E-03 0. -1.
         11   -1    0    0    0    0 -0.00000000000E+00 -0.00000000000E+00 -0.45593999997E+02  0.45594000000E+02  0.51100000000E-03 0.  1.
         23    2    1    2    0    0  0.00000000000E+00  0.66613381478E-15  0.00000000000E+00  0.91188000000E+02  0.91188000000E+02 0.  0.
    9900012    2    3    3    0    0 -0.53900267905E+01  0.14645817484E+01 -0.43039845840E+02  0.47787242882E+02  0.19999871594E+02 0.  0.
         12    1    3    3    0    0  0.53900267905E+01 -0.14645817484E+01  0.43039845840E+02  0.43400757118E+02  0.00000000000E+00 0. -1.
         11    1    4    4    0    0 -0.22656977266E+01 -0.44718557118E+01 -0.49255511624E+01  0.70279395423E+01  0.51100000000E-03 0. -1.
        -11    1    4    4    0    0  0.27169608573E+01  0.40839688065E+01 -0.30929862624E+02  0.31316402726E+02  0.51100000000E-03 0.  1.
        -12    1    4    4    0    0 -0.58412899211E+01  0.18524686537E+01 -0.71844320543E+01  0.94429006136E+01  0.00000000000E+00 0.  1.
</event>
<event>
 8    1  0.6469014E-010  0.9118800E+02  0.7816164E-02  0.1184000E+00
        -11   -1    0    0    0    0  0.00000000000E+00  0.00000000000E+00  0.45593999997E+02  0.45594000000E+02  0.51100000000E-03 0. -1.
         11   -1    0    0    0    0 -0.00000000000E+00 -0.00000000000E+00 -0.45593999997E+02  0.45594000000E+02  0.51100000000E-03 0.  1.
         23    2    1    2    0    0  0.00000000000E+00  0.00000000000E+00  0.00000000000E+00  0.91188000000E+02  0.91188000000E+02 0.  0.
    9900012    2    3    3    0    0  0.34436835335E+02 -0.21643341641E+02  0.15142430171E+02  0.47787273545E+02  0.20000011403E+02 0.  0.
        -12    1    3    3    0    0 -0.34436835335E+02  0.21643341641E+02 -0.15142430171E+02  0.43400726455E+02  0.00000000000E+00 0.  1.
         11    1    4    4    0    0  0.28303676189E+02 -0.25308575770E+02  0.11361923903E+02  0.39632252123E+02  0.51100000000E-03 0. -1.
        -11    1    4    4    0    0  0.32961705894E+01  0.14542250166E+01  0.22392019947E+01  0.42418789218E+01  0.51100000000E-03 0.  1.
         12    1    4    4    0    0  0.28369885566E+01  0.22110091120E+01  0.15413042730E+01  0.39131425000E+01  0.00000000000E+00 0. -1.
</event>
<event>
 8    1  0.6469014E-010  0.9118800E+02  0.7816164E-02  0.1184000E+00
        -11   -1    0    0    0    0  0.00000000000E+00  0.00000000000E+00  0.45593999997E+02  0.45594000000E+02  0.51100000000E-03 0. -1.
         11   -1    0    0    0    0 -0.00000000000E+00 -0.00000000000E+00 -0.45593999997E+02  0.45594000000E+02  0.51100000000E-03 0.  1.
         23    2    1    2    0    0  0.00000000000E+00  0.00000000000E+00 -0.17763568394E-14  0.91188000000E+02  0.91188000000E+02 0.  0.
    9900012    2    3    3    0    0  0.93534953160E+01 -0.39777809977E+02 -0.14624000760E+02  0.47787269137E+02  0.19999991305E+02 0.  0.
         12    1    3    3    0    0 -0.93534953160E+01  0.39777809977E+02  0.14624000760E+02  0.43400730863E+02  0.00000000000E+00 0. -1.
         11    1    4    4    0    0  0.11293456414E+02 -0.22715806308E+02 -0.44421586017E+00  0.25372176532E+02  0.51100000000E-03 0. -1.
        -11    1    4    4    0    0 -0.14254535398E+01 -0.14085800853E+02 -0.10349435976E+02  0.17537175621E+02  0.51100000000E-03 0.  1.
         12    1    4    4    0    0 -0.51450755804E+00 -0.29762028160E+01 -0.38303489246E+01  0.48779169851E+01  0.00000000000E+00 0. -1.
</event>
<event>
 8    1  0.6469014E-010  0.9118800E+02  0.7816164E-02  0.1184000E+00
        -11   -1    0    0    0    0  0.00000000000E+00  0.00000000000E+00  0.45593999997E+02  0.45594000000E+02  0.51100000000E-03 0. -1.
         11   -1    0    0    0    0 -0.00000000000E+00 -0.00000000000E+00 -0.45593999997E+02  0.45594000000E+02  0.51100000000E-03 0.  1.
         23    2    1    2    0    0  0.00000000000E+00  0.22204460493E-15  0.17763568394E-14  0.91188000000E+02  0.91188000000E+02 0.  0.
    9900012    2    3    3    0    0  0.41482000191E+02 -0.14917643814E+01  0.12674445332E+02  0.47787271143E+02  0.20000000449E+02 0.  0.
        -12    1    3    3    0    0 -0.41482000191E+02  0.14917643814E+01 -0.12674445332E+02  0.43400728857E+02  0.00000000000E+00 0.  1.
         11    1    4    4    0    0  0.31862516301E+02 -0.95965042154E+00  0.16274512763E+02  0.35791069276E+02  0.51100000000E-03 0. -1.
        -11    1    4    4    0    0  0.44135859721E+01 -0.33248116564E+01 -0.14915610382E+01  0.57235363435E+01  0.51100000000E-03 0.  1.
         12    1    4    4    0    0  0.52058979179E+01  0.27926976966E+01 -0.21085063928E+01  0.62726655231E+01  0.00000000000E+00 0. -1.
</event>
<event>
 8    1  0.6469014E-010  0.9118800E+02  0.7816164E-02  0.1184000E+00
        -11   -1    0    0    0    0  0.00000000000E+00  0.00000000000E+00  0.45593999997E+02  0.45594000000E+02  0.51100000000E-03 0. -1.
         11   -1    0    0    0    0 -0.00000000000E+00 -0.00000000000E+00 -0.45593999997E+02  0.45594000000E+02  0.51100000000E-03 0.  1.
         23    2    1    2    0    0  0.00000000000E+00  0.00000000000E+00  0.11102230246E-15  0.91188000000E+02  0.91188000000E+02 0.  0.
    9900012    2    3    3    0    0 -0.42134199556E+02  0.10390946491E+02 -0.59933119683E+00  0.47787288726E+02  0.20000080618E+02 0.  0.
         12    1    3    3    0    0  0.42134199556E+02 -0.10390946491E+02  0.59933119683E+00  0.43400711274E+02  0.00000000000E+00 0. -1.
         11    1    4    4    0    0 -0.17506477142E+02  0.23644490807E+01  0.75477178366E+01  0.19210294276E+02  0.51100000000E-03 0. -1.
        -11    1    4    4    0    0 -0.23256847627E+02  0.48221633915E+01 -0.60516774907E+01  0.24510345204E+02  0.51100000000E-03 0.  1.
         12    1    4    4    0    0 -0.13708747869E+01  0.32043340192E+01 -0.20953715427E+01  0.40666492460E+01  0.00000000000E+00 0. -1.
</event>
<event>
 8    1  0.6469014E-010  0.9118800E+02  0.7816164E-02  0.1184000E+00
        -11   -1    0    0    0    0  0.00000000000E+00  0.00000000000E+00  0.45593999997E+02  0.45594000000E+02  0.51100000000E-03 0. -1.
         11   -1    0    0    0    0 -0.00000000000E+00 -0.00000000000E+00 -0.45593999997E+02  0.45594000000E+02  0.51100000000E-03 0.  1.
         23    2    1    2    0    0  0.00000000000E+00  0.17763568394E-14  0.71054273576E-14  0.91188000000E+02  0.91188000000E+02 0.  0.
    9900012    2    3    3    0    0 -0.35474194733E+02  0.13230945091E+02 -0.21216666436E+02  0.47787270345E+02  0.19999996811E+02 0.  0.
         12    1    3    3    0    0  0.35474194733E+02 -0.13230945091E+02  0.21216666436E+02  0.43400729655E+02  0.00000000000E+00 0. -1.
         11    1    4    4    0    0  0.69386978077E+00 -0.27619739650E+01 -0.28129148787E+00  0.28616569708E+01  0.51100000000E-03 0. -1.
        -11    1    4    4    0    0 -0.98532364568E+01  0.55669900100E+01 -0.43838835139E+01  0.12136559701E+02  0.51100000000E-03 0.  1.
         12    1    4    4    0    0 -0.26314828057E+02  0.10425929046E+02 -0.16551491434E+02  0.32789053674E+02  0.00000000000E+00 0. -1.
</event>
<event>
 8    1  0.6469014E-010  0.9118800E+02  0.7816164E-02  0.1184000E+00
        -11   -1    0    0    0    0  0.00000000000E+00  0.00000000000E+00  0.45593999997E+02  0.45594000000E+02  0.51100000000E-03 0. -1.
         11   -1    0    0    0    0 -0.00000000000E+00 -0.00000000000E+00 -0.45593999997E+02  0.45594000000E+02  0.51100000000E-03 0.  1.
         23    2    1    2    0    0  0.00000000000E+00  0.17763568394E-14  0.00000000000E+00  0.91188000000E+02  0.91188000000E+02 0.  0.
    9900012    2    3    3    0    0 -0.29416095201E+02 -0.91562790436E+01  0.30569245129E+02  0.47787275921E+02  0.20000022235E+02 0.  0.
        -12    1    3    3    0    0  0.29416095201E+02  0.91562790436E+01 -0.30569245129E+02  0.43400724079E+02  0.00000000000E+00 0.  1.
         11    1    4    4    0    0 -0.25697231346E+02 -0.13505141454E+02  0.23534942286E+02  0.37371513927E+02  0.51100000000E-03 0. -1.
        -11    1    4    4    0    0 -0.14728104196E+01 -0.75230534595E+00  0.31149416905E+00  0.16829030704E+01  0.51100000000E-03 0.  1.
         12    1    4    4    0    0 -0.22460534351E+01  0.51011677563E+01  0.67228086740E+01  0.87328589235E+01  0.00000000000E+00 0. -1.
</event>
<event>
 8    1  0.6469014E-010  0.9118800E+02  0.7816164E-02  0.1184000E+00
        -11   -1    0    0    0    0  0.00000000000E+00  0.00000000000E+00  0.45593999997E+02  0.45594000000E+02  0.51100000000E-03 0. -1.
         11   -1    0    0    0    0 -0.00000000000E+00 -0.00000000000E+00 -0.45593999997E+02  0.45594000000E+02  0.51100000000E-03 0.  1.
         23    2    1    2    0    0 -0.22204460493E-15  0.35527136788E-14  0.00000000000E+00  0.91188000000E+02  0.91188000000E+02 0.  0.
    9900012    2    3    3    0    0 -0.14120024798E+01  0.26785684975E+02  0.34119734717E+02  0.47787274572E+02  0.20000016082E+02 0.  0.
        -12    1    3    3    0    0  0.14120024798E+01 -0.26785684975E+02 -0.34119734717E+02  0.43400725428E+02  0.00000000000E+00 0.  1.
         11    1    4    4    0    0  0.17457836947E+01 -0.19384629532E+01  0.55031798297E+01  0.60901878320E+01  0.51100000000E-03 0. -1.
        -11    1    4    4    0    0 -0.38433594419E+01  0.69519598225E+01  0.11581946092E+02  0.14044309621E+02  0.51100000000E-03 0.  1.
         12    1    4    4    0    0  0.68557326739E+00  0.21772188105E+02  0.17034608795E+02  0.27652777119E+02  0.00000000000E+00 0. -1.
</event>
<event>
 8    1  0.6469014E-010  0.9118800E+02  0.7816164E-02  0.1184000E+00
        -11   -1    0    0    0    0  0.00000000000E+00  0.00000000000E+00  0.45593999997E+02  0.45594000000E+02  0.51100000000E-03 0.  1.
         11   -1    0    0    0    0 -0.00000000000E+00 -0.00000000000E+00 -0.45593999997E+02  0.45594000000E+02  0.51100000000E-03 0. -1.
         23    2    1    2    0    0  0.35527136788E-14  0.00000000000E+00  0.00000000000E+00  0.91188000000E+02  0.91188000000E+02 0.  0.
    9900012    2    3    3    0    0 -0.30480489662E+02 -0.27664737103E+02  0.13755903215E+02  0.47787276478E+02  0.20000024772E+02 0.  0.
         12    1    3    3    0    0  0.30480489662E+02  0.27664737103E+02 -0.13755903215E+02  0.43400723522E+02  0.00000000000E+00 0. -1.
         11    1    4    4    0    0 -0.29609850191E+02 -0.23082292793E+02  0.15653721735E+02  0.40676460924E+02  0.51100000000E-03 0. -1.
        -11    1    4    4    0    0  0.49124980599E+00 -0.47767701359E+01 -0.43804661408E-01  0.48021639302E+01  0.51100000000E-03 0.  1.
         12    1    4    4    0    0 -0.13618892769E+01  0.19432582622E+00 -0.18540138582E+01  0.23086516228E+01  0.00000000000E+00 0. -1.
</event>
<event>
 8    1  0.6469014E-010  0.9118800E+02  0.7816164E-02  0.1184000E+00
        -11   -1    0    0    0    0  0.00000000000E+00  0.00000000000E+00  0.45593999997E+02  0.45594000000E+02  0.51100000000E-03 0.  1.
         11   -1    0    0    0    0 -0.00000000000E+00 -0.00000000000E+00 -0.45593999997E+02  0.45594000000E+02  0.51100000000E-03 0. -1.
         23    2    1    2    0    0  0.00000000000E+00  0.00000000000E+00 -0.88817841970E-15  0.91188000000E+02  0.91188000000E+02 0.  0.
    9900012    2    3    3    0    0 -0.52260605696E+01 -0.42709015040E+02 -0.56790582373E+01  0.47787269854E+02  0.19999994570E+02 0.  0.
        -12    1    3    3    0    0  0.52260605696E+01  0.42709015040E+02  0.56790582373E+01  0.43400730146E+02  0.00000000000E+00 0.  1.
         11    1    4    4    0    0 -0.29233221936E+01 -0.23501487687E+02 -0.11775113587E+02  0.26448422191E+02  0.51100000000E-03 0. -1.
        -11    1    4    4    0    0 -0.64492459440E-01 -0.10476505754E+02  0.34334975309E-01  0.10476760531E+02  0.51100000000E-03 0.  1.
         12    1    4    4    0    0 -0.22382459166E+01 -0.87310215997E+01  0.60617203739E+01  0.10862087131E+02  0.00000000000E+00 0. -1.
</event>
<event>
 8    1  0.6469014E-010  0.9118800E+02  0.7816164E-02  0.1184000E+00
        -11   -1    0    0    0    0  0.00000000000E+00  0.00000000000E+00  0.45593999997E+02  0.45594000000E+02  0.51100000000E-03 0. -1.
         11   -1    0    0    0    0 -0.00000000000E+00 -0.00000000000E+00 -0.45593999997E+02  0.45594000000E+02  0.51100000000E-03 0.  1.
         23    2    1    2    0    0  0.00000000000E+00  0.00000000000E+00  0.00000000000E+00  0.91188000000E+02  0.91188000000E+02 0.  0.
    9900012    2    3    3    0    0  0.38821590826E+02 -0.16959379179E+02  0.94278626014E+01  0.47787296669E+02  0.20000116831E+02 0.  0.
        -12    1    3    3    0    0 -0.38821590826E+02  0.16959379179E+02 -0.94278626014E+01  0.43400703331E+02  0.00000000000E+00 0.  1.
         11    1    4    4    0    0  0.10338559932E+02 -0.53542317174E+01  0.71160450178E+01  0.13645208526E+02  0.51100000000E-03 0. -1.
        -11    1    4    4    0    0  0.27183490107E+02 -0.53881806791E+01  0.19005148074E+01  0.27777447367E+02  0.51100000000E-03 0.  1.
        -12    1    4    4    0    0  0.12995407868E+01 -0.62169667828E+01  0.41130277612E+00  0.63646407761E+01  0.00000000000E+00 0.  1.
</event>
<event>
 8    1  0.6469014E-010  0.9118800E+02  0.7816164E-02  0.1184000E+00
        -11   -1    0    0    0    0  0.00000000000E+00  0.00000000000E+00  0.45593999997E+02  0.45594000000E+02  0.51100000000E-03 0. -1.
         11   -1    0    0    0    0 -0.00000000000E+00 -0.00000000000E+00 -0.45593999997E+02  0.45594000000E+02  0.51100000000E-03 0.  1.
         23    2    1    2    0    0  0.00000000000E+00  0.00000000000E+00  0.00000000000E+00  0.91188000000E+02  0.91188000000E+02 0.  0.
    9900012    2    3    3    0    0  0.36012701112E+02  0.21116069336E+02  0.11866771657E+02  0.47787270800E+02  0.19999998884E+02 0.  0.
        -12    1    3    3    0    0 -0.36012701112E+02 -0.21116069336E+02 -0.11866771657E+02  0.43400729200E+02  0.00000000000E+00 0.  1.
         11    1    4    4    0    0  0.42695953937E+01  0.10729946321E+02  0.59511726150E+01  0.12991445210E+02  0.51100000000E-03 0.  1.
        -11    1    4    4    0    0  0.16704298015E+02  0.26305833146E+01  0.57919027856E+01  0.17874553950E+02  0.51100000000E-03 0. -1.
         12    1    4    4    0    0  0.15038807703E+02  0.77555397001E+01  0.12369625649E+00  0.16921271640E+02  0.00000000000E+00 0. -1.
</event>
<event>
 8    1  0.6469014E-010  0.9118800E+02  0.7816164E-02  0.1184000E+00
        -11   -1    0    0    0    0  0.00000000000E+00  0.00000000000E+00  0.45593999997E+02  0.45594000000E+02  0.51100000000E-03 0. -1.
         11   -1    0    0    0    0 -0.00000000000E+00 -0.00000000000E+00 -0.45593999997E+02  0.45594000000E+02  0.51100000000E-03 0.  1.
         23    2    1    2    0    0  0.17763568394E-14 -0.44408920985E-15  0.00000000000E+00  0.91188000000E+02  0.91188000000E+02 0.  0.
    9900012    2    3    3    0    0  0.11156283291E+02 -0.22725003636E+01  0.41880741953E+02  0.47787268885E+02  0.19999990155E+02 0.  0.
        -12    1    3    3    0    0 -0.11156283291E+02  0.22725003636E+01 -0.41880741953E+02  0.43400731115E+02  0.00000000000E+00 0.  1.
         11    1    4    4    0    0  0.12028239209E+01  0.26768058073E+01  0.11511638896E+02  0.11879810817E+02  0.51100000000E-03 0. -1.
        -11    1    4    4    0    0  0.21006054295E-01  0.32984624525E+01  0.17019558724E+02  0.17336253206E+02  0.51100000000E-03 0.  1.
        -12    1    4    4    0    0  0.99324533158E+01 -0.82477686233E+01  0.13349544333E+02  0.18571204862E+02  0.00000000000E+00 0.  1.
</event>
<event>
 8    1  0.6469014E-010  0.9118800E+02  0.7816164E-02  0.1184000E+00
        -11   -1    0    0    0    0  0.00000000000E+00  0.00000000000E+00  0.45593999997E+02  0.45594000000E+02  0.51100000000E-03 0.  1.
         11   -1    0    0    0    0 -0.00000000000E+00 -0.00000000000E+00 -0.45593999997E+02  0.45594000000E+02  0.51100000000E-03 0. -1.
         23    2    1    2    0    0  0.00000000000E+00  0.00000000000E+00 -0.88817841970E-15  0.91188000000E+02  0.91188000000E+02 0.  0.
    9900012    2    3    3    0    0  0.33319975311E+02 -0.26914852174E+02 -0.69994182166E+01  0.47787287130E+02  0.20000073340E+02 0.  0.
        -12    1    3    3    0    0 -0.33319975311E+02  0.26914852174E+02  0.69994182166E+01  0.43400712870E+02  0.00000000000E+00 0.  1.
         11    1    4    4    0    0  0.12427137574E+02 -0.97437771414E+01 -0.99207180437E+01  0.18649278486E+02  0.51100000000E-03 0. -1.
        -11    1    4    4    0    0  0.17831028229E+02 -0.96595318944E+01  0.47379615457E+01  0.20825474880E+02  0.51100000000E-03 0.  1.
         12    1    4    4    0    0  0.30618095077E+01 -0.75115431379E+01 -0.18166617185E+01  0.83125337638E+01  0.00000000000E+00 0. -1.
</event>
<event>
 8    1  0.8398871E-010  0.9118800E+02  0.7816164E-02  0.1184000E+00
        -11   -1    0    0    0    0  0.00000000000E+00  0.00000000000E+00  0.45593999997E+02  0.45594000000E+02  0.51100000000E-03 0. -1.
         11   -1    0    0    0    0 -0.00000000000E+00 -0.00000000000E+00 -0.45593999997E+02  0.45594000000E+02  0.51100000000E-03 0.  1.
         23    2    1    2    0    0  0.00000000000E+00  0.00000000000E+00  0.00000000000E+00  0.91188000000E+02  0.91188000000E+02 0.  0.
    9900012    2    3    3    0    0  0.95085830133E+01  0.15159066060E+02 -0.39540016546E+02  0.47787270246E+02  0.19999996359E+02 0.  0.
         12    1    3    3    0    0 -0.95085830133E+01 -0.15159066060E+02  0.39540016546E+02  0.43400729754E+02  0.00000000000E+00 0. -1.
         11    1    4    4    0    0  0.56219051912E+01  0.62940789797E+01 -0.24188735084E+01  0.87790772575E+01  0.51100000000E-03 0. -1.
        -11    1    4    4    0    0  0.58178943479E+01  0.69842638817E+01 -0.25294918719E+02  0.26878629985E+02  0.51100000000E-03 0.  1.
         12    1    4    4    0    0 -0.19312165258E+01  0.18807231988E+01 -0.11826224318E+02  0.12129563003E+02  0.00000000000E+00 0. -1.
</event>
<event>
 8    1  0.6469014E-010  0.9118800E+02  0.7816164E-02  0.1184000E+00
        -11   -1    0    0    0    0  0.00000000000E+00  0.00000000000E+00  0.45593999997E+02  0.45594000000E+02  0.51100000000E-03 0.  1.
         11   -1    0    0    0    0 -0.00000000000E+00 -0.00000000000E+00 -0.45593999997E+02  0.45594000000E+02  0.51100000000E-03 0. -1.
         23    2    1    2    0    0  0.00000000000E+00  0.35527136788E-14  0.00000000000E+00  0.91188000000E+02  0.91188000000E+02 0.  0.
    9900012    2    3    3    0    0 -0.32969619070E+02  0.27442209662E+02 -0.65994609580E+01  0.47787268005E+02  0.19999986141E+02 0.  0.
        -12    1    3    3    0    0  0.32969619070E+02 -0.27442209662E+02  0.65994609580E+01  0.43400731995E+02  0.00000000000E+00 0.  1.
         11    1    4    4    0    0 -0.63704524350E+01  0.51591802537E+00 -0.58226201367E+01  0.86459089258E+01  0.51100000000E-03 0. -1.
        -11    1    4    4    0    0 -0.23427199380E+02  0.23616969325E+02  0.27190257449E+01  0.33376458951E+02  0.51100000000E-03 0.  1.
         12    1    4    4    0    0 -0.31719672555E+01  0.33093223122E+01 -0.34958665662E+01  0.57649001279E+01  0.00000000000E+00 0. -1.
</event>
<event>
 8    1  0.6469014E-010  0.9118800E+02  0.7816164E-02  0.1184000E+00
        -11   -1    0    0    0    0  0.00000000000E+00  0.00000000000E+00  0.45593999997E+02  0.45594000000E+02  0.51100000000E-03 0. -1.
         11   -1    0    0    0    0 -0.00000000000E+00 -0.00000000000E+00 -0.45593999997E+02  0.45594000000E+02  0.51100000000E-03 0.  1.
         23    2    1    2    0    0  0.00000000000E+00  0.00000000000E+00  0.00000000000E+00  0.91188000000E+02  0.91188000000E+02 0.  0.
    9900012    2    3    3    0    0 -0.23966470904E+02  0.11659872696E+02 -0.34253162270E+02  0.47787268619E+02  0.19999988942E+02 0.  0.
         12    1    3    3    0    0  0.23966470904E+02 -0.11659872696E+02  0.34253162270E+02  0.43400731381E+02  0.00000000000E+00 0. -1.
         11    1    4    4    0    0 -0.47736297406E+01  0.10007990445E+01 -0.19518159772E+02  0.20118342396E+02  0.51100000000E-03 0. -1.
        -11    1    4    4    0    0 -0.17265753576E+02  0.12031170644E+02 -0.13475374344E+02  0.24988818051E+02  0.51100000000E-03 0.  1.
         12    1    4    4    0    0 -0.19270875873E+01 -0.13720969926E+01 -0.12596281541E+01  0.26801081718E+01  0.00000000000E+00 0. -1.
</event>
<event>
 8    1  0.6469014E-010  0.9118800E+02  0.7816164E-02  0.1184000E+00
        -11   -1    0    0    0    0  0.00000000000E+00  0.00000000000E+00  0.45593999997E+02  0.45594000000E+02  0.51100000000E-03 0. -1.
         11   -1    0    0    0    0 -0.00000000000E+00 -0.00000000000E+00 -0.45593999997E+02  0.45594000000E+02  0.51100000000E-03 0.  1.
         23    2    1    2    0    0  0.00000000000E+00  0.00000000000E+00  0.00000000000E+00  0.91188000000E+02  0.91188000000E+02 0.  0.
    9900012    2    3    3    0    0 -0.26108929582E+02 -0.58529120455E+01 -0.34171464748E+02  0.47787288182E+02  0.20000078136E+02 0.  0.
         12    1    3    3    0    0  0.26108929582E+02  0.58529120455E+01  0.34171464748E+02  0.43400711818E+02  0.00000000000E+00 0. -1.
         11    1    4    4    0    0 -0.11621764285E+02 -0.30283077864E+01 -0.29857234392E+01  0.12375402938E+02  0.51100000000E-03 0. -1.
        -11    1    4    4    0    0 -0.34255583593E+01 -0.35154727409E+01 -0.15098967004E+02  0.15876769304E+02  0.51100000000E-03 0.  1.
         12    1    4    4    0    0 -0.11061606937E+02  0.69086848170E+00 -0.16086774304E+02  0.19535115940E+02  0.00000000000E+00 0. -1.
</event>
<event>
 8    1  0.6469014E-010  0.9118800E+02  0.7816164E-02  0.1184000E+00
        -11   -1    0    0    0    0  0.00000000000E+00  0.00000000000E+00  0.45593999997E+02  0.45594000000E+02  0.51100000000E-03 0. -1.
         11   -1    0    0    0    0 -0.00000000000E+00 -0.00000000000E+00 -0.45593999997E+02  0.45594000000E+02  0.51100000000E-03 0.  1.
         23    2    1    2    0    0  0.00000000000E+00  0.00000000000E+00  0.00000000000E+00  0.91188000000E+02  0.91188000000E+02 0.  0.
    9900012    2    3    3    0    0  0.10920848261E+02 -0.95623912986E+01 -0.40901343021E+02  0.47787261354E+02  0.19999955816E+02 0.  0.
         12    1    3    3    0    0 -0.10920848261E+02  0.95623912986E+01  0.40901343021E+02  0.43400738646E+02  0.00000000000E+00 0. -1.
         11    1    4    4    0    0  0.15662205089E+02 -0.10236248283E+02 -0.28725712742E+02  0.34281948894E+02  0.51100000000E-03 0. -1.
        -11    1    4    4    0    0 -0.28856966044E+01 -0.46391810442E+00 -0.34955099218E+01  0.45564300472E+01  0.51100000000E-03 0.  1.
         12    1    4    4    0    0 -0.18556602231E+01  0.11377750884E+01 -0.86801203571E+01  0.89488824123E+01  0.00000000000E+00 0. -1.
</event>
<event>
 8    1  0.6469014E-010  0.9118800E+02  0.7816164E-02  0.1184000E+00
        -11   -1    0    0    0    0  0.00000000000E+00  0.00000000000E+00  0.45593999997E+02  0.45594000000E+02  0.51100000000E-03 0. -1.
         11   -1    0    0    0    0 -0.00000000000E+00 -0.00000000000E+00 -0.45593999997E+02  0.45594000000E+02  0.51100000000E-03 0.  1.
         23    2    1    2    0    0  0.17763568394E-14  0.00000000000E+00  0.00000000000E+00  0.91188000000E+02  0.91188000000E+02 0.  0.
    9900012    2    3    3    0    0 -0.15285324202E+02  0.47238115195E+01 -0.40344375492E+02  0.47787260777E+02  0.19999953187E+02 0.  0.
         12    1    3    3    0    0  0.15285324202E+02 -0.47238115195E+01  0.40344375492E+02  0.43400739223E+02  0.00000000000E+00 0. -1.
         11    1    4    4    0    0 -0.15639485090E+02  0.16321673357E+01 -0.33937132457E+02  0.37403026933E+02  0.51100000000E-03 0.  1.
        -11    1    4    4    0    0  0.29251431420E+01  0.42753633472E+01 -0.31237899558E+01  0.60492361585E+01  0.51100000000E-03 0. -1.
        -12    1    4    4    0    0 -0.25709822536E+01 -0.11837191634E+01 -0.32834530793E+01  0.43349976851E+01  0.00000000000E+00 0.  1.
</event>
<event>
 8    1  0.8344952E-010  0.9118800E+02  0.7816164E-02  0.1184000E+00
        -11   -1    0    0    0    0  0.00000000000E+00  0.00000000000E+00  0.45593999997E+02  0.45594000000E+02  0.51100000000E-03 0. -1.
         11   -1    0    0    0    0 -0.00000000000E+00 -0.00000000000E+00 -0.45593999997E+02  0.45594000000E+02  0.51100000000E-03 0.  1.
         23    2    1    2    0    0 -0.35527136788E-14  0.00000000000E+00  0.00000000000E+00  0.91188000000E+02  0.91188000000E+02 0.  0.
    9900012    2    3    3    0    0 -0.26098056345E+02  0.22694796974E+02 -0.26219477551E+02  0.47787270079E+02  0.19999995596E+02 0.  0.
         12    1    3    3    0    0  0.26098056345E+02 -0.22694796974E+02  0.26219477551E+02  0.43400729921E+02  0.00000000000E+00 0. -1.
         11    1    4    4    0    0 -0.48977595759E+01 -0.20419576054E+01 -0.56313897147E+01  0.77375829628E+01  0.51100000000E-03 0. -1.
        -11    1    4    4    0    0 -0.21672064681E+02  0.19727022097E+02 -0.17146929610E+02  0.33953659356E+02  0.51100000000E-03 0.  1.
         12    1    4    4    0    0  0.47176791255E+00  0.50097324821E+01 -0.34411582270E+01  0.60960277599E+01  0.00000000000E+00 0. -1.
</event>
<event>
 8    1  0.6469014E-010  0.9118800E+02  0.7816164E-02  0.1184000E+00
        -11   -1    0    0    0    0  0.00000000000E+00  0.00000000000E+00  0.45593999997E+02  0.45594000000E+02  0.51100000000E-03 0. -1.
         11   -1    0    0    0    0 -0.00000000000E+00 -0.00000000000E+00 -0.45593999997E+02  0.45594000000E+02  0.51100000000E-03 0.  1.
         23    2    1    2    0    0  0.00000000000E+00  0.00000000000E+00  0.00000000000E+00  0.91188000000E+02  0.91188000000E+02 0.  0.
    9900012    2    3    3    0    0  0.22173661765E+02  0.28792883255E+02  0.23725972949E+02  0.47787271958E+02  0.20000004167E+02 0.  0.
        -12    1    3    3    0    0 -0.22173661765E+02 -0.28792883255E+02 -0.23725972949E+02  0.43400728042E+02  0.00000000000E+00 0.  1.
         11    1    4    4    0    0  0.72742078539E+01  0.15223286228E+02  0.20060013722E+02  0.26211957086E+02  0.51100000000E-03 0. -1.
        -11    1    4    4    0    0  0.34094292744E+01  0.16205551759E+01 -0.17156468813E+01  0.41465469415E+01  0.51100000000E-03 0.  1.
         12    1    4    4    0    0  0.11490024636E+02  0.11949041850E+02  0.53816061079E+01  0.17428767931E+02  0.00000000000E+00 0. -1.
</event>
<event>
 8    1  0.6469014E-010  0.9118800E+02  0.7816164E-02  0.1184000E+00
        -11   -1    0    0    0    0  0.00000000000E+00  0.00000000000E+00  0.45593999997E+02  0.45594000000E+02  0.51100000000E-03 0. -1.
         11   -1    0    0    0    0 -0.00000000000E+00 -0.00000000000E+00 -0.45593999997E+02  0.45594000000E+02  0.51100000000E-03 0.  1.
         23    2    1    2    0    0  0.00000000000E+00 -0.94368957093E-15  0.00000000000E+00  0.91188000000E+02  0.91188000000E+02 0.  0.
    9900012    2    3    3    0    0  0.62397014580E+01 -0.33100904545E+00 -0.42948574052E+02  0.47787268965E+02  0.19999990518E+02 0.  0.
         12    1    3    3    0    0 -0.62397014580E+01  0.33100904545E+00  0.42948574052E+02  0.43400731035E+02  0.00000000000E+00 0. -1.
         11    1    4    4    0    0  0.19364330935E+00 -0.14168272764E+01 -0.49366176035E+00  0.15128117719E+01  0.51100000000E-03 0. -1.
        -11    1    4    4    0    0  0.80066276716E+01 -0.66273353274E+01 -0.25835247248E+02  0.27847579084E+02  0.51100000000E-03 0.  1.
        -12    1    4    4    0    0 -0.19605695230E+01  0.77131535583E+01 -0.16619665044E+02  0.18426878109E+02  0.00000000000E+00 0.  1.
</event>
<event>
 8    1  0.6469014E-010  0.9118800E+02  0.7816164E-02  0.1184000E+00
        -11   -1    0    0    0    0  0.00000000000E+00  0.00000000000E+00  0.45593999997E+02  0.45594000000E+02  0.51100000000E-03 0. -1.
         11   -1    0    0    0    0 -0.00000000000E+00 -0.00000000000E+00 -0.45593999997E+02  0.45594000000E+02  0.51100000000E-03 0.  1.
         23    2    1    2    0    0  0.00000000000E+00  0.35527136788E-14  0.35527136788E-14  0.91188000000E+02  0.91188000000E+02 0.  0.
    9900012    2    3    3    0    0  0.27104259519E+02 -0.25297100953E+02 -0.22561882805E+02  0.47787277006E+02  0.20000027180E+02 0.  0.
         12    1    3    3    0    0 -0.27104259519E+02  0.25297100953E+02  0.22561882805E+02  0.43400722994E+02  0.00000000000E+00 0. -1.
         11    1    4    4    0    0  0.10026437678E+02 -0.11342283510E+02 -0.17217370891E+02  0.22926288587E+02  0.51100000000E-03 0.  1.
        -11    1    4    4    0    0  0.96190148467E+00  0.13800529279E+01 -0.15624122683E+01  0.22958512381E+01  0.51100000000E-03 0. -1.
         12    1    4    4    0    0  0.16115920357E+02 -0.15334870371E+02 -0.37820996463E+01  0.22565137180E+02  0.00000000000E+00 0. -1.
</event>
<event>
 8    1  0.6469014E-010  0.9118800E+02  0.7816164E-02  0.1184000E+00
        -11   -1    0    0    0    0  0.00000000000E+00  0.00000000000E+00  0.45593999997E+02  0.45594000000E+02  0.51100000000E-03 0. -1.
         11   -1    0    0    0    0 -0.00000000000E+00 -0.00000000000E+00 -0.45593999997E+02  0.45594000000E+02  0.51100000000E-03 0.  1.
         23    2    1    2    0    0  0.88817841970E-15  0.00000000000E+00  0.35527136788E-14  0.91188000000E+02  0.91188000000E+02 0.  0.
    9900012    2    3    3    0    0  0.68874322086E+01 -0.37161962209E+02  0.21334833684E+02  0.47787270905E+02  0.19999999366E+02 0.  0.
        -12    1    3    3    0    0 -0.68874322086E+01  0.37161962209E+02 -0.21334833684E+02  0.43400729095E+02  0.00000000000E+00 0.  1.
         11    1    4    4    0    0  0.80365266251E+01 -0.28061741325E+02  0.23039129910E+02  0.37186672259E+02  0.51100000000E-03 0. -1.
        -11    1    4    4    0    0  0.25735637467E+00 -0.24038808609E+01 -0.27689037823E+01  0.36758269701E+01  0.51100000000E-03 0.  1.
         12    1    4    4    0    0 -0.14064507912E+01 -0.66963400225E+01  0.10646075566E+01  0.69247716767E+01  0.00000000000E+00 0. -1.
</event>
<event>
 8    1  0.6469014E-010  0.9118800E+02  0.7816164E-02  0.1184000E+00
        -11   -1    0    0    0    0  0.00000000000E+00  0.00000000000E+00  0.45593999997E+02  0.45594000000E+02  0.51100000000E-03 0. -1.
         11   -1    0    0    0    0 -0.00000000000E+00 -0.00000000000E+00 -0.45593999997E+02  0.45594000000E+02  0.51100000000E-03 0.  1.
         23    2    1    2    0    0  0.00000000000E+00  0.00000000000E+00 -0.17763568394E-14  0.91188000000E+02  0.91188000000E+02 0.  0.
    9900012    2    3    3    0    0 -0.21105530220E+02 -0.35905721661E+02  0.12204881959E+02  0.47787269620E+02  0.19999993507E+02 0.  0.
        -12    1    3    3    0    0  0.21105530220E+02  0.35905721661E+02 -0.12204881959E+02  0.43400730380E+02  0.00000000000E+00 0.  1.
         11    1    4    4    0    0 -0.17115044274E+02 -0.23200478604E+02 -0.60165850245E+00  0.28836590318E+02  0.51100000000E-03 0. -1.
        -11    1    4    4    0    0 -0.38478698694E+01 -0.10763965182E+02  0.85650822252E+01  0.14283895924E+02  0.51100000000E-03 0.  1.
         12    1    4    4    0    0 -0.14261607671E+00 -0.19412778742E+01  0.42414582364E+01  0.46667833784E+01  0.00000000000E+00 0. -1.
</event>
<event>
 8    1  0.6469014E-010  0.9118800E+02  0.7816164E-02  0.1184000E+00
        -11   -1    0    0    0    0  0.00000000000E+00  0.00000000000E+00  0.45593999997E+02  0.45594000000E+02  0.51100000000E-03 0.  1.
         11   -1    0    0    0    0 -0.00000000000E+00 -0.00000000000E+00 -0.45593999997E+02  0.45594000000E+02  0.51100000000E-03 0. -1.
         23    2    1    2    0    0 -0.71054273576E-14 -0.71054273576E-14 -0.35527136788E-14  0.91188000000E+02  0.91188000000E+02 0.  0.
    9900012    2    3    3    0    0 -0.18296329586E+02 -0.28993101167E+02 -0.26613298649E+02  0.47787271244E+02  0.20000000908E+02 0.  0.
        -12    1    3    3    0    0  0.18296329586E+02  0.28993101167E+02  0.26613298649E+02  0.43400728756E+02  0.00000000000E+00 0.  1.
         11    1    4    4    0    0 -0.97819189481E+01 -0.34611677489E+01 -0.68855790510E+01  0.12452984366E+02  0.51100000000E-03 0. -1.
        -11    1    4    4    0    0 -0.37246971771E+01 -0.14063223130E+02 -0.36249929288E+01  0.14992937932E+02  0.51100000000E-03 0.  1.
        -12    1    4    4    0    0 -0.47897134610E+01 -0.11468710289E+02 -0.16102726669E+02  0.20341348945E+02  0.00000000000E+00 0.  1.
</event>
<event>
 8    1  0.6469014E-010  0.9118800E+02  0.7816164E-02  0.1184000E+00
        -11   -1    0    0    0    0  0.00000000000E+00  0.00000000000E+00  0.45593999997E+02  0.45594000000E+02  0.51100000000E-03 0. -1.
         11   -1    0    0    0    0 -0.00000000000E+00 -0.00000000000E+00 -0.45593999997E+02  0.45594000000E+02  0.51100000000E-03 0.  1.
         23    2    1    2    0    0  0.00000000000E+00  0.35527136788E-14  0.00000000000E+00  0.91188000000E+02  0.91188000000E+02 0.  0.
    9900012    2    3    3    0    0 -0.69687864963E+01 -0.28329750386E+02 -0.32132298195E+02  0.47787270404E+02  0.19999997080E+02 0.  0.
         12    1    3    3    0    0  0.69687864963E+01  0.28329750386E+02  0.32132298195E+02  0.43400729596E+02  0.00000000000E+00 0. -1.
         11    1    4    4    0    0 -0.69654645776E+01 -0.20015686805E+02 -0.19454686643E+02  0.28768563532E+02  0.51100000000E-03 0. -1.
        -11    1    4    4    0    0  0.13974904370E+01 -0.11007885738E+02 -0.10550991458E+02  0.15311758519E+02  0.51100000000E-03 0.  1.
         12    1    4    4    0    0 -0.14008123557E+01  0.26938221565E+01 -0.21266200935E+01  0.37069483526E+01  0.00000000000E+00 0. -1.
</event>
<event>
 8    1  0.6469014E-010  0.9118800E+02  0.7816164E-02  0.1184000E+00
        -11   -1    0    0    0    0  0.00000000000E+00  0.00000000000E+00  0.45593999997E+02  0.45594000000E+02  0.51100000000E-03 0. -1.
         11   -1    0    0    0    0 -0.00000000000E+00 -0.00000000000E+00 -0.45593999997E+02  0.45594000000E+02  0.51100000000E-03 0.  1.
         23    2    1    2    0    0  0.17763568394E-14  0.00000000000E+00  0.00000000000E+00  0.91188000000E+02  0.91188000000E+02 0.  0.
    9900012    2    3    3    0    0  0.15081709346E+02  0.20837066054E+02 -0.34956855146E+02  0.47787274196E+02  0.20000014371E+02 0.  0.
         12    1    3    3    0    0 -0.15081709346E+02 -0.20837066054E+02  0.34956855146E+02  0.43400725804E+02  0.00000000000E+00 0. -1.
         11    1    4    4    0    0  0.21203847436E+01  0.68974001104E+01 -0.43186272863E+01  0.84095601337E+01  0.51100000000E-03 0. -1.
        -11    1    4    4    0    0  0.38896873936E+01 -0.12984822441E+01 -0.15587497463E+02  0.16117872117E+02  0.51100000000E-03 0.  1.
        -12    1    4    4    0    0  0.90716372091E+01  0.15238148188E+02 -0.15050730397E+02  0.23259841946E+02  0.00000000000E+00 0.  1.
</event>
<event>
 8    1  0.6469014E-010  0.9118800E+02  0.7816164E-02  0.1184000E+00
        -11   -1    0    0    0    0  0.00000000000E+00  0.00000000000E+00  0.45593999997E+02  0.45594000000E+02  0.51100000000E-03 0. -1.
         11   -1    0    0    0    0 -0.00000000000E+00 -0.00000000000E+00 -0.45593999997E+02  0.45594000000E+02  0.51100000000E-03 0.  1.
         23    2    1    2    0    0  0.12767564783E-14  0.00000000000E+00  0.00000000000E+00  0.91188000000E+02  0.91188000000E+02 0.  0.
    9900012    2    3    3    0    0  0.36790068690E+00  0.44247003510E+01 -0.43173023468E+02  0.47787270980E+02  0.19999999705E+02 0.  0.
         12    1    3    3    0    0 -0.36790068690E+00 -0.44247003510E+01  0.43173023468E+02  0.43400729020E+02  0.00000000000E+00 0. -1.
         11    1    4    4    0    0 -0.28584115734E+00  0.51321102317E+01 -0.85508995575E+01  0.99768804794E+01  0.51100000000E-03 0. -1.
        -11    1    4    4    0    0 -0.40910476813E+01 -0.20093138899E+01 -0.31827009971E+02  0.32151711889E+02  0.51100000000E-03 0.  1.
        -12    1    4    4    0    0  0.47447895255E+01  0.13019040092E+01 -0.27951139397E+01  0.56586786114E+01  0.00000000000E+00 0.  1.
</event>
<event>
 8    1  0.6469014E-010  0.9118800E+02  0.7816164E-02  0.1184000E+00
        -11   -1    0    0    0    0  0.00000000000E+00  0.00000000000E+00  0.45593999997E+02  0.45594000000E+02  0.51100000000E-03 0. -1.
         11   -1    0    0    0    0 -0.00000000000E+00 -0.00000000000E+00 -0.45593999997E+02  0.45594000000E+02  0.51100000000E-03 0.  1.
         23    2    1    2    0    0  0.17763568394E-14  0.00000000000E+00  0.71054273576E-14  0.91188000000E+02  0.91188000000E+02 0.  0.
    9900012    2    3    3    0    0  0.13728362312E+02 -0.10167346915E+01  0.41159705779E+02  0.47787273496E+02  0.20000011180E+02 0.  0.
        -12    1    3    3    0    0 -0.13728362312E+02  0.10167346915E+01 -0.41159705779E+02  0.43400726504E+02  0.00000000000E+00 0.  1.
         11    1    4    4    0    0  0.75747098846E+01 -0.73192976442E+00  0.33646962704E+01  0.83206449430E+01  0.51100000000E-03 0. -1.
        -11    1    4    4    0    0  0.32458746331E+01  0.66975642800E+00  0.28018404100E+01  0.43398831494E+01  0.51100000000E-03 0.  1.
         12    1    4    4    0    0  0.29077777941E+01 -0.95456135510E+00  0.34993169099E+02  0.35126745404E+02  0.00000000000E+00 0. -1.
</event>
<event>
 8    1  0.6469014E-010  0.9118800E+02  0.7816164E-02  0.1184000E+00
        -11   -1    0    0    0    0  0.00000000000E+00  0.00000000000E+00  0.45593999997E+02  0.45594000000E+02  0.51100000000E-03 0.  1.
         11   -1    0    0    0    0 -0.00000000000E+00 -0.00000000000E+00 -0.45593999997E+02  0.45594000000E+02  0.51100000000E-03 0. -1.
         23    2    1    2    0    0  0.00000000000E+00  0.00000000000E+00  0.00000000000E+00  0.91188000000E+02  0.91188000000E+02 0.  0.
    9900012    2    3    3    0    0 -0.18624645660E+02  0.34036859316E+02  0.19448361436E+02  0.47787262903E+02  0.19999962878E+02 0.  0.
        -12    1    3    3    0    0  0.18624645660E+02 -0.34036859316E+02 -0.19448361436E+02  0.43400737097E+02  0.00000000000E+00 0.  1.
         11    1    4    4    0    0 -0.75471223181E+01  0.15401112013E+02  0.63528540845E+01  0.18289670905E+02  0.51100000000E-03 0. -1.
        -11    1    4    4    0    0 -0.46580878951E+01  0.85310930036E+01 -0.23069180807E+01  0.99899550532E+01  0.51100000000E-03 0.  1.
        -12    1    4    4    0    0 -0.64194354464E+01  0.10104654299E+02  0.15402425432E+02  0.19507636944E+02  0.00000000000E+00 0.  1.
</event>
<event>
 8    1  0.6469014E-010  0.9118800E+02  0.7816164E-02  0.1184000E+00
        -11   -1    0    0    0    0  0.00000000000E+00  0.00000000000E+00  0.45593999997E+02  0.45594000000E+02  0.51100000000E-03 0. -1.
         11   -1    0    0    0    0 -0.00000000000E+00 -0.00000000000E+00 -0.45593999997E+02  0.45594000000E+02  0.51100000000E-03 0.  1.
         23    2    1    2    0    0  0.35527136788E-14  0.35527136788E-14 -0.71054273576E-14  0.91188000000E+02  0.91188000000E+02 0.  0.
    9900012    2    3    3    0    0 -0.11398862613E+02 -0.25091788623E+02  0.33527473149E+02  0.47787269811E+02  0.19999994376E+02 0.  0.
        -12    1    3    3    0    0  0.11398862613E+02  0.25091788623E+02 -0.33527473149E+02  0.43400730189E+02  0.00000000000E+00 0.  1.
         11    1    4    4    0    0 -0.73787781679E+01 -0.14568755466E+02  0.97770425359E+01  0.19033800569E+02  0.51100000000E-03 0. -1.
        -11    1    4    4    0    0 -0.46908731426E+01 -0.10040049229E+02  0.98444904319E+01  0.14822984567E+02  0.51100000000E-03 0.  1.
        -12    1    4    4    0    0  0.67078869718E+00 -0.48298392818E+00  0.13905940181E+02  0.13930484675E+02  0.00000000000E+00 0.  1.
</event>
<event>
 8    1  0.6469014E-010  0.9118800E+02  0.7816164E-02  0.1184000E+00
        -11   -1    0    0    0    0  0.00000000000E+00  0.00000000000E+00  0.45593999997E+02  0.45594000000E+02  0.51100000000E-03 0. -1.
         11   -1    0    0    0    0 -0.00000000000E+00 -0.00000000000E+00 -0.45593999997E+02  0.45594000000E+02  0.51100000000E-03 0.  1.
         23    2    1    2    0    0  0.88817841970E-15  0.00000000000E+00  0.00000000000E+00  0.91188000000E+02  0.91188000000E+02 0.  0.
    9900012    2    3    3    0    0  0.60176565404E+01  0.42786582614E+02  0.40887695338E+01  0.47787287122E+02  0.20000073306E+02 0.  0.
        -12    1    3    3    0    0 -0.60176565404E+01 -0.42786582614E+02 -0.40887695338E+01  0.43400712878E+02  0.00000000000E+00 0.  1.
         11    1    4    4    0    0 -0.15898941172E+01  0.14643154165E+02 -0.20231152645E+01  0.14867505602E+02  0.51100000000E-03 0. -1.
        -11    1    4    4    0    0  0.59025456126E+01  0.21338101931E+02  0.10646412652E+02  0.24566252082E+02  0.51100000000E-03 0.  1.
        -12    1    4    4    0    0  0.17050050449E+01  0.68053265177E+01 -0.45345278540E+01  0.83535294382E+01  0.00000000000E+00 0.  1.
</event>
<event>
 8    1  0.6469014E-010  0.9118800E+02  0.7816164E-02  0.1184000E+00
        -11   -1    0    0    0    0  0.00000000000E+00  0.00000000000E+00  0.45593999997E+02  0.45594000000E+02  0.51100000000E-03 0. -1.
         11   -1    0    0    0    0 -0.00000000000E+00 -0.00000000000E+00 -0.45593999997E+02  0.45594000000E+02  0.51100000000E-03 0.  1.
         23    2    1    2    0    0  0.00000000000E+00  0.00000000000E+00  0.00000000000E+00  0.91188000000E+02  0.91188000000E+02 0.  0.
    9900012    2    3    3    0    0 -0.19264425495E+02  0.17001591488E+02 -0.34977866800E+02  0.47787269952E+02  0.19999995021E+02 0.  0.
         12    1    3    3    0    0  0.19264425495E+02 -0.17001591488E+02  0.34977866800E+02  0.43400730048E+02  0.00000000000E+00 0. -1.
         11    1    4    4    0    0  0.86302681294E+00  0.21850339594E+00  0.14690681738E+01  0.17177661582E+01  0.51100000000E-03 0. -1.
        -11    1    4    4    0    0 -0.18450514933E+02  0.16066923210E+02 -0.36820998795E+02  0.44208070250E+02  0.51100000000E-03 0.  1.
        -12    1    4    4    0    0 -0.16769373752E+01  0.71616488117E+00  0.37406382069E+00  0.18614335441E+01  0.00000000000E+00 0.  1.
</event>
<event>
 8    1  0.6469014E-010  0.9118800E+02  0.7816164E-02  0.1184000E+00
        -11   -1    0    0    0    0  0.00000000000E+00  0.00000000000E+00  0.45593999997E+02  0.45594000000E+02  0.51100000000E-03 0.  1.
         11   -1    0    0    0    0 -0.00000000000E+00 -0.00000000000E+00 -0.45593999997E+02  0.45594000000E+02  0.51100000000E-03 0. -1.
         23    2    1    2    0    0  0.00000000000E+00  0.00000000000E+00  0.00000000000E+00  0.91188000000E+02  0.91188000000E+02 0.  0.
    9900012    2    3    3    0    0  0.42794406351E+02  0.47781764289E+01  0.54250376889E+01  0.47787271678E+02  0.20000002891E+02 0.  0.
         12    1    3    3    0    0 -0.42794406351E+02 -0.47781764289E+01 -0.54250376889E+01  0.43400728322E+02  0.00000000000E+00 0. -1.
         11    1    4    4    0    0  0.12545978019E+02 -0.54491538785E+01 -0.85517753284E+00  0.13704968855E+02  0.51100000000E-03 0. -1.
        -11    1    4    4    0    0  0.24369679170E+02  0.74371920285E+01  0.66613259004E+00  0.25487974047E+02  0.51100000000E-03 0.  1.
         12    1    4    4    0    0  0.58787491615E+01  0.27901382789E+01  0.56140826317E+01  0.85943287763E+01  0.00000000000E+00 0. -1.
</event>
<event>
 8    1  0.6469014E-010  0.9118800E+02  0.7816164E-02  0.1184000E+00
        -11   -1    0    0    0    0  0.00000000000E+00  0.00000000000E+00  0.45593999997E+02  0.45594000000E+02  0.51100000000E-03 0. -1.
         11   -1    0    0    0    0 -0.00000000000E+00 -0.00000000000E+00 -0.45593999997E+02  0.45594000000E+02  0.51100000000E-03 0.  1.
         23    2    1    2    0    0  0.00000000000E+00 -0.44408920985E-15  0.00000000000E+00  0.91188000000E+02  0.91188000000E+02 0.  0.
    9900012    2    3    3    0    0 -0.28119037416E+02 -0.32029075912E+01 -0.32904211023E+02  0.47787239807E+02  0.19999857575E+02 0.  0.
         12    1    3    3    0    0  0.28119037416E+02  0.32029075912E+01  0.32904211023E+02  0.43400760193E+02  0.00000000000E+00 0. -1.
         11    1    4    4    0    0 -0.29923230387E+01 -0.62228314610E+01 -0.26054537077E+01  0.73801096091E+01  0.51100000000E-03 0. -1.
        -11    1    4    4    0    0 -0.76874133130E+01  0.47215664083E+01 -0.12649633081E+02  0.15537140346E+02  0.51100000000E-03 0.  1.
         12    1    4    4    0    0 -0.17439301065E+02 -0.17016425385E+01 -0.17649124235E+02  0.24869989851E+02  0.00000000000E+00 0. -1.
</event>
<event>
 8    1  0.6469014E-010  0.9118800E+02  0.7816164E-02  0.1184000E+00
        -11   -1    0    0    0    0  0.00000000000E+00  0.00000000000E+00  0.45593999997E+02  0.45594000000E+02  0.51100000000E-03 0. -1.
         11   -1    0    0    0    0 -0.00000000000E+00 -0.00000000000E+00 -0.45593999997E+02  0.45594000000E+02  0.51100000000E-03 0.  1.
         23    2    1    2    0    0  0.00000000000E+00  0.00000000000E+00  0.00000000000E+00  0.91188000000E+02  0.91188000000E+02 0.  0.
    9900012    2    3    3    0    0  0.34391077379E+01  0.32859402293E+02 -0.28143486671E+02  0.47787267021E+02  0.19999981657E+02 0.  0.
         12    1    3    3    0    0 -0.34391077379E+01 -0.32859402293E+02  0.28143486671E+02  0.43400732979E+02  0.00000000000E+00 0. -1.
         11    1    4    4    0    0 -0.43713252506E+01  0.18202480440E+02 -0.64620137541E+01  0.19803949117E+02  0.51100000000E-03 0. -1.
        -11    1    4    4    0    0 -0.39279280496E+00  0.45085122842E+01 -0.70560713147E+01  0.83826673478E+01  0.51100000000E-03 0.  1.
         12    1    4    4    0    0  0.82032257935E+01  0.10148409569E+02 -0.14625401602E+02  0.19600650556E+02  0.00000000000E+00 0. -1.
</event>
<event>
 8    1  0.6469014E-010  0.9118800E+02  0.7816164E-02  0.1184000E+00
        -11   -1    0    0    0    0  0.00000000000E+00  0.00000000000E+00  0.45593999997E+02  0.45594000000E+02  0.51100000000E-03 0. -1.
         11   -1    0    0    0    0 -0.00000000000E+00 -0.00000000000E+00 -0.45593999997E+02  0.45594000000E+02  0.51100000000E-03 0.  1.
         23    2    1    2    0    0  0.00000000000E+00 -0.71054273576E-14 -0.35527136788E-14  0.91188000000E+02  0.91188000000E+02 0.  0.
    9900012    2    3    3    0    0 -0.36450909494E+01  0.37205136288E+02 -0.22048000631E+02  0.47787272056E+02  0.20000004613E+02 0.  0.
         12    1    3    3    0    0  0.36450909494E+01 -0.37205136288E+02  0.22048000631E+02  0.43400727944E+02  0.00000000000E+00 0. -1.
         11    1    4    4    0    0 -0.14244290872E+01  0.10115824669E+01 -0.58732989059E+01  0.61276371964E+01  0.51100000000E-03 0. -1.
        -11    1    4    4    0    0 -0.48201405857E+01  0.35195621714E+02 -0.15683576256E+02  0.38832204516E+02  0.51100000000E-03 0.  1.
         12    1    4    4    0    0  0.25994787235E+01  0.99793210718E+00 -0.49112546860E+00  0.28274303440E+01  0.00000000000E+00 0. -1.
</event>
<event>
 8    1  0.6469014E-010  0.9118800E+02  0.7816164E-02  0.1184000E+00
        -11   -1    0    0    0    0  0.00000000000E+00  0.00000000000E+00  0.45593999997E+02  0.45594000000E+02  0.51100000000E-03 0. -1.
         11   -1    0    0    0    0 -0.00000000000E+00 -0.00000000000E+00 -0.45593999997E+02  0.45594000000E+02  0.51100000000E-03 0.  1.
         23    2    1    2    0    0  0.00000000000E+00 -0.44408920985E-15  0.00000000000E+00  0.91188000000E+02  0.91188000000E+02 0.  0.
    9900012    2    3    3    0    0  0.27807749322E+02 -0.19161246822E+01 -0.33266806385E+02  0.47787275775E+02  0.20000021570E+02 0.  0.
         12    1    3    3    0    0 -0.27807749322E+02  0.19161246822E+01  0.33266806385E+02  0.43400724225E+02  0.00000000000E+00 0. -1.
         11    1    4    4    0    0 -0.35074607168E+00 -0.15970501638E+01  0.12004290913E+01  0.20284531784E+01  0.51100000000E-03 0. -1.
        -11    1    4    4    0    0  0.13479392210E+02  0.51274875681E+01 -0.17342308708E+02  0.22555283521E+02  0.51100000000E-03 0.  1.
         12    1    4    4    0    0  0.14679103184E+02 -0.54465620865E+01 -0.17124926768E+02  0.23203539076E+02  0.00000000000E+00 0. -1.
</event>
<event>
 8    1  0.6469014E-010  0.9118800E+02  0.7816164E-02  0.1184000E+00
        -11   -1    0    0    0    0  0.00000000000E+00  0.00000000000E+00  0.45593999997E+02  0.45594000000E+02  0.51100000000E-03 0. -1.
         11   -1    0    0    0    0 -0.00000000000E+00 -0.00000000000E+00 -0.45593999997E+02  0.45594000000E+02  0.51100000000E-03 0.  1.
         23    2    1    2    0    0 -0.88817841970E-15  0.00000000000E+00  0.00000000000E+00  0.91188000000E+02  0.91188000000E+02 0.  0.
    9900012    2    3    3    0    0  0.41802642098E+01 -0.36664727538E+01 -0.43043066575E+02  0.47787271763E+02  0.20000003275E+02 0.  0.
         12    1    3    3    0    0 -0.41802642098E+01  0.36664727538E+01  0.43043066575E+02  0.43400728237E+02  0.00000000000E+00 0. -1.
         11    1    4    4    0    0  0.88736088575E+01 -0.83042857108E+00 -0.24244948440E+02  0.25831145366E+02  0.51100000000E-03 0. -1.
        -11    1    4    4    0    0 -0.72253096505E+01 -0.40566916942E-01 -0.96041134224E+01  0.12018558154E+02  0.51100000000E-03 0.  1.
        -12    1    4    4    0    0  0.25319650028E+01 -0.27954772657E+01 -0.91940047126E+01  0.99375682425E+01  0.00000000000E+00 0.  1.
</event>
<event>
 8    1  0.6469014E-010  0.9118800E+02  0.7816164E-02  0.1184000E+00
        -11   -1    0    0    0    0  0.00000000000E+00  0.00000000000E+00  0.45593999997E+02  0.45594000000E+02  0.51100000000E-03 0.  1.
         11   -1    0    0    0    0 -0.00000000000E+00 -0.00000000000E+00 -0.45593999997E+02  0.45594000000E+02  0.51100000000E-03 0. -1.
         23    2    1    2    0    0  0.00000000000E+00  0.00000000000E+00  0.00000000000E+00  0.91188000000E+02  0.91188000000E+02 0.  0.
    9900012    2    3    3    0    0 -0.24030012099E+02 -0.34352810703E+02  0.11227922828E+02  0.47787270333E+02  0.19999996754E+02 0.  0.
         12    1    3    3    0    0  0.24030012099E+02  0.34352810703E+02 -0.11227922828E+02  0.43400729667E+02  0.00000000000E+00 0. -1.
         11    1    4    4    0    0 -0.10620634280E+02 -0.12478515316E+02  0.57608812501E+01  0.17369483874E+02  0.51100000000E-03 0. -1.
        -11    1    4    4    0    0 -0.13849771992E+02 -0.24020808152E+02  0.51908545362E+01  0.28209225080E+02  0.51100000000E-03 0.  1.
        -12    1    4    4    0    0  0.44039417266E+00  0.21465127663E+01  0.27618704167E+00  0.22085613791E+01  0.00000000000E+00 0.  1.
</event>
<event>
 8    1  0.6469014E-010  0.9118800E+02  0.7816164E-02  0.1184000E+00
        -11   -1    0    0    0    0  0.00000000000E+00  0.00000000000E+00  0.45593999997E+02  0.45594000000E+02  0.51100000000E-03 0. -1.
         11   -1    0    0    0    0 -0.00000000000E+00 -0.00000000000E+00 -0.45593999997E+02  0.45594000000E+02  0.51100000000E-03 0.  1.
         23    2    1    2    0    0  0.00000000000E+00  0.00000000000E+00  0.00000000000E+00  0.91188000000E+02  0.91188000000E+02 0.  0.
    9900012    2    3    3    0    0  0.26579801303E+01  0.12524723652E+01  0.43301139416E+02  0.47787283184E+02  0.20000055349E+02 0.  0.
        -12    1    3    3    0    0 -0.26579801303E+01 -0.12524723652E+01 -0.43301139416E+02  0.43400716816E+02  0.00000000000E+00 0.  1.
         11    1    4    4    0    0  0.29942082843E+01  0.67537109726E+01  0.39057945233E+02  0.39750484037E+02  0.51100000000E-03 0. -1.
        -11    1    4    4    0    0 -0.87169594080E-01 -0.23037758643E+01 -0.45345179137E+00  0.23495958289E+01  0.51100000000E-03 0.  1.
         12    1    4    4    0    0 -0.24905856000E+00 -0.31974627431E+01  0.46966459752E+01  0.56872033177E+01  0.00000000000E+00 0. -1.
</event>
<event>
 8    1  0.6469014E-010  0.9118800E+02  0.7816164E-02  0.1184000E+00
        -11   -1    0    0    0    0  0.00000000000E+00  0.00000000000E+00  0.45593999997E+02  0.45594000000E+02  0.51100000000E-03 0.  1.
         11   -1    0    0    0    0 -0.00000000000E+00 -0.00000000000E+00 -0.45593999997E+02  0.45594000000E+02  0.51100000000E-03 0. -1.
         23    2    1    2    0    0  0.00000000000E+00 -0.35527136788E-14  0.88817841970E-15  0.91188000000E+02  0.91188000000E+02 0.  0.
    9900012    2    3    3    0    0 -0.30529638367E+02 -0.30558148550E+02 -0.42148237412E+01  0.47787262670E+02  0.19999961817E+02 0.  0.
         12    1    3    3    0    0  0.30529638367E+02  0.30558148550E+02  0.42148237412E+01  0.43400737330E+02  0.00000000000E+00 0. -1.
         11    1    4    4    0    0 -0.25187006566E+02 -0.14477678785E+02 -0.58487843645E+01  0.29634384785E+02  0.51100000000E-03 0. -1.
        -11    1    4    4    0    0 -0.15291493483E+01 -0.99268330726E+01  0.35691427552E+01  0.10659225715E+02  0.51100000000E-03 0.  1.
        -12    1    4    4    0    0 -0.38134824523E+01 -0.61536366929E+01 -0.19351821319E+01  0.74936521700E+01  0.00000000000E+00 0.  1.
</event>
<event>
 8    1  0.6469014E-010  0.9118800E+02  0.7816164E-02  0.1184000E+00
        -11   -1    0    0    0    0  0.00000000000E+00  0.00000000000E+00  0.45593999997E+02  0.45594000000E+02  0.51100000000E-03 0. -1.
         11   -1    0    0    0    0 -0.00000000000E+00 -0.00000000000E+00 -0.45593999997E+02  0.45594000000E+02  0.51100000000E-03 0.  1.
         23    2    1    2    0    0  0.88817841970E-15 -0.35527136788E-14  0.71054273576E-14  0.91188000000E+02  0.91188000000E+02 0.  0.
    9900012    2    3    3    0    0  0.52197332295E+01 -0.28494917404E+02  0.32317450533E+02  0.47787267958E+02  0.19999985926E+02 0.  0.
        -12    1    3    3    0    0 -0.52197332295E+01  0.28494917404E+02 -0.32317450533E+02  0.43400732042E+02  0.00000000000E+00 0.  1.
         11    1    4    4    0    0  0.63280015046E+00 -0.23584707737E+02  0.24454217336E+02  0.33980106251E+02  0.51100000000E-03 0. -1.
        -11    1    4    4    0    0 -0.19892250812E+01  0.12114565842E+01  0.11896808954E+01  0.26153363786E+01  0.51100000000E-03 0.  1.
        -12    1    4    4    0    0  0.65761581603E+01 -0.61216662505E+01  0.66735523022E+01  0.11191825328E+02  0.00000000000E+00 0.  1.
</event>
<event>
 8    1  0.6469014E-010  0.9118800E+02  0.7816164E-02  0.1184000E+00
        -11   -1    0    0    0    0  0.00000000000E+00  0.00000000000E+00  0.45593999997E+02  0.45594000000E+02  0.51100000000E-03 0. -1.
         11   -1    0    0    0    0 -0.00000000000E+00 -0.00000000000E+00 -0.45593999997E+02  0.45594000000E+02  0.51100000000E-03 0.  1.
         23    2    1    2    0    0  0.35527136788E-14  0.00000000000E+00 -0.71054273576E-14  0.91188000000E+02  0.91188000000E+02 0.  0.
    9900012    2    3    3    0    0  0.23614546773E+02 -0.62740621473E+01 -0.35869384408E+02  0.47787269443E+02  0.19999992698E+02 0.  0.
         12    1    3    3    0    0 -0.23614546773E+02  0.62740621473E+01  0.35869384408E+02  0.43400730557E+02  0.00000000000E+00 0. -1.
         11    1    4    4    0    0  0.12604667277E+02 -0.21538569452E+01 -0.52481431017E+01  0.13822436225E+02  0.51100000000E-03 0. -1.
        -11    1    4    4    0    0  0.53704942618E+01  0.24708229731E+01 -0.10423432773E+02  0.11983118367E+02  0.51100000000E-03 0.  1.
         12    1    4    4    0    0  0.56393852335E+01 -0.65910281752E+01 -0.20197808533E+02  0.21981714851E+02  0.00000000000E+00 0. -1.
</event>
<event>
 8    1  0.6469014E-010  0.9118800E+02  0.7816164E-02  0.1184000E+00
        -11   -1    0    0    0    0  0.00000000000E+00  0.00000000000E+00  0.45593999997E+02  0.45594000000E+02  0.51100000000E-03 0. -1.
         11   -1    0    0    0    0 -0.00000000000E+00 -0.00000000000E+00 -0.45593999997E+02  0.45594000000E+02  0.51100000000E-03 0.  1.
         23    2    1    2    0    0  0.00000000000E+00  0.00000000000E+00  0.00000000000E+00  0.91188000000E+02  0.91188000000E+02 0.  0.
    9900012    2    3    3    0    0 -0.25522433956E+02 -0.19865731227E+02  0.28940996262E+02  0.47787272162E+02  0.20000005097E+02 0.  0.
        -12    1    3    3    0    0  0.25522433956E+02  0.19865731227E+02 -0.28940996262E+02  0.43400727838E+02  0.00000000000E+00 0.  1.
         11    1    4    4    0    0 -0.57448626127E+01 -0.84813873392E+01  0.13871044347E+02  0.17243643733E+02  0.51100000000E-03 0. -1.
        -11    1    4    4    0    0 -0.13357521075E+02 -0.11862925933E+01  0.35489196848E+01  0.13871751532E+02  0.51100000000E-03 0.  1.
        -12    1    4    4    0    0 -0.64200502687E+01 -0.10198051294E+02  0.11521032230E+02  0.16671876898E+02  0.00000000000E+00 0.  1.
</event>
<event>
 8    1  0.6469014E-010  0.9118800E+02  0.7816164E-02  0.1184000E+00
        -11   -1    0    0    0    0  0.00000000000E+00  0.00000000000E+00  0.45593999997E+02  0.45594000000E+02  0.51100000000E-03 0. -1.
         11   -1    0    0    0    0 -0.00000000000E+00 -0.00000000000E+00 -0.45593999997E+02  0.45594000000E+02  0.51100000000E-03 0.  1.
         23    2    1    2    0    0  0.00000000000E+00  0.00000000000E+00  0.00000000000E+00  0.91188000000E+02  0.91188000000E+02 0.  0.
    9900012    2    3    3    0    0  0.15888405697E+02  0.16305028852E+02 -0.36950350558E+02  0.47787264893E+02  0.19999971955E+02 0.  0.
         12    1    3    3    0    0 -0.15888405697E+02 -0.16305028852E+02  0.36950350558E+02  0.43400735107E+02  0.00000000000E+00 0. -1.
         11    1    4    4    0    0 -0.33947336762E+01  0.76685585789E+00 -0.78725555147E+01  0.86075208528E+01  0.51100000000E-03 0.  1.
        -11    1    4    4    0    0  0.13959578581E+02  0.14718987476E+02 -0.19212861930E+02  0.27940159096E+02  0.51100000000E-03 0. -1.
         12    1    4    4    0    0  0.53235607915E+01  0.81918551835E+00 -0.98649331125E+01  0.11239584945E+02  0.00000000000E+00 0. -1.
</event>
<event>
 8    1  0.6469014E-010  0.9118800E+02  0.7816164E-02  0.1184000E+00
        -11   -1    0    0    0    0  0.00000000000E+00  0.00000000000E+00  0.45593999997E+02  0.45594000000E+02  0.51100000000E-03 0. -1.
         11   -1    0    0    0    0 -0.00000000000E+00 -0.00000000000E+00 -0.45593999997E+02  0.45594000000E+02  0.51100000000E-03 0.  1.
         23    2    1    2    0    0  0.00000000000E+00  0.00000000000E+00  0.00000000000E+00  0.91188000000E+02  0.91188000000E+02 0.  0.
    9900012    2    3    3    0    0  0.23802831666E+02  0.32726006661E+02 -0.15686211509E+02  0.47787267993E+02  0.19999986086E+02 0.  0.
         12    1    3    3    0    0 -0.23802831666E+02 -0.32726006661E+02  0.15686211509E+02  0.43400732007E+02  0.00000000000E+00 0. -1.
         11    1    4    4    0    0  0.13292513226E+02  0.28481656429E+02 -0.45235696858E+01  0.31754658615E+02  0.51100000000E-03 0. -1.
        -11    1    4    4    0    0  0.46157791467E+01  0.29337631865E+01 -0.53840077083E+01  0.76746285141E+01  0.51100000000E-03 0.  1.
         12    1    4    4    0    0  0.58945392936E+01  0.13105870455E+01 -0.57786341147E+01  0.83579808638E+01  0.00000000000E+00 0. -1.
</event>
<event>
 8    1  0.6469014E-010  0.9118800E+02  0.7816164E-02  0.1184000E+00
        -11   -1    0    0    0    0  0.00000000000E+00  0.00000000000E+00  0.45593999997E+02  0.45594000000E+02  0.51100000000E-03 0. -1.
         11   -1    0    0    0    0 -0.00000000000E+00 -0.00000000000E+00 -0.45593999997E+02  0.45594000000E+02  0.51100000000E-03 0.  1.
         23    2    1    2    0    0  0.35527136788E-14  0.17763568394E-14 -0.71054273576E-14  0.91188000000E+02  0.91188000000E+02 0.  0.
    9900012    2    3    3    0    0 -0.16796996336E+02 -0.12753854010E+02  0.37931825565E+02  0.47787271104E+02  0.20000000271E+02 0.  0.
        -12    1    3    3    0    0  0.16796996336E+02  0.12753854010E+02 -0.37931825565E+02  0.43400728896E+02  0.00000000000E+00 0.  1.
         11    1    4    4    0    0 -0.13679714518E+02 -0.39181129786E+01  0.29328808646E+02  0.32598546217E+02  0.51100000000E-03 0. -1.
        -11    1    4    4    0    0  0.20915665785E+01 -0.54982898544E+01  0.21870290650E+01  0.62760607444E+01  0.51100000000E-03 0.  1.
        -12    1    4    4    0    0 -0.52088483962E+01 -0.33374511774E+01  0.64159878545E+01  0.89126641430E+01  0.00000000000E+00 0.  1.
</event>
<event>
 8    1  0.6469014E-010  0.9118800E+02  0.7816164E-02  0.1184000E+00
        -11   -1    0    0    0    0  0.00000000000E+00  0.00000000000E+00  0.45593999997E+02  0.45594000000E+02  0.51100000000E-03 0. -1.
         11   -1    0    0    0    0 -0.00000000000E+00 -0.00000000000E+00 -0.45593999997E+02  0.45594000000E+02  0.51100000000E-03 0.  1.
         23    2    1    2    0    0  0.35527136788E-14  0.44408920985E-15  0.00000000000E+00  0.91188000000E+02  0.91188000000E+02 0.  0.
    9900012    2    3    3    0    0 -0.25515621527E+02 -0.76785114033E+00  0.35099666579E+02  0.47787272688E+02  0.20000007492E+02 0.  0.
        -12    1    3    3    0    0  0.25515621527E+02  0.76785114033E+00 -0.35099666579E+02  0.43400727312E+02  0.00000000000E+00 0.  1.
         11    1    4    4    0    0 -0.18162205223E+02 -0.54997537688E+01  0.22858845700E+02  0.29709254738E+02  0.51100000000E-03 0. -1.
        -11    1    4    4    0    0 -0.23475480634E+01  0.23551338404E+01 -0.12035394420E+01  0.35364028003E+01  0.51100000000E-03 0.  1.
         12    1    4    4    0    0 -0.50058682410E+01  0.23767687880E+01  0.13444360321E+02  0.14541615149E+02  0.00000000000E+00 0. -1.
</event>
<event>
 8    1  0.6469014E-010  0.9118800E+02  0.7816164E-02  0.1184000E+00
        -11   -1    0    0    0    0  0.00000000000E+00  0.00000000000E+00  0.45593999997E+02  0.45594000000E+02  0.51100000000E-03 0. -1.
         11   -1    0    0    0    0 -0.00000000000E+00 -0.00000000000E+00 -0.45593999997E+02  0.45594000000E+02  0.51100000000E-03 0.  1.
         23    2    1    2    0    0  0.00000000000E+00 -0.17763568394E-14  0.00000000000E+00  0.91188000000E+02  0.91188000000E+02 0.  0.
    9900012    2    3    3    0    0  0.18915341125E+02  0.13069029168E+02 -0.36810781033E+02  0.47787271279E+02  0.20000001070E+02 0.  0.
         12    1    3    3    0    0 -0.18915341125E+02 -0.13069029168E+02  0.36810781033E+02  0.43400728721E+02  0.00000000000E+00 0. -1.
         11    1    4    4    0    0  0.39888566853E+01 -0.29855481039E+01 -0.12922227936E+02  0.13849492778E+02  0.51100000000E-03 0. -1.
        -11    1    4    4    0    0  0.10194006658E+02  0.15174606892E+02 -0.22371754831E+02  0.28890861541E+02  0.51100000000E-03 0.  1.
        -12    1    4    4    0    0  0.47324777817E+01  0.87997037996E+00 -0.15167982658E+01  0.50469169602E+01  0.00000000000E+00 0.  1.
</event>
<event>
 8    1  0.6469014E-010  0.9118800E+02  0.7816164E-02  0.1184000E+00
        -11   -1    0    0    0    0  0.00000000000E+00  0.00000000000E+00  0.45593999997E+02  0.45594000000E+02  0.51100000000E-03 0. -1.
         11   -1    0    0    0    0 -0.00000000000E+00 -0.00000000000E+00 -0.45593999997E+02  0.45594000000E+02  0.51100000000E-03 0.  1.
         23    2    1    2    0    0 -0.71054273576E-14  0.00000000000E+00  0.00000000000E+00  0.91188000000E+02  0.91188000000E+02 0.  0.
    9900012    2    3    3    0    0  0.37926277194E+02 -0.11975936079E+02  0.17372328487E+02  0.47787270238E+02  0.19999996324E+02 0.  0.
        -12    1    3    3    0    0 -0.37926277194E+02  0.11975936079E+02 -0.17372328487E+02  0.43400729762E+02  0.00000000000E+00 0.  1.
         11    1    4    4    0    0  0.60377070648E+01 -0.84666778400E+01  0.65741655619E+01  0.12302771775E+02  0.51100000000E-03 0. -1.
        -11    1    4    4    0    0  0.14839555902E+02  0.44987331441E+00  0.10122368162E+02  0.17968782453E+02  0.51100000000E-03 0.  1.
         12    1    4    4    0    0  0.17049014228E+02 -0.39591315537E+01  0.67579476280E+00  0.17515716011E+02  0.00000000000E+00 0. -1.
</event>
<event>
 8    1  0.6469014E-010  0.9118800E+02  0.7816164E-02  0.1184000E+00
        -11   -1    0    0    0    0  0.00000000000E+00  0.00000000000E+00  0.45593999997E+02  0.45594000000E+02  0.51100000000E-03 0. -1.
         11   -1    0    0    0    0 -0.00000000000E+00 -0.00000000000E+00 -0.45593999997E+02  0.45594000000E+02  0.51100000000E-03 0.  1.
         23    2    1    2    0    0  0.00000000000E+00  0.44408920985E-15 -0.35527136788E-14  0.91188000000E+02  0.91188000000E+02 0.  0.
    9900012    2    3    3    0    0  0.30486627356E+02  0.20980981685E+01  0.30818614944E+02  0.47787268549E+02  0.19999988620E+02 0.  0.
        -12    1    3    3    0    0 -0.30486627356E+02 -0.20980981685E+01 -0.30818614944E+02  0.43400731451E+02  0.00000000000E+00 0.  1.
         11    1    4    4    0    0  0.20288051767E+02  0.37260460102E+01  0.21135903451E+02  0.29533284246E+02  0.51100000000E-03 0. -1.
        -11    1    4    4    0    0  0.46422063247E+01 -0.34624815357E+01  0.10839288272E+02  0.12289386821E+02  0.51100000000E-03 0.  1.
        -12    1    4    4    0    0  0.55563692636E+01  0.18345336940E+01 -0.11565767790E+01  0.59645974813E+01  0.00000000000E+00 0.  1.
</event>
<event>
 8    1  0.6469014E-010  0.9118800E+02  0.7816164E-02  0.1184000E+00
        -11   -1    0    0    0    0  0.00000000000E+00  0.00000000000E+00  0.45593999997E+02  0.45594000000E+02  0.51100000000E-03 0. -1.
         11   -1    0    0    0    0 -0.00000000000E+00 -0.00000000000E+00 -0.45593999997E+02  0.45594000000E+02  0.51100000000E-03 0.  1.
         23    2    1    2    0    0 -0.66613381478E-15 -0.17763568394E-14  0.00000000000E+00  0.91188000000E+02  0.91188000000E+02 0.  0.
    9900012    2    3    3    0    0 -0.13474731110E+01 -0.11239734084E+02  0.41898385498E+02  0.47787285566E+02  0.20000066209E+02 0.  0.
        -12    1    3    3    0    0  0.13474731110E+01  0.11239734084E+02 -0.41898385498E+02  0.43400714434E+02  0.00000000000E+00 0.  1.
         11    1    4    4    0    0 -0.33850492104E+01  0.18834287425E+01  0.57011099658E+01  0.68926422429E+01  0.51100000000E-03 0.  1.
        -11    1    4    4    0    0 -0.29188689611E+01  0.14935282048E+01  0.95887265784E+01  0.10133809756E+02  0.51100000000E-03 0. -1.
         12    1    4    4    0    0  0.49564450605E+01 -0.14616691031E+02  0.26608548954E+02  0.30760833567E+02  0.00000000000E+00 0. -1.
</event>
<event>
 8    1  0.6469014E-010  0.9118800E+02  0.7816164E-02  0.1184000E+00
        -11   -1    0    0    0    0  0.00000000000E+00  0.00000000000E+00  0.45593999997E+02  0.45594000000E+02  0.51100000000E-03 0. -1.
         11   -1    0    0    0    0 -0.00000000000E+00 -0.00000000000E+00 -0.45593999997E+02  0.45594000000E+02  0.51100000000E-03 0.  1.
         23    2    1    2    0    0  0.00000000000E+00  0.00000000000E+00  0.00000000000E+00  0.91188000000E+02  0.91188000000E+02 0.  0.
    9900012    2    3    3    0    0 -0.35983532062E+02  0.15914983686E+02 -0.18317260043E+02  0.47787270734E+02  0.19999998584E+02 0.  0.
         12    1    3    3    0    0  0.35983532062E+02 -0.15914983686E+02  0.18317260043E+02  0.43400729266E+02  0.00000000000E+00 0. -1.
         11    1    4    4    0    0 -0.26639762902E+02  0.92472253662E+01 -0.19558141201E+02  0.34317765544E+02  0.51100000000E-03 0. -1.
        -11    1    4    4    0    0 -0.70305269130E+01  0.28708448854E+01 -0.21333120583E+01  0.78880339521E+01  0.51100000000E-03 0.  1.
         12    1    4    4    0    0 -0.23132422467E+01  0.37969134339E+01  0.33741932162E+01  0.55814712377E+01  0.00000000000E+00 0. -1.
</event>
<event>
 8    1  0.6469014E-010  0.9118800E+02  0.7816164E-02  0.1184000E+00
        -11   -1    0    0    0    0  0.00000000000E+00  0.00000000000E+00  0.45593999997E+02  0.45594000000E+02  0.51100000000E-03 0. -1.
         11   -1    0    0    0    0 -0.00000000000E+00 -0.00000000000E+00 -0.45593999997E+02  0.45594000000E+02  0.51100000000E-03 0.  1.
         23    2    1    2    0    0  0.00000000000E+00  0.00000000000E+00  0.00000000000E+00  0.91188000000E+02  0.91188000000E+02 0.  0.
    9900012    2    3    3    0    0 -0.73258271141E+01  0.26212622953E+02 -0.33806120295E+02  0.47787272882E+02  0.20000008377E+02 0.  0.
         12    1    3    3    0    0  0.73258271141E+01 -0.26212622953E+02  0.33806120295E+02  0.43400727118E+02  0.00000000000E+00 0. -1.
         11    1    4    4    0    0 -0.22160495052E+01  0.13317976634E+02 -0.63730541598E+01  0.14929675034E+02  0.51100000000E-03 0. -1.
        -11    1    4    4    0    0 -0.10829179429E+01  0.91634229793E+01 -0.25365034048E+02  0.26991220507E+02  0.51100000000E-03 0.  1.
        -12    1    4    4    0    0 -0.40268596660E+01  0.37312233396E+01 -0.20680320873E+01  0.58663773399E+01  0.00000000000E+00 0.  1.
</event>
<event>
 8    1  0.6469014E-010  0.9118800E+02  0.7816164E-02  0.1184000E+00
        -11   -1    0    0    0    0  0.00000000000E+00  0.00000000000E+00  0.45593999997E+02  0.45594000000E+02  0.51100000000E-03 0.  1.
         11   -1    0    0    0    0 -0.00000000000E+00 -0.00000000000E+00 -0.45593999997E+02  0.45594000000E+02  0.51100000000E-03 0. -1.
         23    2    1    2    0    0  0.00000000000E+00  0.00000000000E+00  0.88817841970E-15  0.91188000000E+02  0.91188000000E+02 0.  0.
    9900012    2    3    3    0    0  0.72873240366E+01  0.42119712022E+02 -0.75132077288E+01  0.47787268176E+02  0.19999986924E+02 0.  0.
         12    1    3    3    0    0 -0.72873240366E+01 -0.42119712022E+02  0.75132077288E+01  0.43400731824E+02  0.00000000000E+00 0. -1.
         11    1    4    4    0    0  0.26779105690E+01  0.26559093653E+02 -0.96867761712E+01  0.28397012053E+02  0.51100000000E-03 0. -1.
        -11    1    4    4    0    0  0.24072255749E+01  0.15206402745E+02  0.46254893174E+01  0.16075589292E+02  0.51100000000E-03 0.  1.
         12    1    4    4    0    0  0.22021878927E+01  0.35421562393E+00 -0.24519208750E+01  0.33146668310E+01  0.00000000000E+00 0. -1.
</event>
<event>
 8    1  0.6469014E-010  0.9118800E+02  0.7816164E-02  0.1184000E+00
        -11   -1    0    0    0    0  0.00000000000E+00  0.00000000000E+00  0.45593999997E+02  0.45594000000E+02  0.51100000000E-03 0.  1.
         11   -1    0    0    0    0 -0.00000000000E+00 -0.00000000000E+00 -0.45593999997E+02  0.45594000000E+02  0.51100000000E-03 0. -1.
         23    2    1    2    0    0  0.00000000000E+00  0.35527136788E-14  0.00000000000E+00  0.91188000000E+02  0.91188000000E+02 0.  0.
    9900012    2    3    3    0    0 -0.22066440282E+02  0.31982512542E+02 -0.19334283793E+02  0.47787269303E+02  0.19999992060E+02 0.  0.
         12    1    3    3    0    0  0.22066440282E+02 -0.31982512542E+02  0.19334283793E+02  0.43400730697E+02  0.00000000000E+00 0. -1.
         11    1    4    4    0    0  0.88390664763E+00  0.43643849643E+01 -0.76368770350E+01  0.88403075844E+01  0.51100000000E-03 0. -1.
        -11    1    4    4    0    0 -0.20737382137E+02  0.27989050645E+02 -0.10393432166E+02  0.36351745575E+02  0.51100000000E-03 0.  1.
        -12    1    4    4    0    0 -0.22129647929E+01 -0.37092306701E+00 -0.13039745919E+01  0.25952161437E+01  0.00000000000E+00 0.  1.
</event>
<event>
 8    1  0.6469014E-010  0.9118800E+02  0.7816164E-02  0.1184000E+00
        -11   -1    0    0    0    0  0.00000000000E+00  0.00000000000E+00  0.45593999997E+02  0.45594000000E+02  0.51100000000E-03 0. -1.
         11   -1    0    0    0    0 -0.00000000000E+00 -0.00000000000E+00 -0.45593999997E+02  0.45594000000E+02  0.51100000000E-03 0.  1.
         23    2    1    2    0    0  0.17763568394E-14  0.00000000000E+00 -0.71054273576E-14  0.91188000000E+02  0.91188000000E+02 0.  0.
    9900012    2    3    3    0    0 -0.14156650615E+02 -0.16064211749E+02  0.37751206759E+02  0.47787271118E+02  0.20000000334E+02 0.  0.
        -12    1    3    3    0    0  0.14156650615E+02  0.16064211749E+02 -0.37751206759E+02  0.43400728882E+02  0.00000000000E+00 0.  1.
         11    1    4    4    0    0  0.62468380815E+00 -0.20477090813E+01 -0.14023295463E+01  0.25592715290E+01  0.51100000000E-03 0.  1.
        -11    1    4    4    0    0 -0.91228706083E+01 -0.20566218697E+01  0.14646368557E+02  0.17377358079E+02  0.51100000000E-03 0. -1.
         12    1    4    4    0    0 -0.56584638150E+01 -0.11959880798E+02  0.24507167749E+02  0.27850641510E+02  0.00000000000E+00 0. -1.
</event>
<event>
 8    1  0.6469014E-010  0.9118800E+02  0.7816164E-02  0.1184000E+00
        -11   -1    0    0    0    0  0.00000000000E+00  0.00000000000E+00  0.45593999997E+02  0.45594000000E+02  0.51100000000E-03 0. -1.
         11   -1    0    0    0    0 -0.00000000000E+00 -0.00000000000E+00 -0.45593999997E+02  0.45594000000E+02  0.51100000000E-03 0.  1.
         23    2    1    2    0    0  0.35527136788E-14  0.00000000000E+00 -0.17763568394E-14  0.91188000000E+02  0.91188000000E+02 0.  0.
    9900012    2    3    3    0    0  0.24436410172E+02  0.33758025959E+02 -0.12119518456E+02  0.47787249012E+02  0.19999899545E+02 0.  0.
         12    1    3    3    0    0 -0.24436410172E+02 -0.33758025959E+02  0.12119518456E+02  0.43400750988E+02  0.00000000000E+00 0. -1.
         11    1    4    4    0    0 -0.95421995235E+00 -0.15859174864E+01 -0.51209075034E+00  0.19203924570E+01  0.51100000000E-03 0. -1.
        -11    1    4    4    0    0  0.11399802774E+01  0.60325316639E+01 -0.16882916041E+00  0.61416200514E+01  0.51100000000E-03 0.  1.
         12    1    4    4    0    0  0.24250649847E+02  0.29311411781E+02 -0.11438598545E+02  0.39725236504E+02  0.00000000000E+00 0. -1.
</event>
<event>
 8    1  0.6469014E-010  0.9118800E+02  0.7816164E-02  0.1184000E+00
        -11   -1    0    0    0    0  0.00000000000E+00  0.00000000000E+00  0.45593999997E+02  0.45594000000E+02  0.51100000000E-03 0. -1.
         11   -1    0    0    0    0 -0.00000000000E+00 -0.00000000000E+00 -0.45593999997E+02  0.45594000000E+02  0.51100000000E-03 0.  1.
         23    2    1    2    0    0 -0.35527136788E-14 -0.17763568394E-14  0.00000000000E+00  0.91188000000E+02  0.91188000000E+02 0.  0.
    9900012    2    3    3    0    0 -0.23584271108E+02  0.13208829758E+02  0.33954843521E+02  0.47787280815E+02  0.20000044548E+02 0.  0.
        -12    1    3    3    0    0  0.23584271108E+02 -0.13208829758E+02 -0.33954843521E+02  0.43400719185E+02  0.00000000000E+00 0.  1.
         11    1    4    4    0    0 -0.15348523609E+01  0.27195398345E+01  0.67581939029E+01  0.74447870199E+01  0.51100000000E-03 0. -1.
        -11    1    4    4    0    0 -0.42471838885E+00 -0.16018271284E+01  0.10113476964E+02  0.10248348766E+02  0.51100000000E-03 0.  1.
        -12    1    4    4    0    0 -0.21624700358E+02  0.12091117052E+02  0.17083172653E+02  0.30094145029E+02  0.00000000000E+00 0.  1.
</event>
<event>
 8    1  0.6469014E-010  0.9118800E+02  0.7816164E-02  0.1184000E+00
        -11   -1    0    0    0    0  0.00000000000E+00  0.00000000000E+00  0.45593999997E+02  0.45594000000E+02  0.51100000000E-03 0. -1.
         11   -1    0    0    0    0 -0.00000000000E+00 -0.00000000000E+00 -0.45593999997E+02  0.45594000000E+02  0.51100000000E-03 0.  1.
         23    2    1    2    0    0  0.00000000000E+00  0.35527136788E-14  0.35527136788E-14  0.91188000000E+02  0.91188000000E+02 0.  0.
    9900012    2    3    3    0    0  0.23031455627E+02  0.21575255057E+02  0.29794017120E+02  0.47787273794E+02  0.20000012537E+02 0.  0.
        -12    1    3    3    0    0 -0.23031455627E+02 -0.21575255057E+02 -0.29794017120E+02  0.43400726206E+02  0.00000000000E+00 0.  1.
         11    1    4    4    0    0  0.17761069814E+01  0.10450497355E+02  0.10382497227E+02  0.14837914271E+02  0.51100000000E-03 0. -1.
        -11    1    4    4    0    0 -0.11704971375E+01 -0.21522323080E+00  0.21650922997E+01  0.24706293764E+01  0.51100000000E-03 0.  1.
         12    1    4    4    0    0  0.22425845783E+02  0.11339980932E+02  0.17246427593E+02  0.30478730147E+02  0.00000000000E+00 0. -1.
</event>
<event>
 8    1  0.6469014E-010  0.9118800E+02  0.7816164E-02  0.1184000E+00
        -11   -1    0    0    0    0  0.00000000000E+00  0.00000000000E+00  0.45593999997E+02  0.45594000000E+02  0.51100000000E-03 0. -1.
         11   -1    0    0    0    0 -0.00000000000E+00 -0.00000000000E+00 -0.45593999997E+02  0.45594000000E+02  0.51100000000E-03 0.  1.
         23    2    1    2    0    0  0.00000000000E+00  0.00000000000E+00 -0.35527136788E-14  0.91188000000E+02  0.91188000000E+02 0.  0.
    9900012    2    3    3    0    0 -0.32649432199E+02 -0.26150190350E+02 -0.11567448692E+02  0.47787265588E+02  0.19999975121E+02 0.  0.
         12    1    3    3    0    0  0.32649432199E+02  0.26150190350E+02  0.11567448692E+02  0.43400734412E+02  0.00000000000E+00 0. -1.
         11    1    4    4    0    0 -0.80213759481E+00 -0.10479409489E+01  0.35791481283E+01  0.38146961267E+01  0.51100000000E-03 0. -1.
        -11    1    4    4    0    0 -0.19282621951E+02 -0.19364098322E+02 -0.83273057096E+01  0.28568021174E+02  0.51100000000E-03 0.  1.
         12    1    4    4    0    0 -0.12564672653E+02 -0.57381510791E+01 -0.68192911107E+01  0.15404548288E+02  0.00000000000E+00 0. -1.
</event>
<event>
 8    1  0.6469014E-010  0.9118800E+02  0.7816164E-02  0.1184000E+00
        -11   -1    0    0    0    0  0.00000000000E+00  0.00000000000E+00  0.45593999997E+02  0.45594000000E+02  0.51100000000E-03 0. -1.
         11   -1    0    0    0    0 -0.00000000000E+00 -0.00000000000E+00 -0.45593999997E+02  0.45594000000E+02  0.51100000000E-03 0.  1.
         23    2    1    2    0    0  0.00000000000E+00  0.00000000000E+00  0.00000000000E+00  0.91188000000E+02  0.91188000000E+02 0.  0.
    9900012    2    3    3    0    0 -0.35978657112E+02 -0.11433889044E+01 -0.24245669534E+02  0.47787267322E+02  0.19999983029E+02 0.  0.
         12    1    3    3    0    0  0.35978657112E+02  0.11433889044E+01  0.24245669534E+02  0.43400732678E+02  0.00000000000E+00 0. -1.
         11    1    4    4    0    0 -0.49829091613E+01 -0.18821197416E+01 -0.32017200002E+01  0.62147220093E+01  0.51100000000E-03 0.  1.
        -11    1    4    4    0    0 -0.15263717948E+02 -0.43764305509E+01 -0.14733068484E+01  0.15946938995E+02  0.51100000000E-03 0. -1.
        -12    1    4    4    0    0 -0.15732030002E+02  0.51151613881E+01 -0.19570642686E+02  0.25625606318E+02  0.00000000000E+00 0.  1.
</event>
<event>
 8    1  0.6469014E-010  0.9118800E+02  0.7816164E-02  0.1184000E+00
        -11   -1    0    0    0    0  0.00000000000E+00  0.00000000000E+00  0.45593999997E+02  0.45594000000E+02  0.51100000000E-03 0. -1.
         11   -1    0    0    0    0 -0.00000000000E+00 -0.00000000000E+00 -0.45593999997E+02  0.45594000000E+02  0.51100000000E-03 0.  1.
         23    2    1    2    0    0  0.00000000000E+00  0.00000000000E+00  0.00000000000E+00  0.91188000000E+02  0.91188000000E+02 0.  0.
    9900012    2    3    3    0    0  0.21334804777E+02 -0.27917765592E+02 -0.25476403533E+02  0.47787278030E+02  0.20000031851E+02 0.  0.
         12    1    3    3    0    0 -0.21334804777E+02  0.27917765592E+02  0.25476403533E+02  0.43400721970E+02  0.00000000000E+00 0. -1.
         11    1    4    4    0    0  0.15364713807E+02 -0.27888861919E+02 -0.21994325504E+02  0.38699010377E+02  0.51100000000E-03 0.  1.
        -11    1    4    4    0    0  0.12327019681E+01  0.13168080155E+01 -0.37446762732E+01  0.41564574031E+01  0.51100000000E-03 0. -1.
        -12    1    4    4    0    0  0.47373890022E+01 -0.13457116883E+01  0.26259824451E+00  0.49318102502E+01  0.00000000000E+00 0.  1.
</event>
<event>
 8    1  0.6469014E-010  0.9118800E+02  0.7816164E-02  0.1184000E+00
        -11   -1    0    0    0    0  0.00000000000E+00  0.00000000000E+00  0.45593999997E+02  0.45594000000E+02  0.51100000000E-03 0. -1.
         11   -1    0    0    0    0 -0.00000000000E+00 -0.00000000000E+00 -0.45593999997E+02  0.45594000000E+02  0.51100000000E-03 0.  1.
         23    2    1    2    0    0  0.00000000000E+00  0.00000000000E+00  0.71054273576E-14  0.91188000000E+02  0.91188000000E+02 0.  0.
    9900012    2    3    3    0    0 -0.29798767001E+02 -0.94173921413E+01 -0.30115897971E+02  0.47787296087E+02  0.20000114180E+02 0.  0.
         12    1    3    3    0    0  0.29798767001E+02  0.94173921413E+01  0.30115897971E+02  0.43400703913E+02  0.00000000000E+00 0. -1.
         11    1    4    4    0    0 -0.11984525133E+02 -0.37050311737E+01 -0.20549091204E+02  0.24075324468E+02  0.51100000000E-03 0.  1.
        -11    1    4    4    0    0 -0.51735421023E+01 -0.64184239734E+00 -0.86015820983E+01  0.10058067131E+02  0.51100000000E-03 0. -1.
         12    1    4    4    0    0 -0.12640699766E+02 -0.50705185703E+01 -0.96522466879E+00  0.13653904489E+02  0.00000000000E+00 0. -1.
</event>
<event>
 8    1  0.6469014E-010  0.9118800E+02  0.7816164E-02  0.1184000E+00
        -11   -1    0    0    0    0  0.00000000000E+00  0.00000000000E+00  0.45593999997E+02  0.45594000000E+02  0.51100000000E-03 0. -1.
         11   -1    0    0    0    0 -0.00000000000E+00 -0.00000000000E+00 -0.45593999997E+02  0.45594000000E+02  0.51100000000E-03 0.  1.
         23    2    1    2    0    0 -0.35527136788E-14  0.00000000000E+00  0.00000000000E+00  0.91188000000E+02  0.91188000000E+02 0.  0.
    9900012    2    3    3    0    0  0.27989081999E+02  0.23386512986E+02  0.23522444740E+02  0.47787272963E+02  0.20000008748E+02 0.  0.
        -12    1    3    3    0    0 -0.27989081999E+02 -0.23386512986E+02 -0.23522444740E+02  0.43400727037E+02  0.00000000000E+00 0.  1.
         11    1    4    4    0    0  0.95292290184E+01  0.24899521050E+01  0.14693507949E+02  0.17689127827E+02  0.51100000000E-03 0. -1.
        -11    1    4    4    0    0  0.56266809797E+01  0.10140326657E+02  0.10789599502E+01  0.11646884493E+02  0.51100000000E-03 0.  1.
        -12    1    4    4    0    0  0.12833172001E+02  0.10756234224E+02  0.77499768410E+01  0.18451260643E+02  0.00000000000E+00 0.  1.
</event>
<event>
 8    1  0.6469014E-010  0.9118800E+02  0.7816164E-02  0.1184000E+00
        -11   -1    0    0    0    0  0.00000000000E+00  0.00000000000E+00  0.45593999997E+02  0.45594000000E+02  0.51100000000E-03 0. -1.
         11   -1    0    0    0    0 -0.00000000000E+00 -0.00000000000E+00 -0.45593999997E+02  0.45594000000E+02  0.51100000000E-03 0.  1.
         23    2    1    2    0    0  0.00000000000E+00  0.00000000000E+00  0.00000000000E+00  0.91188000000E+02  0.91188000000E+02 0.  0.
    9900012    2    3    3    0    0 -0.38832029385E+02 -0.16512487297E+02  0.10150594863E+02  0.47787270525E+02  0.19999997633E+02 0.  0.
        -12    1    3    3    0    0  0.38832029385E+02  0.16512487297E+02 -0.10150594863E+02  0.43400729475E+02  0.00000000000E+00 0.  1.
         11    1    4    4    0    0 -0.64932788092E+01 -0.68653473524E+01 -0.57236217590E+00  0.94669563580E+01  0.51100000000E-03 0. -1.
        -11    1    4    4    0    0 -0.32533800060E+02 -0.71018492286E+01  0.12087350504E+02  0.35425816169E+02  0.51100000000E-03 0.  1.
        -12    1    4    4    0    0  0.19504948443E+00 -0.25452907162E+01 -0.13643934652E+01  0.28944979978E+01  0.00000000000E+00 0.  1.
</event>
<event>
 8    1  0.6469014E-010  0.9118800E+02  0.7816164E-02  0.1184000E+00
        -11   -1    0    0    0    0  0.00000000000E+00  0.00000000000E+00  0.45593999997E+02  0.45594000000E+02  0.51100000000E-03 0. -1.
         11   -1    0    0    0    0 -0.00000000000E+00 -0.00000000000E+00 -0.45593999997E+02  0.45594000000E+02  0.51100000000E-03 0.  1.
         23    2    1    2    0    0  0.00000000000E+00  0.00000000000E+00  0.71054273576E-14  0.91188000000E+02  0.91188000000E+02 0.  0.
    9900012    2    3    3    0    0 -0.85433887406E+01  0.16079659347E+02 -0.39396425310E+02  0.47787271169E+02  0.20000000567E+02 0.  0.
         12    1    3    3    0    0  0.85433887406E+01 -0.16079659347E+02  0.39396425310E+02  0.43400728831E+02  0.00000000000E+00 0. -1.
         11    1    4    4    0    0 -0.30892461851E+01  0.98125582011E+01 -0.11532125019E+02  0.15453790737E+02  0.51100000000E-03 0. -1.
        -11    1    4    4    0    0 -0.96063068923E+01  0.16241459784E+01 -0.13242694530E+02  0.16440436155E+02  0.51100000000E-03 0.  1.
        -12    1    4    4    0    0  0.41521643368E+01  0.46429551680E+01 -0.14621605761E+02  0.15893044277E+02  0.00000000000E+00 0.  1.
</event>
<event>
 8    1  0.6469014E-010  0.9118800E+02  0.7816164E-02  0.1184000E+00
        -11   -1    0    0    0    0  0.00000000000E+00  0.00000000000E+00  0.45593999997E+02  0.45594000000E+02  0.51100000000E-03 0. -1.
         11   -1    0    0    0    0 -0.00000000000E+00 -0.00000000000E+00 -0.45593999997E+02  0.45594000000E+02  0.51100000000E-03 0.  1.
         23    2    1    2    0    0 -0.26645352591E-14  0.35527136788E-14  0.14210854715E-13  0.91188000000E+02  0.91188000000E+02 0.  0.
    9900012    2    3    3    0    0 -0.49667718788E+01  0.26137420910E+02  0.34289787070E+02  0.47787273140E+02  0.20000009553E+02 0.  0.
        -12    1    3    3    0    0  0.49667718788E+01 -0.26137420910E+02 -0.34289787070E+02  0.43400726860E+02  0.00000000000E+00 0.  1.
         11    1    4    4    0    0  0.15270597258E+01  0.37332836004E+01  0.93821681341E+01  0.10212462828E+02  0.51100000000E-03 0. -1.
        -11    1    4    4    0    0  0.49937545356E+01  0.72993934169E+01  0.54139644748E+01  0.10369654778E+02  0.51100000000E-03 0.  1.
        -12    1    4    4    0    0 -0.11487586140E+02  0.15104743892E+02  0.19493654461E+02  0.27205155534E+02  0.00000000000E+00 0.  1.
</event>
<event>
 8    1  0.6469014E-010  0.9118800E+02  0.7816164E-02  0.1184000E+00
        -11   -1    0    0    0    0  0.00000000000E+00  0.00000000000E+00  0.45593999997E+02  0.45594000000E+02  0.51100000000E-03 0. -1.
         11   -1    0    0    0    0 -0.00000000000E+00 -0.00000000000E+00 -0.45593999997E+02  0.45594000000E+02  0.51100000000E-03 0.  1.
         23    2    1    2    0    0 -0.44408920985E-15  0.00000000000E+00  0.00000000000E+00  0.91188000000E+02  0.91188000000E+02 0.  0.
    9900012    2    3    3    0    0 -0.22885284843E+01 -0.28200110121E+02 -0.32911085373E+02  0.47787272887E+02  0.20000008402E+02 0.  0.
         12    1    3    3    0    0  0.22885284843E+01  0.28200110121E+02  0.32911085373E+02  0.43400727113E+02  0.00000000000E+00 0. -1.
         11    1    4    4    0    0 -0.57368420448E+01 -0.72000121500E+01 -0.78582021675E+01  0.12103837126E+02  0.51100000000E-03 0. -1.
        -11    1    4    4    0    0  0.35405665858E+01 -0.20960428007E+02 -0.15939712700E+02  0.26569711990E+02  0.51100000000E-03 0.  1.
        -12    1    4    4    0    0 -0.92253025326E-01 -0.39669964228E-01 -0.91131705051E+01  0.91137237714E+01  0.00000000000E+00 0.  1.
</event>
<event>
 8    1  0.6469014E-010  0.9118800E+02  0.7816164E-02  0.1184000E+00
        -11   -1    0    0    0    0  0.00000000000E+00  0.00000000000E+00  0.45593999997E+02  0.45594000000E+02  0.51100000000E-03 0. -1.
         11   -1    0    0    0    0 -0.00000000000E+00 -0.00000000000E+00 -0.45593999997E+02  0.45594000000E+02  0.51100000000E-03 0.  1.
         23    2    1    2    0    0 -0.88817841970E-15  0.00000000000E+00  0.00000000000E+00  0.91188000000E+02  0.91188000000E+02 0.  0.
    9900012    2    3    3    0    0 -0.75433557526E+01  0.37098399109E+01  0.42578846481E+02  0.47787270791E+02  0.19999998846E+02 0.  0.
        -12    1    3    3    0    0  0.75433557526E+01 -0.37098399109E+01 -0.42578846481E+02  0.43400729209E+02  0.00000000000E+00 0.  1.
         11    1    4    4    0    0  0.52732085713E+01  0.34650600710E+01  0.11102510849E+02  0.12770243433E+02  0.51100000000E-03 0. -1.
        -11    1    4    4    0    0 -0.17496066740E+00 -0.12636551911E+01  0.25669143605E+00  0.13012787679E+01  0.51100000000E-03 0.  1.
         12    1    4    4    0    0 -0.12641603657E+02  0.15084350310E+01  0.31219644196E+02  0.33715748590E+02  0.00000000000E+00 0. -1.
</event>
<event>
 8    1  0.6469014E-010  0.9118800E+02  0.7816164E-02  0.1184000E+00
        -11   -1    0    0    0    0  0.00000000000E+00  0.00000000000E+00  0.45593999997E+02  0.45594000000E+02  0.51100000000E-03 0. -1.
         11   -1    0    0    0    0 -0.00000000000E+00 -0.00000000000E+00 -0.45593999997E+02  0.45594000000E+02  0.51100000000E-03 0.  1.
         23    2    1    2    0    0  0.00000000000E+00  0.00000000000E+00  0.00000000000E+00  0.91188000000E+02  0.91188000000E+02 0.  0.
    9900012    2    3    3    0    0  0.74252114539E+01  0.17313250774E+02 -0.39099120529E+02  0.47787266784E+02  0.19999980575E+02 0.  0.
         12    1    3    3    0    0 -0.74252114539E+01 -0.17313250774E+02  0.39099120529E+02  0.43400733216E+02  0.00000000000E+00 0. -1.
         11    1    4    4    0    0  0.13683306463E+01  0.82126805129E+01 -0.33129575767E+01  0.89608112429E+01  0.51100000000E-03 0. -1.
        -11    1    4    4    0    0  0.24983737219E+01  0.67302648196E+01 -0.32884865091E+02  0.33659362563E+02  0.51100000000E-03 0.  1.
        -12    1    4    4    0    0  0.35585070857E+01  0.23703054419E+01 -0.29012978615E+01  0.51670929784E+01  0.00000000000E+00 0.  1.
</event>
<event>
 8    1  0.6469014E-010  0.9118800E+02  0.7816164E-02  0.1184000E+00
        -11   -1    0    0    0    0  0.00000000000E+00  0.00000000000E+00  0.45593999997E+02  0.45594000000E+02  0.51100000000E-03 0. -1.
         11   -1    0    0    0    0 -0.00000000000E+00 -0.00000000000E+00 -0.45593999997E+02  0.45594000000E+02  0.51100000000E-03 0.  1.
         23    2    1    2    0    0  0.35527136788E-14 -0.35527136788E-14  0.00000000000E+00  0.91188000000E+02  0.91188000000E+02 0.  0.
    9900012    2    3    3    0    0  0.28801216294E+02 -0.22083547753E+02  0.23799788898E+02  0.47787273129E+02  0.20000009502E+02 0.  0.
        -12    1    3    3    0    0 -0.28801216294E+02  0.22083547753E+02 -0.23799788898E+02  0.43400726871E+02  0.00000000000E+00 0.  1.
         11    1    4    4    0    0  0.61040828083E+01 -0.10132083233E+02  0.29090207474E+01  0.12181187936E+02  0.51100000000E-03 0. -1.
        -11    1    4    4    0    0  0.11192722107E+02 -0.96720993627E+01  0.18412989718E+02  0.23619160122E+02  0.51100000000E-03 0.  1.
        -12    1    4    4    0    0  0.11504411378E+02 -0.22793651577E+01  0.24777784328E+01  0.11986925070E+02  0.00000000000E+00 0.  1.
</event>
<event>
 8    1  0.6475685E-010  0.9118800E+02  0.7816164E-02  0.1184000E+00
        -11   -1    0    0    0    0  0.00000000000E+00  0.00000000000E+00  0.45593999997E+02  0.45594000000E+02  0.51100000000E-03 0. -1.
         11   -1    0    0    0    0 -0.00000000000E+00 -0.00000000000E+00 -0.45593999997E+02  0.45594000000E+02  0.51100000000E-03 0.  1.
         23    2    1    2    0    0 -0.35527136788E-14  0.35527136788E-14  0.00000000000E+00  0.91188000000E+02  0.91188000000E+02 0.  0.
    9900012    2    3    3    0    0  0.30380144484E+02 -0.18999911352E+02 -0.24488221029E+02  0.47787276740E+02  0.20000025970E+02 0.  0.
         12    1    3    3    0    0 -0.30380144484E+02  0.18999911352E+02  0.24488221029E+02  0.43400723260E+02  0.00000000000E+00 0. -1.
         11    1    4    4    0    0  0.17260098424E+02 -0.28826015934E+01 -0.69642861626E+01  0.18834056164E+02  0.51100000000E-03 0. -1.
        -11    1    4    4    0    0  0.14043228902E+02 -0.16304406075E+02 -0.14922195147E+02  0.26186214765E+02  0.51100000000E-03 0.  1.
         12    1    4    4    0    0 -0.92318284210E+00  0.18709631649E+00 -0.26017397196E+01  0.27670058114E+01  0.00000000000E+00 0. -1.
</event>
<event>
 8    1  0.6469014E-010  0.9118800E+02  0.7816164E-02  0.1184000E+00
        -11   -1    0    0    0    0  0.00000000000E+00  0.00000000000E+00  0.45593999997E+02  0.45594000000E+02  0.51100000000E-03 0. -1.
         11   -1    0    0    0    0 -0.00000000000E+00 -0.00000000000E+00 -0.45593999997E+02  0.45594000000E+02  0.51100000000E-03 0.  1.
         23    2    1    2    0    0  0.00000000000E+00  0.00000000000E+00  0.00000000000E+00  0.91188000000E+02  0.91188000000E+02 0.  0.
    9900012    2    3    3    0    0 -0.10359837742E+02 -0.10901749346E+02 -0.40711777968E+02  0.47787271410E+02  0.20000001666E+02 0.  0.
         12    1    3    3    0    0  0.10359837742E+02  0.10901749346E+02  0.40711777968E+02  0.43400728590E+02  0.00000000000E+00 0. -1.
         11    1    4    4    0    0 -0.48665189834E+01 -0.18718537273E+01 -0.25198608300E+02  0.25732405715E+02  0.51100000000E-03 0. -1.
        -11    1    4    4    0    0 -0.85630724818E+01 -0.61460325102E+01 -0.72899548002E+01  0.12815746845E+02  0.51100000000E-03 0.  1.
         12    1    4    4    0    0  0.30697537234E+01 -0.28838631084E+01 -0.82232148683E+01  0.92391188498E+01  0.00000000000E+00 0. -1.
</event>
<event>
 8    1  0.6469014E-010  0.9118800E+02  0.7816164E-02  0.1184000E+00
        -11   -1    0    0    0    0  0.00000000000E+00  0.00000000000E+00  0.45593999997E+02  0.45594000000E+02  0.51100000000E-03 0. -1.
         11   -1    0    0    0    0 -0.00000000000E+00 -0.00000000000E+00 -0.45593999997E+02  0.45594000000E+02  0.51100000000E-03 0.  1.
         23    2    1    2    0    0  0.00000000000E+00 -0.35527136788E-14  0.00000000000E+00  0.91188000000E+02  0.91188000000E+02 0.  0.
    9900012    2    3    3    0    0 -0.16327195639E+02 -0.24157336631E+02  0.32147574361E+02  0.47787299915E+02  0.20000131633E+02 0.  0.
        -12    1    3    3    0    0  0.16327195639E+02  0.24157336631E+02 -0.32147574361E+02  0.43400700085E+02  0.00000000000E+00 0.  1.
         11    1    4    4    0    0 -0.56194230074E+01  0.15667165784E+01  0.32556658161E+01  0.66807092393E+01  0.51100000000E-03 0. -1.
        -11    1    4    4    0    0  0.11172057334E+00 -0.55873385717E+01  0.99805365890E+01  0.11438616379E+02  0.51100000000E-03 0.  1.
         12    1    4    4    0    0 -0.10819493205E+02 -0.20136714638E+02  0.18911371956E+02  0.29667974297E+02  0.00000000000E+00 0. -1.
</event>
<event>
 8    1  0.6469014E-010  0.9118800E+02  0.7816164E-02  0.1184000E+00
        -11   -1    0    0    0    0  0.00000000000E+00  0.00000000000E+00  0.45593999997E+02  0.45594000000E+02  0.51100000000E-03 0. -1.
         11   -1    0    0    0    0 -0.00000000000E+00 -0.00000000000E+00 -0.45593999997E+02  0.45594000000E+02  0.51100000000E-03 0.  1.
         23    2    1    2    0    0 -0.35527136788E-14  0.00000000000E+00  0.44408920985E-15  0.91188000000E+02  0.91188000000E+02 0.  0.
    9900012    2    3    3    0    0  0.17844819073E+02  0.39468281079E+02  0.27277884750E+01  0.47787267183E+02  0.19999982395E+02 0.  0.
        -12    1    3    3    0    0 -0.17844819073E+02 -0.39468281079E+02 -0.27277884750E+01  0.43400732817E+02  0.00000000000E+00 0.  1.
         11    1    4    4    0    0 -0.19635505309E+00  0.15217851031E+02  0.67065138412E+01  0.16631261932E+02  0.51100000000E-03 0. -1.
        -11    1    4    4    0    0  0.97324230096E+01  0.18007900798E+02 -0.33749457790E+01  0.20745958836E+02  0.51100000000E-03 0.  1.
         12    1    4    4    0    0  0.83087511167E+01  0.62425292507E+01 -0.60377958722E+00  0.10410046415E+02  0.00000000000E+00 0. -1.
</event>
<event>
 8    1  0.6469014E-010  0.9118800E+02  0.7816164E-02  0.1184000E+00
        -11   -1    0    0    0    0  0.00000000000E+00  0.00000000000E+00  0.45593999997E+02  0.45594000000E+02  0.51100000000E-03 0.  1.
         11   -1    0    0    0    0 -0.00000000000E+00 -0.00000000000E+00 -0.45593999997E+02  0.45594000000E+02  0.51100000000E-03 0. -1.
         23    2    1    2    0    0  0.00000000000E+00  0.00000000000E+00 -0.88817841970E-15  0.91188000000E+02  0.91188000000E+02 0.  0.
    9900012    2    3    3    0    0  0.20311763686E+02  0.37568312288E+02 -0.77250313416E+01  0.47787286395E+02  0.20000069989E+02 0.  0.
         12    1    3    3    0    0 -0.20311763686E+02 -0.37568312288E+02  0.77250313416E+01  0.43400713605E+02  0.00000000000E+00 0. -1.
         11    1    4    4    0    0  0.26556974229E+01  0.10343064702E+02 -0.28340177213E+00  0.10682323392E+02  0.51100000000E-03 0.  1.
        -11    1    4    4    0    0  0.36091124328E+01  0.15794261345E+02 -0.96546374555E+01  0.18859915393E+02  0.51100000000E-03 0. -1.
        -12    1    4    4    0    0  0.14046953831E+02  0.11430986241E+02  0.22130078861E+01  0.18245047609E+02  0.00000000000E+00 0.  1.
</event>
<event>
 8    1  0.6469014E-010  0.9118800E+02  0.7816164E-02  0.1184000E+00
        -11   -1    0    0    0    0  0.00000000000E+00  0.00000000000E+00  0.45593999997E+02  0.45594000000E+02  0.51100000000E-03 0. -1.
         11   -1    0    0    0    0 -0.00000000000E+00 -0.00000000000E+00 -0.45593999997E+02  0.45594000000E+02  0.51100000000E-03 0.  1.
         23    2    1    2    0    0  0.00000000000E+00 -0.17763568394E-14 -0.71054273576E-14  0.91188000000E+02  0.91188000000E+02 0.  0.
    9900012    2    3    3    0    0  0.85027876296E+00  0.10533430663E+02  0.42094505810E+02  0.47787267807E+02  0.19999985239E+02 0.  0.
        -12    1    3    3    0    0 -0.85027876296E+00 -0.10533430663E+02 -0.42094505810E+02  0.43400732193E+02  0.00000000000E+00 0.  1.
         11    1    4    4    0    0  0.26514035447E+01  0.75386627246E+01  0.39755176425E+01  0.89255877800E+01  0.51100000000E-03 0.  1.
        -11    1    4    4    0    0  0.25366648330E+00  0.36217790668E+01  0.34202574413E+02  0.34394734001E+02  0.51100000000E-03 0. -1.
        -12    1    4    4    0    0 -0.20547912651E+01 -0.62701112879E+00  0.39164137547E+01  0.44669460257E+01  0.00000000000E+00 0.  1.
</event>
<event>
 8    1  0.6469014E-010  0.9118800E+02  0.7816164E-02  0.1184000E+00
        -11   -1    0    0    0    0  0.00000000000E+00  0.00000000000E+00  0.45593999997E+02  0.45594000000E+02  0.51100000000E-03 0. -1.
         11   -1    0    0    0    0 -0.00000000000E+00 -0.00000000000E+00 -0.45593999997E+02  0.45594000000E+02  0.51100000000E-03 0.  1.
         23    2    1    2    0    0  0.00000000000E+00  0.88817841970E-15  0.71054273576E-14  0.91188000000E+02  0.91188000000E+02 0.  0.
    9900012    2    3    3    0    0  0.45882395672E+01 -0.47551460206E+01  0.42894770086E+02  0.47787255113E+02  0.19999927363E+02 0.  0.
        -12    1    3    3    0    0 -0.45882395672E+01  0.47551460206E+01 -0.42894770086E+02  0.43400744887E+02  0.00000000000E+00 0.  1.
         11    1    4    4    0    0  0.90341161914E+01 -0.86972355858E+01  0.16515181194E+02  0.20736643227E+02  0.51100000000E-03 0. -1.
        -11    1    4    4    0    0 -0.22404171929E+01  0.21140294946E+01  0.12048726458E+02  0.12436253432E+02  0.51100000000E-03 0.  1.
         12    1    4    4    0    0 -0.22054594314E+01  0.18280600707E+01  0.14330862434E+02  0.14614358454E+02  0.00000000000E+00 0. -1.
</event>
<event>
 8    1  0.6469014E-010  0.9118800E+02  0.7816164E-02  0.1184000E+00
        -11   -1    0    0    0    0  0.00000000000E+00  0.00000000000E+00  0.45593999997E+02  0.45594000000E+02  0.51100000000E-03 0. -1.
         11   -1    0    0    0    0 -0.00000000000E+00 -0.00000000000E+00 -0.45593999997E+02  0.45594000000E+02  0.51100000000E-03 0.  1.
         23    2    1    2    0    0 -0.88817841970E-15  0.00000000000E+00  0.71054273576E-14  0.91188000000E+02  0.91188000000E+02 0.  0.
    9900012    2    3    3    0    0  0.67980378411E+01  0.17662743001E+02 -0.39056848358E+02  0.47787271752E+02  0.20000003226E+02 0.  0.
         12    1    3    3    0    0 -0.67980378411E+01 -0.17662743001E+02  0.39056848358E+02  0.43400728248E+02  0.00000000000E+00 0. -1.
         11    1    4    4    0    0  0.41124735192E+01  0.11226300908E+02 -0.49188160493E+01  0.12928148441E+02  0.51100000000E-03 0. -1.
        -11    1    4    4    0    0  0.24592830280E+01  0.47792887544E+01 -0.26640182368E+02  0.27176993779E+02  0.51100000000E-03 0.  1.
         12    1    4    4    0    0  0.22628129384E+00  0.16571533385E+01 -0.74978499405E+01  0.76821295317E+01  0.00000000000E+00 0. -1.
</event>
<event>
 8    1  0.6469014E-010  0.9118800E+02  0.7816164E-02  0.1184000E+00
        -11   -1    0    0    0    0  0.00000000000E+00  0.00000000000E+00  0.45593999997E+02  0.45594000000E+02  0.51100000000E-03 0. -1.
         11   -1    0    0    0    0 -0.00000000000E+00 -0.00000000000E+00 -0.45593999997E+02  0.45594000000E+02  0.51100000000E-03 0.  1.
         23    2    1    2    0    0  0.00000000000E+00 -0.44408920985E-15  0.00000000000E+00  0.91188000000E+02  0.91188000000E+02 0.  0.
    9900012    2    3    3    0    0 -0.23145276578E+02 -0.37136996068E+01  0.36525715086E+02  0.47787271260E+02  0.20000000981E+02 0.  0.
        -12    1    3    3    0    0  0.23145276578E+02  0.37136996068E+01 -0.36525715086E+02  0.43400728740E+02  0.00000000000E+00 0.  1.
         11    1    4    4    0    0 -0.23063626920E+00  0.11231996615E+01  0.59777995406E+00  0.12931015826E+01  0.51100000000E-03 0. -1.
        -11    1    4    4    0    0 -0.51259122131E+01 -0.64678240498E+01  0.23021816693E+02  0.24456323682E+02  0.51100000000E-03 0.  1.
        -12    1    4    4    0    0 -0.17788728096E+02  0.16309247815E+01  0.12906118439E+02  0.22037845995E+02  0.00000000000E+00 0.  1.
</event>
<event>
 8    1  0.6469014E-010  0.9118800E+02  0.7816164E-02  0.1184000E+00
        -11   -1    0    0    0    0  0.00000000000E+00  0.00000000000E+00  0.45593999997E+02  0.45594000000E+02  0.51100000000E-03 0. -1.
         11   -1    0    0    0    0 -0.00000000000E+00 -0.00000000000E+00 -0.45593999997E+02  0.45594000000E+02  0.51100000000E-03 0.  1.
         23    2    1    2    0    0 -0.44408920985E-15 -0.17763568394E-14 -0.71054273576E-14  0.91188000000E+02  0.91188000000E+02 0.  0.
    9900012    2    3    3    0    0  0.15895804875E+01 -0.15618713439E+02 -0.40461738647E+02  0.47787271089E+02  0.20000000203E+02 0.  0.
         12    1    3    3    0    0 -0.15895804875E+01  0.15618713439E+02  0.40461738647E+02  0.43400728911E+02  0.00000000000E+00 0. -1.
         11    1    4    4    0    0  0.17268116949E+01 -0.92727956698E+00 -0.19229592362E+02  0.19329225248E+02  0.51100000000E-03 0. -1.
        -11    1    4    4    0    0 -0.41724695647E+01 -0.24144741295E+01 -0.10878962416E+02  0.11899202120E+02  0.51100000000E-03 0.  1.
         12    1    4    4    0    0  0.40352383573E+01 -0.12276959743E+02 -0.10353183870E+02  0.16558843721E+02  0.00000000000E+00 0. -1.
</event>
<event>
 8    1  0.6469014E-010  0.9118800E+02  0.7816164E-02  0.1184000E+00
        -11   -1    0    0    0    0  0.00000000000E+00  0.00000000000E+00  0.45593999997E+02  0.45594000000E+02  0.51100000000E-03 0. -1.
         11   -1    0    0    0    0 -0.00000000000E+00 -0.00000000000E+00 -0.45593999997E+02  0.45594000000E+02  0.51100000000E-03 0.  1.
         23    2    1    2    0    0 -0.35527136788E-14  0.00000000000E+00  0.71054273576E-14  0.91188000000E+02  0.91188000000E+02 0.  0.
    9900012    2    3    3    0    0  0.25364622900E+02  0.10824968278E+02 -0.33512373342E+02  0.47787271894E+02  0.20000003876E+02 0.  0.
         12    1    3    3    0    0 -0.25364622900E+02 -0.10824968278E+02  0.33512373342E+02  0.43400728106E+02  0.00000000000E+00 0. -1.
         11    1    4    4    0    0  0.17278216834E+01  0.74095340857E+01 -0.13975547982E+02  0.15912338131E+02  0.51100000000E-03 0. -1.
        -11    1    4    4    0    0  0.83817755720E+01 -0.10837445081E+01 -0.30978574781E+01  0.90014101736E+01  0.51100000000E-03 0.  1.
         12    1    4    4    0    0  0.15255025644E+02  0.44991787006E+01 -0.16438967882E+02  0.22873523590E+02  0.00000000000E+00 0. -1.
</event>
<event>
 8    1  0.6469014E-010  0.9118800E+02  0.7816164E-02  0.1184000E+00
        -11   -1    0    0    0    0  0.00000000000E+00  0.00000000000E+00  0.45593999997E+02  0.45594000000E+02  0.51100000000E-03 0. -1.
         11   -1    0    0    0    0 -0.00000000000E+00 -0.00000000000E+00 -0.45593999997E+02  0.45594000000E+02  0.51100000000E-03 0.  1.
         23    2    1    2    0    0  0.00000000000E+00  0.00000000000E+00  0.35527136788E-14  0.91188000000E+02  0.91188000000E+02 0.  0.
    9900012    2    3    3    0    0  0.31336292356E+02  0.21438193633E+02 -0.21025320317E+02  0.47787268908E+02  0.19999990258E+02 0.  0.
         12    1    3    3    0    0 -0.31336292356E+02 -0.21438193633E+02  0.21025320317E+02  0.43400731092E+02  0.00000000000E+00 0. -1.
         11    1    4    4    0    0  0.10834382609E+02  0.30698280052E+01 -0.48011780079E+00  0.11271122565E+02  0.51100000000E-03 0. -1.
        -11    1    4    4    0    0  0.17918939199E+02  0.10956730511E+02 -0.19385529551E+02  0.28582111219E+02  0.51100000000E-03 0.  1.
        -12    1    4    4    0    0  0.25829705484E+01  0.74116351172E+01 -0.11596729653E+01  0.79340351241E+01  0.00000000000E+00 0.  1.
</event>
<event>
 8    1  0.6469014E-010  0.9118800E+02  0.7816164E-02  0.1184000E+00
        -11   -1    0    0    0    0  0.00000000000E+00  0.00000000000E+00  0.45593999997E+02  0.45594000000E+02  0.51100000000E-03 0. -1.
         11   -1    0    0    0    0 -0.00000000000E+00 -0.00000000000E+00 -0.45593999997E+02  0.45594000000E+02  0.51100000000E-03 0.  1.
         23    2    1    2    0    0  0.35527136788E-14  0.00000000000E+00  0.00000000000E+00  0.91188000000E+02  0.91188000000E+02 0.  0.
    9900012    2    3    3    0    0 -0.24645008362E+02 -0.13112647096E+02  0.33231097916E+02  0.47787264756E+02  0.19999971327E+02 0.  0.
        -12    1    3    3    0    0  0.24645008362E+02  0.13112647096E+02 -0.33231097916E+02  0.43400735244E+02  0.00000000000E+00 0.  1.
         11    1    4    4    0    0 -0.15909842534E+02 -0.63042189393E+00  0.22814705660E+02  0.27821418293E+02  0.51100000000E-03 0. -1.
        -11    1    4    4    0    0 -0.20358814374E+01 -0.77546477972E+01  0.82087199126E+01  0.11474426284E+02  0.51100000000E-03 0.  1.
         12    1    4    4    0    0 -0.66992843908E+01 -0.47275774051E+01  0.22076723433E+01  0.84914201784E+01  0.00000000000E+00 0. -1.
</event>
<event>
 8    1  0.6469014E-010  0.9118800E+02  0.7816164E-02  0.1184000E+00
        -11   -1    0    0    0    0  0.00000000000E+00  0.00000000000E+00  0.45593999997E+02  0.45594000000E+02  0.51100000000E-03 0. -1.
         11   -1    0    0    0    0 -0.00000000000E+00 -0.00000000000E+00 -0.45593999997E+02  0.45594000000E+02  0.51100000000E-03 0.  1.
         23    2    1    2    0    0  0.35527136788E-14 -0.88817841970E-15  0.35527136788E-14  0.91188000000E+02  0.91188000000E+02 0.  0.
    9900012    2    3    3    0    0 -0.29661048914E+02  0.29460680199E+01 -0.31546256484E+02  0.47787269158E+02  0.19999991399E+02 0.  0.
         12    1    3    3    0    0  0.29661048914E+02 -0.29460680199E+01  0.31546256484E+02  0.43400730842E+02  0.00000000000E+00 0. -1.
         11    1    4    4    0    0 -0.91753899633E+01  0.41947906406E+01 -0.22144573214E+02  0.24334464707E+02  0.51100000000E-03 0. -1.
        -11    1    4    4    0    0 -0.14832978130E+02 -0.17986259634E+01 -0.36739378036E+01  0.15386686284E+02  0.51100000000E-03 0.  1.
        -12    1    4    4    0    0 -0.56526808206E+01  0.54990334263E+00 -0.57277454663E+01  0.80661181663E+01  0.00000000000E+00 0.  1.
</event>
<event>
 8    1  0.6469014E-010  0.9118800E+02  0.7816164E-02  0.1184000E+00
        -11   -1    0    0    0    0  0.00000000000E+00  0.00000000000E+00  0.45593999997E+02  0.45594000000E+02  0.51100000000E-03 0.  1.
         11   -1    0    0    0    0 -0.00000000000E+00 -0.00000000000E+00 -0.45593999997E+02  0.45594000000E+02  0.51100000000E-03 0. -1.
         23    2    1    2    0    0  0.71054273576E-14  0.35527136788E-14 -0.13322676296E-14  0.91188000000E+02  0.91188000000E+02 0.  0.
    9900012    2    3    3    0    0 -0.32139534572E+02 -0.28998879912E+02  0.31206466179E+01  0.47787272426E+02  0.20000006298E+02 0.  0.
         12    1    3    3    0    0  0.32139534572E+02  0.28998879912E+02 -0.31206466179E+01  0.43400727574E+02  0.00000000000E+00 0. -1.
         11    1    4    4    0    0 -0.14241238367E+00 -0.70872530240E-01 -0.80478864368E+00  0.82035920466E+00  0.51100000000E-03 0. -1.
        -11    1    4    4    0    0 -0.19700119210E+02 -0.14538120039E+02 -0.65344221581E+01  0.25340684765E+02  0.51100000000E-03 0.  1.
        -12    1    4    4    0    0 -0.12297002978E+02 -0.14389887343E+02  0.10459857420E+02  0.21626228456E+02  0.00000000000E+00 0.  1.
</event>
<event>
 8    1  0.6469014E-010  0.9118800E+02  0.7816164E-02  0.1184000E+00
        -11   -1    0    0    0    0  0.00000000000E+00  0.00000000000E+00  0.45593999997E+02  0.45594000000E+02  0.51100000000E-03 0. -1.
         11   -1    0    0    0    0 -0.00000000000E+00 -0.00000000000E+00 -0.45593999997E+02  0.45594000000E+02  0.51100000000E-03 0.  1.
         23    2    1    2    0    0  0.17763568394E-14  0.71054273576E-14  0.00000000000E+00  0.91188000000E+02  0.91188000000E+02 0.  0.
    9900012    2    3    3    0    0  0.11646238944E+02 -0.35942180704E+02  0.21357622876E+02  0.47787270856E+02  0.19999999140E+02 0.  0.
        -12    1    3    3    0    0 -0.11646238944E+02  0.35942180704E+02 -0.21357622876E+02  0.43400729144E+02  0.00000000000E+00 0.  1.
         11    1    4    4    0    0 -0.44184513164E+01 -0.49963619057E+01  0.65208555857E+01  0.93278026436E+01  0.51100000000E-03 0.  1.
        -11    1    4    4    0    0  0.86170822712E+01 -0.98037938922E+01  0.49326546076E+01  0.13953478537E+02  0.51100000000E-03 0. -1.
         12    1    4    4    0    0  0.74476079894E+01 -0.21142024906E+02  0.99041126832E+01  0.24505989675E+02  0.00000000000E+00 0. -1.
</event>
<event>
 8    1  0.6469014E-010  0.9118800E+02  0.7816164E-02  0.1184000E+00
        -11   -1    0    0    0    0  0.00000000000E+00  0.00000000000E+00  0.45593999997E+02  0.45594000000E+02  0.51100000000E-03 0. -1.
         11   -1    0    0    0    0 -0.00000000000E+00 -0.00000000000E+00 -0.45593999997E+02  0.45594000000E+02  0.51100000000E-03 0.  1.
         23    2    1    2    0    0  0.00000000000E+00 -0.35527136788E-14  0.00000000000E+00  0.91188000000E+02  0.91188000000E+02 0.  0.
    9900012    2    3    3    0    0  0.42794777819E+01 -0.27953763642E+02  0.32922585466E+02  0.47787268835E+02  0.19999989928E+02 0.  0.
        -12    1    3    3    0    0 -0.42794777819E+01  0.27953763642E+02 -0.32922585466E+02  0.43400731165E+02  0.00000000000E+00 0.  1.
         11    1    4    4    0    0  0.37407998788E+00 -0.48290664340E+01  0.15760169732E+02  0.16487655039E+02  0.51100000000E-03 0.  1.
        -11    1    4    4    0    0  0.34672078120E+01 -0.23982432277E+02  0.17866676743E+02  0.30106423335E+02  0.51100000000E-03 0. -1.
         12    1    4    4    0    0  0.43818998207E+00  0.85773506880E+00 -0.70426100839E+00  0.11931904611E+01  0.00000000000E+00 0. -1.
</event>
<event>
 8    1  0.6469014E-010  0.9118800E+02  0.7816164E-02  0.1184000E+00
        -11   -1    0    0    0    0  0.00000000000E+00  0.00000000000E+00  0.45593999997E+02  0.45594000000E+02  0.51100000000E-03 0. -1.
         11   -1    0    0    0    0 -0.00000000000E+00 -0.00000000000E+00 -0.45593999997E+02  0.45594000000E+02  0.51100000000E-03 0.  1.
         23    2    1    2    0    0  0.00000000000E+00  0.00000000000E+00  0.00000000000E+00  0.91188000000E+02  0.91188000000E+02 0.  0.
    9900012    2    3    3    0    0 -0.17384405025E+02  0.37656151067E+02  0.12783601528E+02  0.47787265914E+02  0.19999976606E+02 0.  0.
        -12    1    3    3    0    0  0.17384405025E+02 -0.37656151067E+02 -0.12783601528E+02  0.43400734086E+02  0.00000000000E+00 0.  1.
         11    1    4    4    0    0 -0.12250505867E+02  0.23570376779E+02  0.12751009975E+02  0.29465671741E+02  0.51100000000E-03 0. -1.
        -11    1    4    4    0    0  0.16682611523E+00  0.71890325855E+01  0.45605611221E+01  0.85152063086E+01  0.51100000000E-03 0.  1.
         12    1    4    4    0    0 -0.53007252727E+01  0.68967417017E+01 -0.45279695689E+01  0.98063878637E+01  0.00000000000E+00 0. -1.
</event>
<event>
 8    1  0.6469014E-010  0.9118800E+02  0.7816164E-02  0.1184000E+00
        -11   -1    0    0    0    0  0.00000000000E+00  0.00000000000E+00  0.45593999997E+02  0.45594000000E+02  0.51100000000E-03 0.  1.
         11   -1    0    0    0    0 -0.00000000000E+00 -0.00000000000E+00 -0.45593999997E+02  0.45594000000E+02  0.51100000000E-03 0. -1.
         23    2    1    2    0    0  0.17763568394E-14  0.00000000000E+00  0.22204460493E-15  0.91188000000E+02  0.91188000000E+02 0.  0.
    9900012    2    3    3    0    0  0.12448531901E+02 -0.41540117854E+02  0.17534111104E+01  0.47787288159E+02  0.20000078032E+02 0.  0.
        -12    1    3    3    0    0 -0.12448531901E+02  0.41540117854E+02 -0.17534111104E+01  0.43400711841E+02  0.00000000000E+00 0.  1.
         11    1    4    4    0    0  0.48394777086E+01 -0.19791131549E+02 -0.62209780217E+01  0.21302816722E+02  0.51100000000E-03 0. -1.
        -11    1    4    4    0    0  0.86308076974E+01 -0.91284239705E+01  0.33160044201E+01  0.12992876944E+02  0.51100000000E-03 0.  1.
        -12    1    4    4    0    0 -0.10217535053E+01 -0.12620562334E+02  0.46583847120E+01  0.13491594494E+02  0.00000000000E+00 0.  1.
</event>
<event>
 8    1  0.6469014E-010  0.9118800E+02  0.7816164E-02  0.1184000E+00
        -11   -1    0    0    0    0  0.00000000000E+00  0.00000000000E+00  0.45593999997E+02  0.45594000000E+02  0.51100000000E-03 0.  1.
         11   -1    0    0    0    0 -0.00000000000E+00 -0.00000000000E+00 -0.45593999997E+02  0.45594000000E+02  0.51100000000E-03 0. -1.
         23    2    1    2    0    0 -0.71054273576E-14  0.00000000000E+00  0.17763568394E-14  0.91188000000E+02  0.91188000000E+02 0.  0.
    9900012    2    3    3    0    0  0.36206932832E+02  0.19056832976E+02 -0.14474729263E+02  0.47787278169E+02  0.20000032485E+02 0.  0.
         12    1    3    3    0    0 -0.36206932832E+02 -0.19056832976E+02  0.14474729263E+02  0.43400721831E+02  0.00000000000E+00 0. -1.
         11    1    4    4    0    0  0.73904071643E+01 -0.13031413655E+01 -0.71274584764E+01  0.10349732367E+02  0.51100000000E-03 0. -1.
        -11    1    4    4    0    0  0.27004419294E+02  0.20640795672E+02 -0.87861667025E+01  0.35106663655E+02  0.51100000000E-03 0.  1.
         12    1    4    4    0    0  0.18121063734E+01 -0.28082133077E+00  0.14388959158E+01  0.23308821474E+01  0.00000000000E+00 0. -1.
</event>
<event>
 8    1  0.6469014E-010  0.9118800E+02  0.7816164E-02  0.1184000E+00
        -11   -1    0    0    0    0  0.00000000000E+00  0.00000000000E+00  0.45593999997E+02  0.45594000000E+02  0.51100000000E-03 0. -1.
         11   -1    0    0    0    0 -0.00000000000E+00 -0.00000000000E+00 -0.45593999997E+02  0.45594000000E+02  0.51100000000E-03 0.  1.
         23    2    1    2    0    0  0.71054273576E-14  0.00000000000E+00  0.35527136788E-14  0.91188000000E+02  0.91188000000E+02 0.  0.
    9900012    2    3    3    0    0 -0.37992728376E+02 -0.70528330910E+01 -0.19759394505E+02  0.47787268033E+02  0.19999986270E+02 0.  0.
         12    1    3    3    0    0  0.37992728376E+02  0.70528330910E+01  0.19759394505E+02  0.43400731967E+02  0.00000000000E+00 0. -1.
         11    1    4    4    0    0 -0.32663698195E+02 -0.66077965174E+01 -0.22614971540E+02  0.40274273334E+02  0.51100000000E-03 0.  1.
        -11    1    4    4    0    0 -0.34801766311E+00  0.15461866508E+01  0.65690946570E+00  0.17156164374E+01  0.51100000000E-03 0. -1.
         12    1    4    4    0    0 -0.49810125172E+01 -0.19912232244E+01  0.21986675688E+01  0.57973782613E+01  0.00000000000E+00 0. -1.
</event>
<event>
 8    1  0.6469014E-010  0.9118800E+02  0.7816164E-02  0.1184000E+00
        -11   -1    0    0    0    0  0.00000000000E+00  0.00000000000E+00  0.45593999997E+02  0.45594000000E+02  0.51100000000E-03 0. -1.
         11   -1    0    0    0    0 -0.00000000000E+00 -0.00000000000E+00 -0.45593999997E+02  0.45594000000E+02  0.51100000000E-03 0.  1.
         23    2    1    2    0    0  0.00000000000E+00  0.00000000000E+00 -0.71054273576E-14  0.91188000000E+02  0.91188000000E+02 0.  0.
    9900012    2    3    3    0    0  0.17847702484E+02  0.19029400603E+02  0.34683780152E+02  0.47787272161E+02  0.20000005092E+02 0.  0.
        -12    1    3    3    0    0 -0.17847702484E+02 -0.19029400603E+02 -0.34683780152E+02  0.43400727839E+02  0.00000000000E+00 0.  1.
         11    1    4    4    0    0 -0.15238298271E+01  0.61048519310E+01  0.20236211910E+01  0.66095625746E+01  0.51100000000E-03 0. -1.
        -11    1    4    4    0    0  0.72929914568E+01  0.67626078385E+01  0.21226317211E+02  0.23440928560E+02  0.51100000000E-03 0.  1.
         12    1    4    4    0    0  0.12078540854E+02  0.61619408338E+01  0.11433841751E+02  0.17736781027E+02  0.00000000000E+00 0. -1.
</event>
<event>
 8    1  0.6469014E-010  0.9118800E+02  0.7816164E-02  0.1184000E+00
        -11   -1    0    0    0    0  0.00000000000E+00  0.00000000000E+00  0.45593999997E+02  0.45594000000E+02  0.51100000000E-03 0. -1.
         11   -1    0    0    0    0 -0.00000000000E+00 -0.00000000000E+00 -0.45593999997E+02  0.45594000000E+02  0.51100000000E-03 0.  1.
         23    2    1    2    0    0 -0.22204460493E-15 -0.22204460493E-15  0.00000000000E+00  0.91188000000E+02  0.91188000000E+02 0.  0.
    9900012    2    3    3    0    0 -0.10131986445E+01  0.15958267160E+01  0.43359546572E+02  0.47787268286E+02  0.19999987422E+02 0.  0.
        -12    1    3    3    0    0  0.10131986445E+01 -0.15958267160E+01 -0.43359546572E+02  0.43400731714E+02  0.00000000000E+00 0.  1.
         11    1    4    4    0    0  0.95136407330E+00  0.16956794643E+01  0.33896982001E+02  0.33952699620E+02  0.51100000000E-03 0. -1.
        -11    1    4    4    0    0 -0.50547855316E+01  0.26840340103E+01  0.40628035482E+01  0.70186372090E+01  0.51100000000E-03 0.  1.
         12    1    4    4    0    0  0.30902228138E+01 -0.27838867585E+01  0.53997610228E+01  0.68159314569E+01  0.00000000000E+00 0. -1.
</event>
<event>
 8    1  0.6469014E-010  0.9118800E+02  0.7816164E-02  0.1184000E+00
        -11   -1    0    0    0    0  0.00000000000E+00  0.00000000000E+00  0.45593999997E+02  0.45594000000E+02  0.51100000000E-03 0. -1.
         11   -1    0    0    0    0 -0.00000000000E+00 -0.00000000000E+00 -0.45593999997E+02  0.45594000000E+02  0.51100000000E-03 0.  1.
         23    2    1    2    0    0  0.00000000000E+00 -0.17763568394E-14  0.00000000000E+00  0.91188000000E+02  0.91188000000E+02 0.  0.
    9900012    2    3    3    0    0  0.13192874245E+02  0.80913226791E+01 -0.40547527267E+02  0.47787269580E+02  0.19999993321E+02 0.  0.
         12    1    3    3    0    0 -0.13192874245E+02 -0.80913226791E+01  0.40547527267E+02  0.43400730420E+02  0.00000000000E+00 0. -1.
         11    1    4    4    0    0  0.33607538557E+00  0.10038293274E+02 -0.25970919247E+02  0.27845447120E+02  0.51100000000E-03 0. -1.
        -11    1    4    4    0    0  0.60747927975E+01 -0.11761307519E+01 -0.98756085230E+01  0.11653927880E+02  0.51100000000E-03 0.  1.
         12    1    4    4    0    0  0.67820060621E+01 -0.77083984247E+00 -0.47009994970E+01  0.82878945794E+01  0.00000000000E+00 0. -1.
</event>
<event>
 8    1  0.6469014E-010  0.9118800E+02  0.7816164E-02  0.1184000E+00
        -11   -1    0    0    0    0  0.00000000000E+00  0.00000000000E+00  0.45593999997E+02  0.45594000000E+02  0.51100000000E-03 0. -1.
         11   -1    0    0    0    0 -0.00000000000E+00 -0.00000000000E+00 -0.45593999997E+02  0.45594000000E+02  0.51100000000E-03 0.  1.
         23    2    1    2    0    0  0.30531133177E-15  0.00000000000E+00  0.00000000000E+00  0.91188000000E+02  0.91188000000E+02 0.  0.
    9900012    2    3    3    0    0 -0.17885638380E+00 -0.30555975816E+01  0.43292668638E+02  0.47787264707E+02  0.19999971106E+02 0.  0.
        -12    1    3    3    0    0  0.17885638380E+00  0.30555975816E+01 -0.43292668638E+02  0.43400735293E+02  0.00000000000E+00 0.  1.
         11    1    4    4    0    0  0.28888515555E+01 -0.43232475720E+01  0.42599520766E+02  0.42915674324E+02  0.51100000000E-03 0. -1.
        -11    1    4    4    0    0 -0.77365694106E+00 -0.80249664801E+00  0.13105612863E+01  0.17204990784E+01  0.51100000000E-03 0.  1.
         12    1    4    4    0    0 -0.22940509983E+01  0.20701466384E+01 -0.61741341501E+00  0.31510913049E+01  0.00000000000E+00 0. -1.
</event>
<event>
 8    1  0.6469014E-010  0.9118800E+02  0.7816164E-02  0.1184000E+00
        -11   -1    0    0    0    0  0.00000000000E+00  0.00000000000E+00  0.45593999997E+02  0.45594000000E+02  0.51100000000E-03 0. -1.
         11   -1    0    0    0    0 -0.00000000000E+00 -0.00000000000E+00 -0.45593999997E+02  0.45594000000E+02  0.51100000000E-03 0.  1.
         23    2    1    2    0    0  0.00000000000E+00  0.71054273576E-14  0.17763568394E-14  0.91188000000E+02  0.91188000000E+02 0.  0.
    9900012    2    3    3    0    0  0.27249767164E+02 -0.32278933076E+02  0.99571073553E+01  0.47787270537E+02  0.19999997685E+02 0.  0.
        -12    1    3    3    0    0 -0.27249767164E+02  0.32278933076E+02 -0.99571073553E+01  0.43400729463E+02  0.00000000000E+00 0.  1.
         11    1    4    4    0    0  0.14071309261E+02 -0.20078206080E+02  0.65746026811E+01  0.25384276716E+02  0.51100000000E-03 0. -1.
        -11    1    4    4    0    0  0.17076518891E+01  0.10254439613E+01  0.44372192254E+01  0.48637973855E+01  0.51100000000E-03 0.  1.
        -12    1    4    4    0    0  0.11470806014E+02 -0.13226170958E+02 -0.10547145513E+01  0.17539196436E+02  0.00000000000E+00 0.  1.
</event>
<event>
 8    1  0.6469014E-010  0.9118800E+02  0.7816164E-02  0.1184000E+00
        -11   -1    0    0    0    0  0.00000000000E+00  0.00000000000E+00  0.45593999997E+02  0.45594000000E+02  0.51100000000E-03 0. -1.
         11   -1    0    0    0    0 -0.00000000000E+00 -0.00000000000E+00 -0.45593999997E+02  0.45594000000E+02  0.51100000000E-03 0.  1.
         23    2    1    2    0    0  0.22204460493E-15  0.22204460493E-15  0.00000000000E+00  0.91188000000E+02  0.91188000000E+02 0.  0.
    9900012    2    3    3    0    0 -0.16715679739E+01 -0.15841922553E+01  0.43339584133E+02  0.47787270082E+02  0.19999995610E+02 0.  0.
        -12    1    3    3    0    0  0.16715679739E+01  0.15841922553E+01 -0.43339584133E+02  0.43400729918E+02  0.00000000000E+00 0.  1.
         11    1    4    4    0    0 -0.12759925464E+01  0.66811094688E+01  0.21348181657E+02  0.22405585041E+02  0.51100000000E-03 0. -1.
        -11    1    4    4    0    0 -0.25092956235E+01  0.12181436472E+01  0.67880627253E+01  0.73388169547E+01  0.51100000000E-03 0.  1.
         12    1    4    4    0    0  0.21137201960E+01 -0.94834453713E+01  0.15203339751E+02  0.18042868086E+02  0.00000000000E+00 0. -1.
</event>
<event>
 8    1  0.6469014E-010  0.9118800E+02  0.7816164E-02  0.1184000E+00
        -11   -1    0    0    0    0  0.00000000000E+00  0.00000000000E+00  0.45593999997E+02  0.45594000000E+02  0.51100000000E-03 0. -1.
         11   -1    0    0    0    0 -0.00000000000E+00 -0.00000000000E+00 -0.45593999997E+02  0.45594000000E+02  0.51100000000E-03 0.  1.
         23    2    1    2    0    0  0.00000000000E+00  0.00000000000E+00  0.00000000000E+00  0.91188000000E+02  0.91188000000E+02 0.  0.
    9900012    2    3    3    0    0  0.80955918367E+01 -0.10609420751E+02 -0.41298002743E+02  0.47787269057E+02  0.19999990938E+02 0.  0.
         12    1    3    3    0    0 -0.80955918367E+01  0.10609420751E+02  0.41298002743E+02  0.43400730943E+02  0.00000000000E+00 0. -1.
         11    1    4    4    0    0  0.35711827857E+01  0.30058697647E+01 -0.10716828748E+02  0.11689269361E+02  0.51100000000E-03 0. -1.
        -11    1    4    4    0    0  0.45961628471E+01 -0.13906429643E+02 -0.16696371825E+02  0.22209960170E+02  0.51100000000E-03 0.  1.
        -12    1    4    4    0    0 -0.71753796055E-01  0.29113912704E+00 -0.13884802169E+02  0.13888039526E+02  0.00000000000E+00 0.  1.
</event>
<event>
 8    1  0.6469014E-010  0.9118800E+02  0.7816164E-02  0.1184000E+00
        -11   -1    0    0    0    0  0.00000000000E+00  0.00000000000E+00  0.45593999997E+02  0.45594000000E+02  0.51100000000E-03 0.  1.
         11   -1    0    0    0    0 -0.00000000000E+00 -0.00000000000E+00 -0.45593999997E+02  0.45594000000E+02  0.51100000000E-03 0. -1.
         23    2    1    2    0    0 -0.71054273576E-14  0.00000000000E+00 -0.17763568394E-14  0.91188000000E+02  0.91188000000E+02 0.  0.
    9900012    2    3    3    0    0  0.30136155402E+02  0.26905079541E+02  0.15860418788E+02  0.47787262085E+02  0.19999959148E+02 0.  0.
        -12    1    3    3    0    0 -0.30136155402E+02 -0.26905079541E+02 -0.15860418788E+02  0.43400737915E+02  0.00000000000E+00 0.  1.
         11    1    4    4    0    0  0.16417462209E+02  0.11604074675E+02  0.13598798786E+02  0.24271690158E+02  0.51100000000E-03 0. -1.
        -11    1    4    4    0    0  0.33779790299E+01  0.12128510791E+02  0.12193351854E+01  0.12649043240E+02  0.51100000000E-03 0.  1.
        -12    1    4    4    0    0  0.10340714163E+02  0.31724940751E+01  0.10422848156E+01  0.10866528686E+02  0.00000000000E+00 0.  1.
</event>
<event>
 8    1  0.6469014E-010  0.9118800E+02  0.7816164E-02  0.1184000E+00
        -11   -1    0    0    0    0  0.00000000000E+00  0.00000000000E+00  0.45593999997E+02  0.45594000000E+02  0.51100000000E-03 0. -1.
         11   -1    0    0    0    0 -0.00000000000E+00 -0.00000000000E+00 -0.45593999997E+02  0.45594000000E+02  0.51100000000E-03 0.  1.
         23    2    1    2    0    0  0.35527136788E-14  0.00000000000E+00  0.35527136788E-14  0.91188000000E+02  0.91188000000E+02 0.  0.
    9900012    2    3    3    0    0 -0.11162677488E+02 -0.32380538165E+02 -0.26655527081E+02  0.47787288664E+02  0.20000080334E+02 0.  0.
         12    1    3    3    0    0  0.11162677488E+02  0.32380538165E+02  0.26655527081E+02  0.43400711336E+02  0.00000000000E+00 0. -1.
         11    1    4    4    0    0  0.28633574238E+01  0.39231031304E+00 -0.75548885063E+00  0.29872205782E+01  0.51100000000E-03 0. -1.
        -11    1    4    4    0    0 -0.13096584079E+01 -0.64452462351E+01 -0.86027234933E+01  0.10828815999E+02  0.51100000000E-03 0.  1.
         12    1    4    4    0    0 -0.12716376503E+02 -0.26327602243E+02 -0.17297314737E+02  0.33971252087E+02  0.00000000000E+00 0. -1.
</event>
<event>
 8    1  0.6469014E-010  0.9118800E+02  0.7816164E-02  0.1184000E+00
        -11   -1    0    0    0    0  0.00000000000E+00  0.00000000000E+00  0.45593999997E+02  0.45594000000E+02  0.51100000000E-03 0. -1.
         11   -1    0    0    0    0 -0.00000000000E+00 -0.00000000000E+00 -0.45593999997E+02  0.45594000000E+02  0.51100000000E-03 0.  1.
         23    2    1    2    0    0  0.00000000000E+00  0.00000000000E+00  0.00000000000E+00  0.91188000000E+02  0.91188000000E+02 0.  0.
    9900012    2    3    3    0    0  0.17671856182E+02 -0.20197398068E+02 -0.34108563907E+02  0.47787268192E+02  0.19999986996E+02 0.  0.
         12    1    3    3    0    0 -0.17671856182E+02  0.20197398068E+02  0.34108563907E+02  0.43400731808E+02  0.00000000000E+00 0. -1.
         11    1    4    4    0    0 -0.17947596290E+01 -0.63360568500E+01 -0.73216807698E+01  0.98475270037E+01  0.51100000000E-03 0. -1.
        -11    1    4    4    0    0  0.18481199861E+02 -0.69766809611E+01 -0.21547470851E+02  0.29232213838E+02  0.51100000000E-03 0.  1.
        -12    1    4    4    0    0  0.98541595018E+00 -0.68846602574E+01 -0.52394122856E+01  0.87075273501E+01  0.00000000000E+00 0.  1.
</event>
<event>
 8    1  0.6469014E-010  0.9118800E+02  0.7816164E-02  0.1184000E+00
        -11   -1    0    0    0    0  0.00000000000E+00  0.00000000000E+00  0.45593999997E+02  0.45594000000E+02  0.51100000000E-03 0. -1.
         11   -1    0    0    0    0 -0.00000000000E+00 -0.00000000000E+00 -0.45593999997E+02  0.45594000000E+02  0.51100000000E-03 0.  1.
         23    2    1    2    0    0  0.00000000000E+00  0.00000000000E+00 -0.88817841970E-15  0.91188000000E+02  0.91188000000E+02 0.  0.
    9900012    2    3    3    0    0  0.41023108990E+02  0.13255721973E+02 -0.50013211916E+01  0.47787275929E+02  0.20000022269E+02 0.  0.
         12    1    3    3    0    0 -0.41023108990E+02 -0.13255721973E+02  0.50013211916E+01  0.43400724071E+02  0.00000000000E+00 0. -1.
         11    1    4    4    0    0  0.16896679097E+02  0.19852074088E+01  0.45749093379E+01  0.17617281535E+02  0.51100000000E-03 0. -1.
        -11    1    4    4    0    0  0.22899870403E+02  0.10589022708E+02 -0.11550493322E+02  0.27747889337E+02  0.51100000000E-03 0.  1.
        -12    1    4    4    0    0  0.12265594901E+01  0.68149185591E+00  0.19742627929E+01  0.24221050572E+01  0.00000000000E+00 0.  1.
</event>
<event>
 8    1  0.6469014E-010  0.9118800E+02  0.7816164E-02  0.1184000E+00
        -11   -1    0    0    0    0  0.00000000000E+00  0.00000000000E+00  0.45593999997E+02  0.45594000000E+02  0.51100000000E-03 0. -1.
         11   -1    0    0    0    0 -0.00000000000E+00 -0.00000000000E+00 -0.45593999997E+02  0.45594000000E+02  0.51100000000E-03 0.  1.
         23    2    1    2    0    0  0.00000000000E+00  0.44408920985E-15  0.00000000000E+00  0.91188000000E+02  0.91188000000E+02 0.  0.
    9900012    2    3    3    0    0 -0.39171809614E+02 -0.18139616447E+01 -0.18598422684E+02  0.47787280518E+02  0.20000043193E+02 0.  0.
         12    1    3    3    0    0  0.39171809614E+02  0.18139616447E+01  0.18598422684E+02  0.43400719482E+02  0.00000000000E+00 0. -1.
         11    1    4    4    0    0 -0.15142542118E+02  0.81977535179E+01 -0.47263265175E+01  0.17856032794E+02  0.51100000000E-03 0.  1.
        -11    1    4    4    0    0 -0.13621722089E+02 -0.60544070189E+01 -0.10714182607E+02  0.18357583343E+02  0.51100000000E-03 0. -1.
        -12    1    4    4    0    0 -0.10407545407E+02 -0.39573081437E+01 -0.31579135589E+01  0.11573664381E+02  0.00000000000E+00 0.  1.
</event>
<event>
 8    1  0.6469014E-010  0.9118800E+02  0.7816164E-02  0.1184000E+00
        -11   -1    0    0    0    0  0.00000000000E+00  0.00000000000E+00  0.45593999997E+02  0.45594000000E+02  0.51100000000E-03 0. -1.
         11   -1    0    0    0    0 -0.00000000000E+00 -0.00000000000E+00 -0.45593999997E+02  0.45594000000E+02  0.51100000000E-03 0.  1.
         23    2    1    2    0    0  0.00000000000E+00  0.00000000000E+00  0.35527136788E-14  0.91188000000E+02  0.91188000000E+02 0.  0.
    9900012    2    3    3    0    0 -0.21996783100E+01  0.31125008223E+02  0.30166514814E+02  0.47787270310E+02  0.19999996654E+02 0.  0.
        -12    1    3    3    0    0  0.21996783100E+01 -0.31125008223E+02 -0.30166514814E+02  0.43400729690E+02  0.00000000000E+00 0.  1.
         11    1    4    4    0    0 -0.57947528847E+01  0.13709931687E+02  0.18200381369E+02  0.23511598630E+02  0.51100000000E-03 0. -1.
        -11    1    4    4    0    0  0.12511520173E+01  0.13400956495E+02  0.24437224835E+01  0.13679283467E+02  0.51100000000E-03 0.  1.
        -12    1    4    4    0    0  0.23439225574E+01  0.40141200412E+01  0.95224109610E+01  0.10596388213E+02  0.00000000000E+00 0.  1.
</event>
<event>
 8    1  0.6469014E-010  0.9118800E+02  0.7816164E-02  0.1184000E+00
        -11   -1    0    0    0    0  0.00000000000E+00  0.00000000000E+00  0.45593999997E+02  0.45594000000E+02  0.51100000000E-03 0. -1.
         11   -1    0    0    0    0 -0.00000000000E+00 -0.00000000000E+00 -0.45593999997E+02  0.45594000000E+02  0.51100000000E-03 0.  1.
         23    2    1    2    0    0  0.17763568394E-14 -0.17763568394E-14  0.00000000000E+00  0.91188000000E+02  0.91188000000E+02 0.  0.
    9900012    2    3    3    0    0 -0.14439332011E+02 -0.14649716876E+02 -0.38216679509E+02  0.47787272977E+02  0.20000008809E+02 0.  0.
         12    1    3    3    0    0  0.14439332011E+02  0.14649716876E+02  0.38216679509E+02  0.43400727023E+02  0.00000000000E+00 0. -1.
         11    1    4    4    0    0  0.24840932110E+01 -0.54977480637E+01 -0.13579897334E+02  0.14859662335E+02  0.51100000000E-03 0. -1.
        -11    1    4    4    0    0 -0.16533951438E+02 -0.61556823803E+01 -0.16147451367E+02  0.23916608489E+02  0.51100000000E-03 0.  1.
        -12    1    4    4    0    0 -0.38947378356E+00 -0.29962864322E+01 -0.84893308084E+01  0.90110021521E+01  0.00000000000E+00 0.  1.
</event>
<event>
 8    1  0.6469014E-010  0.9118800E+02  0.7816164E-02  0.1184000E+00
        -11   -1    0    0    0    0  0.00000000000E+00  0.00000000000E+00  0.45593999997E+02  0.45594000000E+02  0.51100000000E-03 0.  1.
         11   -1    0    0    0    0 -0.00000000000E+00 -0.00000000000E+00 -0.45593999997E+02  0.45594000000E+02  0.51100000000E-03 0. -1.
         23    2    1    2    0    0  0.35527136788E-14 -0.35527136788E-14  0.00000000000E+00  0.91188000000E+02  0.91188000000E+02 0.  0.
    9900012    2    3    3    0    0  0.31617132385E+02 -0.24921765107E+02  0.16213746031E+02  0.47787274238E+02  0.20000014563E+02 0.  0.
        -12    1    3    3    0    0 -0.31617132385E+02  0.24921765107E+02 -0.16213746031E+02  0.43400725762E+02  0.00000000000E+00 0.  1.
         11    1    4    4    0    0  0.62785061351E+01 -0.25743163425E+01  0.23023390343E+01  0.71657176339E+01  0.51100000000E-03 0. -1.
        -11    1    4    4    0    0  0.13682922365E+02 -0.90886981135E+00  0.40131482562E+01  0.14288238799E+02  0.51100000000E-03 0.  1.
        -12    1    4    4    0    0  0.11655703884E+02 -0.21438578953E+02  0.98982587408E+01  0.26333317806E+02  0.00000000000E+00 0.  1.
</event>
<event>
 8    1  0.6469014E-010  0.9118800E+02  0.7816164E-02  0.1184000E+00
        -11   -1    0    0    0    0  0.00000000000E+00  0.00000000000E+00  0.45593999997E+02  0.45594000000E+02  0.51100000000E-03 0. -1.
         11   -1    0    0    0    0 -0.00000000000E+00 -0.00000000000E+00 -0.45593999997E+02  0.45594000000E+02  0.51100000000E-03 0.  1.
         23    2    1    2    0    0  0.35527136788E-14  0.00000000000E+00 -0.35527136788E-14  0.91188000000E+02  0.91188000000E+02 0.  0.
    9900012    2    3    3    0    0  0.30202403342E+02  0.87851238044E+01 -0.29904175211E+02  0.47787271170E+02  0.20000000574E+02 0.  0.
         12    1    3    3    0    0 -0.30202403342E+02 -0.87851238044E+01  0.29904175211E+02  0.43400728830E+02  0.00000000000E+00 0. -1.
         11    1    4    4    0    0  0.10044442431E+02  0.18758557113E+01 -0.12857867261E+02  0.16423593065E+02  0.51100000000E-03 0. -1.
        -11    1    4    4    0    0  0.42686381857E+01  0.57623574354E+01  0.10574082066E+01  0.72487342033E+01  0.51100000000E-03 0.  1.
        -12    1    4    4    0    0  0.15889322726E+02  0.11469106578E+01 -0.18103716156E+02  0.24114943902E+02  0.00000000000E+00 0.  1.
</event>
<event>
 8    1  0.6469014E-010  0.9118800E+02  0.7816164E-02  0.1184000E+00
        -11   -1    0    0    0    0  0.00000000000E+00  0.00000000000E+00  0.45593999997E+02  0.45594000000E+02  0.51100000000E-03 0. -1.
         11   -1    0    0    0    0 -0.00000000000E+00 -0.00000000000E+00 -0.45593999997E+02  0.45594000000E+02  0.51100000000E-03 0.  1.
         23    2    1    2    0    0 -0.17763568394E-14  0.00000000000E+00 -0.71054273576E-14  0.91188000000E+02  0.91188000000E+02 0.  0.
    9900012    2    3    3    0    0  0.13545537760E+02  0.31308983607E+02  0.26830747534E+02  0.47787273497E+02  0.20000011182E+02 0.  0.
        -12    1    3    3    0    0 -0.13545537760E+02 -0.31308983607E+02 -0.26830747534E+02  0.43400726503E+02  0.00000000000E+00 0.  1.
         11    1    4    4    0    0  0.13545149912E+02  0.33798836289E+02  0.24234460852E+02  0.43739473176E+02  0.51100000000E-03 0. -1.
        -11    1    4    4    0    0  0.55757292519E+00 -0.19640405982E+01  0.25686247353E+01  0.32811852021E+01  0.51100000000E-03 0.  1.
        -12    1    4    4    0    0 -0.55718507660E+00 -0.52581208386E+00  0.27661946640E-01  0.76661511882E+00  0.00000000000E+00 0.  1.
</event>
<event>
 8    1  0.6469014E-010  0.9118800E+02  0.7816164E-02  0.1184000E+00
        -11   -1    0    0    0    0  0.00000000000E+00  0.00000000000E+00  0.45593999997E+02  0.45594000000E+02  0.51100000000E-03 0. -1.
         11   -1    0    0    0    0 -0.00000000000E+00 -0.00000000000E+00 -0.45593999997E+02  0.45594000000E+02  0.51100000000E-03 0.  1.
         23    2    1    2    0    0  0.35527136788E-14  0.00000000000E+00 -0.71054273576E-14  0.91188000000E+02  0.91188000000E+02 0.  0.
    9900012    2    3    3    0    0  0.28404328707E+02 -0.60796754099E+01 -0.32246786129E+02  0.47787267771E+02  0.19999985076E+02 0.  0.
         12    1    3    3    0    0 -0.28404328707E+02  0.60796754099E+01  0.32246786129E+02  0.43400732229E+02  0.00000000000E+00 0. -1.
         11    1    4    4    0    0  0.24087105865E+02 -0.77788236986E+00 -0.13274985337E+02  0.27513978373E+02  0.51100000000E-03 0. -1.
        -11    1    4    4    0    0  0.39233440464E+01 -0.36405235509E+01 -0.12905966677E+02  0.13971757812E+02  0.51100000000E-03 0.  1.
         12    1    4    4    0    0  0.39387879486E+00 -0.16612694891E+01 -0.60658341151E+01  0.63015315862E+01  0.00000000000E+00 0. -1.
</event>
<event>
 8    1  0.6469014E-010  0.9118800E+02  0.7816164E-02  0.1184000E+00
        -11   -1    0    0    0    0  0.00000000000E+00  0.00000000000E+00  0.45593999997E+02  0.45594000000E+02  0.51100000000E-03 0. -1.
         11   -1    0    0    0    0 -0.00000000000E+00 -0.00000000000E+00 -0.45593999997E+02  0.45594000000E+02  0.51100000000E-03 0.  1.
         23    2    1    2    0    0  0.00000000000E+00  0.35527136788E-14  0.00000000000E+00  0.91188000000E+02  0.91188000000E+02 0.  0.
    9900012    2    3    3    0    0 -0.15563409559E+02  0.31674445998E+02  0.25261244675E+02  0.47787300364E+02  0.20000133678E+02 0.  0.
        -12    1    3    3    0    0  0.15563409559E+02 -0.31674445998E+02 -0.25261244675E+02  0.43400699636E+02  0.00000000000E+00 0.  1.
         11    1    4    4    0    0 -0.85229692123E+01  0.92120536379E+01  0.12450359382E+02  0.17678076406E+02  0.51100000000E-03 0. -1.
        -11    1    4    4    0    0 -0.82930808457E+01  0.21679583586E+02  0.71932989248E+01  0.24300680732E+02  0.51100000000E-03 0.  1.
        -12    1    4    4    0    0  0.12526404986E+01  0.78280877421E+00  0.56175863682E+01  0.58085432253E+01  0.00000000000E+00 0.  1.
</event>
<event>
 8    1  0.6469014E-010  0.9118800E+02  0.7816164E-02  0.1184000E+00
        -11   -1    0    0    0    0  0.00000000000E+00  0.00000000000E+00  0.45593999997E+02  0.45594000000E+02  0.51100000000E-03 0. -1.
         11   -1    0    0    0    0 -0.00000000000E+00 -0.00000000000E+00 -0.45593999997E+02  0.45594000000E+02  0.51100000000E-03 0.  1.
         23    2    1    2    0    0  0.35527136788E-14 -0.17763568394E-14  0.00000000000E+00  0.91188000000E+02  0.91188000000E+02 0.  0.
    9900012    2    3    3    0    0 -0.21170978885E+02  0.87942049654E+01  0.36852076285E+02  0.47787263665E+02  0.19999966355E+02 0.  0.
        -12    1    3    3    0    0  0.21170978885E+02 -0.87942049654E+01 -0.36852076285E+02  0.43400736335E+02  0.00000000000E+00 0.  1.
         11    1    4    4    0    0 -0.73616182554E+00  0.42248168927E+00  0.30612691486E+01  0.31767584222E+01  0.51100000000E-03 0.  1.
        -11    1    4    4    0    0 -0.29180892028E+01  0.28042397769E+01  0.22881300028E+02  0.23236456197E+02  0.51100000000E-03 0. -1.
        -12    1    4    4    0    0 -0.17516727856E+02  0.55674834993E+01  0.10909507108E+02  0.21374049046E+02  0.00000000000E+00 0.  1.
</event>
<event>
 8    1  0.6469014E-010  0.9118800E+02  0.7816164E-02  0.1184000E+00
        -11   -1    0    0    0    0  0.00000000000E+00  0.00000000000E+00  0.45593999997E+02  0.45594000000E+02  0.51100000000E-03 0. -1.
         11   -1    0    0    0    0 -0.00000000000E+00 -0.00000000000E+00 -0.45593999997E+02  0.45594000000E+02  0.51100000000E-03 0.  1.
         23    2    1    2    0    0 -0.33306690739E-15  0.00000000000E+00  0.00000000000E+00  0.91188000000E+02  0.91188000000E+02 0.  0.
    9900012    2    3    3    0    0 -0.24337642279E+00  0.26769227641E+02 -0.34160975536E+02  0.47787273852E+02  0.20000012802E+02 0.  0.
         12    1    3    3    0    0  0.24337642279E+00 -0.26769227641E+02  0.34160975536E+02  0.43400726148E+02  0.00000000000E+00 0. -1.
         11    1    4    4    0    0  0.30184098780E+00  0.18436502570E+01 -0.14473830820E+02  0.14593900545E+02  0.51100000000E-03 0. -1.
        -11    1    4    4    0    0 -0.35141652231E+01  0.15336409297E+02 -0.75756941710E+01  0.17462701675E+02  0.51100000000E-03 0.  1.
         12    1    4    4    0    0  0.29689478125E+01  0.95891680869E+01 -0.12111450545E+02  0.15730671633E+02  0.00000000000E+00 0. -1.
</event>
<event>
 8    1  0.6469014E-010  0.9118800E+02  0.7816164E-02  0.1184000E+00
        -11   -1    0    0    0    0  0.00000000000E+00  0.00000000000E+00  0.45593999997E+02  0.45594000000E+02  0.51100000000E-03 0. -1.
         11   -1    0    0    0    0 -0.00000000000E+00 -0.00000000000E+00 -0.45593999997E+02  0.45594000000E+02  0.51100000000E-03 0.  1.
         23    2    1    2    0    0  0.00000000000E+00  0.00000000000E+00  0.00000000000E+00  0.91188000000E+02  0.91188000000E+02 0.  0.
    9900012    2    3    3    0    0 -0.35063664508E+02 -0.59278972297E+01 -0.24880186102E+02  0.47787260436E+02  0.19999951630E+02 0.  0.
         12    1    3    3    0    0  0.35063664508E+02  0.59278972297E+01  0.24880186102E+02  0.43400739564E+02  0.00000000000E+00 0. -1.
         11    1    4    4    0    0 -0.56962373613E+01 -0.30576633898E+01  0.17047803689E+01  0.66860079157E+01  0.51100000000E-03 0. -1.
        -11    1    4    4    0    0 -0.28190995443E+02 -0.51075335915E+01 -0.23136029374E+02  0.36825194893E+02  0.51100000000E-03 0.  1.
         12    1    4    4    0    0 -0.11764317038E+01  0.22372997516E+01 -0.34489370968E+01  0.42760576270E+01  0.00000000000E+00 0. -1.
</event>
<event>
 8    1  0.6469014E-010  0.9118800E+02  0.7816164E-02  0.1184000E+00
        -11   -1    0    0    0    0  0.00000000000E+00  0.00000000000E+00  0.45593999997E+02  0.45594000000E+02  0.51100000000E-03 0. -1.
         11   -1    0    0    0    0 -0.00000000000E+00 -0.00000000000E+00 -0.45593999997E+02  0.45594000000E+02  0.51100000000E-03 0.  1.
         23    2    1    2    0    0  0.00000000000E+00  0.00000000000E+00  0.00000000000E+00  0.91188000000E+02  0.91188000000E+02 0.  0.
    9900012    2    3    3    0    0  0.31413598902E+01  0.16213300811E+02  0.40135818691E+02  0.47787271814E+02  0.20000003507E+02 0.  0.
        -12    1    3    3    0    0 -0.31413598902E+01 -0.16213300811E+02 -0.40135818691E+02  0.43400728186E+02  0.00000000000E+00 0.  1.
         11    1    4    4    0    0  0.55515987242E+01  0.60003505229E+01  0.25060906412E+02  0.26360453055E+02  0.51100000000E-03 0. -1.
        -11    1    4    4    0    0 -0.37069317424E+01  0.53858158354E+01  0.11585492085E+01  0.66400746747E+01  0.51100000000E-03 0.  1.
        -12    1    4    4    0    0  0.12966929085E+01  0.48271344523E+01  0.13916363070E+02  0.14786744084E+02  0.00000000000E+00 0.  1.
</event>
<event>
 8    1  0.8569680E-010  0.9118800E+02  0.7816164E-02  0.1184000E+00
        -11   -1    0    0    0    0  0.00000000000E+00  0.00000000000E+00  0.45593999997E+02  0.45594000000E+02  0.51100000000E-03 0. -1.
         11   -1    0    0    0    0 -0.00000000000E+00 -0.00000000000E+00 -0.45593999997E+02  0.45594000000E+02  0.51100000000E-03 0.  1.
         23    2    1    2    0    0 -0.17763568394E-14  0.00000000000E+00  0.00000000000E+00  0.91188000000E+02  0.91188000000E+02 0.  0.
    9900012    2    3    3    0    0 -0.89125875380E+01 -0.10932430569E+02 -0.41044751129E+02  0.47787264407E+02  0.19999969738E+02 0.  0.
         12    1    3    3    0    0  0.89125875380E+01  0.10932430569E+02  0.41044751129E+02  0.43400735593E+02  0.00000000000E+00 0. -1.
         11    1    4    4    0    0 -0.57727077330E+01 -0.79303532237E+01 -0.62441817236E+01  0.11627745374E+02  0.51100000000E-03 0. -1.
        -11    1    4    4    0    0 -0.36902566690E+01 -0.56104184801E+01 -0.29124153757E+02  0.29888310795E+02  0.51100000000E-03 0.  1.
         12    1    4    4    0    0  0.55037686404E+00  0.26083411346E+01 -0.56764156478E+01  0.62712082387E+01  0.00000000000E+00 0. -1.
</event>
<event>
 8    1  0.1160017E-009  0.9118800E+02  0.7816164E-02  0.1184000E+00
        -11   -1    0    0    0    0  0.00000000000E+00  0.00000000000E+00  0.45593999997E+02  0.45594000000E+02  0.51100000000E-03 0. -1.
         11   -1    0    0    0    0 -0.00000000000E+00 -0.00000000000E+00 -0.45593999997E+02  0.45594000000E+02  0.51100000000E-03 0.  1.
         23    2    1    2    0    0  0.00000000000E+00  0.00000000000E+00 -0.71054273576E-14  0.91188000000E+02  0.91188000000E+02 0.  0.
    9900012    2    3    3    0    0 -0.15215071530E+02  0.78831303689E+01 -0.39874567106E+02  0.47787271343E+02  0.20000001361E+02 0.  0.
         12    1    3    3    0    0  0.15215071530E+02 -0.78831303689E+01  0.39874567106E+02  0.43400728657E+02  0.00000000000E+00 0. -1.
         11    1    4    4    0    0 -0.96461164210E+01  0.46623880408E+01 -0.79246987281E+01  0.13326150023E+02  0.51100000000E-03 0. -1.
        -11    1    4    4    0    0 -0.66519940638E+01  0.58084347162E+01 -0.29301233636E+02  0.30603091865E+02  0.51100000000E-03 0.  1.
         12    1    4    4    0    0  0.10830389546E+01 -0.25876923881E+01 -0.26486347420E+01  0.38580294541E+01  0.00000000000E+00 0. -1.
</event>
<event>
 8    1  0.6469014E-010  0.9118800E+02  0.7816164E-02  0.1184000E+00
        -11   -1    0    0    0    0  0.00000000000E+00  0.00000000000E+00  0.45593999997E+02  0.45594000000E+02  0.51100000000E-03 0. -1.
         11   -1    0    0    0    0 -0.00000000000E+00 -0.00000000000E+00 -0.45593999997E+02  0.45594000000E+02  0.51100000000E-03 0.  1.
         23    2    1    2    0    0  0.00000000000E+00  0.00000000000E+00  0.00000000000E+00  0.91188000000E+02  0.91188000000E+02 0.  0.
    9900012    2    3    3    0    0 -0.65442329061E+01 -0.38213904381E+02  0.19506265071E+02  0.47787264415E+02  0.19999969772E+02 0.  0.
        -12    1    3    3    0    0  0.65442329061E+01  0.38213904381E+02 -0.19506265071E+02  0.43400735585E+02  0.00000000000E+00 0.  1.
         11    1    4    4    0    0 -0.31924802299E+01 -0.29130762361E+02  0.18988571042E+02  0.34919322391E+02  0.51100000000E-03 0. -1.
        -11    1    4    4    0    0  0.52911048217E+00 -0.11901680894E+01  0.33769306278E+01  0.36194086132E+01  0.51100000000E-03 0.  1.
         12    1    4    4    0    0 -0.38808631584E+01 -0.78929739301E+01 -0.28592365992E+01  0.92485334105E+01  0.00000000000E+00 0. -1.
</event>
<event>
 8    1  0.6469014E-010  0.9118800E+02  0.7816164E-02  0.1184000E+00
        -11   -1    0    0    0    0  0.00000000000E+00  0.00000000000E+00  0.45593999997E+02  0.45594000000E+02  0.51100000000E-03 0. -1.
         11   -1    0    0    0    0 -0.00000000000E+00 -0.00000000000E+00 -0.45593999997E+02  0.45594000000E+02  0.51100000000E-03 0.  1.
         23    2    1    2    0    0  0.00000000000E+00 -0.88817841970E-15  0.35527136788E-14  0.91188000000E+02  0.91188000000E+02 0.  0.
    9900012    2    3    3    0    0 -0.29495138833E+02  0.31764016788E+01 -0.31679185820E+02  0.47787267787E+02  0.19999985146E+02 0.  0.
         12    1    3    3    0    0  0.29495138833E+02 -0.31764016788E+01  0.31679185820E+02  0.43400732213E+02  0.00000000000E+00 0. -1.
         11    1    4    4    0    0 -0.10421142735E+02 -0.58102385311E+01 -0.12236120608E+02  0.17090398927E+02  0.51100000000E-03 0. -1.
        -11    1    4    4    0    0 -0.14866386564E+02  0.11182835423E+02 -0.13003019865E+02  0.22696779142E+02  0.51100000000E-03 0.  1.
        -12    1    4    4    0    0 -0.42076095346E+01 -0.21961952131E+01 -0.64400453477E+01  0.80000897176E+01  0.00000000000E+00 0.  1.
</event>
<event>
 8    1  0.6469014E-010  0.9118800E+02  0.7816164E-02  0.1184000E+00
        -11   -1    0    0    0    0  0.00000000000E+00  0.00000000000E+00  0.45593999997E+02  0.45594000000E+02  0.51100000000E-03 0. -1.
         11   -1    0    0    0    0 -0.00000000000E+00 -0.00000000000E+00 -0.45593999997E+02  0.45594000000E+02  0.51100000000E-03 0.  1.
         23    2    1    2    0    0 -0.17763568394E-14  0.00000000000E+00  0.00000000000E+00  0.91188000000E+02  0.91188000000E+02 0.  0.
    9900012    2    3    3    0    0  0.13061274694E+02  0.30507323155E+02 -0.27970122230E+02  0.47787292629E+02  0.20000098411E+02 0.  0.
         12    1    3    3    0    0 -0.13061274694E+02 -0.30507323155E+02  0.27970122230E+02  0.43400707371E+02  0.00000000000E+00 0. -1.
         11    1    4    4    0    0  0.10841588609E+02  0.15410306333E+02 -0.21912073142E+02  0.28899074976E+02  0.51100000000E-03 0.  1.
        -11    1    4    4    0    0  0.11413698735E+01 -0.71064134014E+00  0.86354632630E+00  0.15979514452E+01  0.51100000000E-03 0. -1.
         12    1    4    4    0    0  0.10783162114E+01  0.15807658162E+02 -0.69215954151E+01  0.17290266207E+02  0.00000000000E+00 0. -1.
</event>
<event>
 8    1  0.6469014E-010  0.9118800E+02  0.7816164E-02  0.1184000E+00
        -11   -1    0    0    0    0  0.00000000000E+00  0.00000000000E+00  0.45593999997E+02  0.45594000000E+02  0.51100000000E-03 0. -1.
         11   -1    0    0    0    0 -0.00000000000E+00 -0.00000000000E+00 -0.45593999997E+02  0.45594000000E+02  0.51100000000E-03 0.  1.
         23    2    1    2    0    0 -0.44408920985E-15  0.00000000000E+00  0.00000000000E+00  0.91188000000E+02  0.91188000000E+02 0.  0.
    9900012    2    3    3    0    0  0.32476907033E+01  0.16225963218E+02  0.40122236377E+02  0.47787271560E+02  0.20000002349E+02 0.  0.
        -12    1    3    3    0    0 -0.32476907033E+01 -0.16225963218E+02 -0.40122236377E+02  0.43400728440E+02  0.00000000000E+00 0.  1.
         11    1    4    4    0    0  0.79202983273E+01  0.10194311912E+02  0.33852249571E+02  0.36230234918E+02  0.51100000000E-03 0. -1.
        -11    1    4    4    0    0 -0.24665966169E+01  0.21208476371E+01 -0.64095516533E+00  0.33155568696E+01  0.51100000000E-03 0.  1.
        -12    1    4    4    0    0 -0.22060110071E+01  0.39108036684E+01  0.69109419719E+01  0.82414797722E+01  0.00000000000E+00 0.  1.
</event>
<event>
 8    1  0.6469014E-010  0.9118800E+02  0.7816164E-02  0.1184000E+00
        -11   -1    0    0    0    0  0.00000000000E+00  0.00000000000E+00  0.45593999997E+02  0.45594000000E+02  0.51100000000E-03 0. -1.
         11   -1    0    0    0    0 -0.00000000000E+00 -0.00000000000E+00 -0.45593999997E+02  0.45594000000E+02  0.51100000000E-03 0.  1.
         23    2    1    2    0    0  0.00000000000E+00 -0.44408920985E-15  0.35527136788E-14  0.91188000000E+02  0.91188000000E+02 0.  0.
    9900012    2    3    3    0    0  0.31299141086E+02  0.88025681736E+00 -0.30053489366E+02  0.47787270652E+02  0.19999998213E+02 0.  0.
         12    1    3    3    0    0 -0.31299141086E+02 -0.88025681736E+00  0.30053489366E+02  0.43400729348E+02  0.00000000000E+00 0. -1.
         11    1    4    4    0    0  0.26246659820E+02 -0.21941651687E+01 -0.13228563503E+02  0.29473656121E+02  0.51100000000E-03 0. -1.
        -11    1    4    4    0    0  0.10156372219E+01  0.29264941768E+01 -0.88004813357E+01  0.93297566492E+01  0.51100000000E-03 0.  1.
         12    1    4    4    0    0  0.40368440438E+01  0.14792780925E+00 -0.80244445278E+01  0.89838578823E+01  0.00000000000E+00 0. -1.
</event>
<event>
 8    1  0.6469014E-010  0.9118800E+02  0.7816164E-02  0.1184000E+00
        -11   -1    0    0    0    0  0.00000000000E+00  0.00000000000E+00  0.45593999997E+02  0.45594000000E+02  0.51100000000E-03 0. -1.
         11   -1    0    0    0    0 -0.00000000000E+00 -0.00000000000E+00 -0.45593999997E+02  0.45594000000E+02  0.51100000000E-03 0.  1.
         23    2    1    2    0    0 -0.83266726847E-15  0.00000000000E+00  0.00000000000E+00  0.91188000000E+02  0.91188000000E+02 0.  0.
    9900012    2    3    3    0    0 -0.32467216408E+00 -0.63153546066E+01  0.42937557598E+02  0.47787274565E+02  0.20000016050E+02 0.  0.
        -12    1    3    3    0    0  0.32467216408E+00  0.63153546066E+01 -0.42937557598E+02  0.43400725435E+02  0.00000000000E+00 0.  1.
         11    1    4    4    0    0 -0.65490438823E+01 -0.17009962217E+01  0.74385601381E+01  0.10055622363E+02  0.51100000000E-03 0.  1.
        -11    1    4    4    0    0  0.55799422947E+01 -0.23297942740E+01  0.34706231649E+02  0.35229053534E+02  0.51100000000E-03 0. -1.
        -12    1    4    4    0    0  0.64442942348E+00 -0.22845641110E+01  0.79276581097E+00  0.25025986674E+01  0.00000000000E+00 0.  1.
</event>
<event>
 8    1  0.6469014E-010  0.9118800E+02  0.7816164E-02  0.1184000E+00
        -11   -1    0    0    0    0  0.00000000000E+00  0.00000000000E+00  0.45593999997E+02  0.45594000000E+02  0.51100000000E-03 0. -1.
         11   -1    0    0    0    0 -0.00000000000E+00 -0.00000000000E+00 -0.45593999997E+02  0.45594000000E+02  0.51100000000E-03 0.  1.
         23    2    1    2    0    0  0.00000000000E+00  0.00000000000E+00  0.00000000000E+00  0.91188000000E+02  0.91188000000E+02 0.  0.
    9900012    2    3    3    0    0 -0.12375412503E+02  0.16682197246E+02 -0.38107436371E+02  0.47787271361E+02  0.20000001445E+02 0.  0.
         12    1    3    3    0    0  0.12375412503E+02 -0.16682197246E+02  0.38107436371E+02  0.43400728639E+02  0.00000000000E+00 0. -1.
         11    1    4    4    0    0 -0.17784237195E+01 -0.16585587805E+01 -0.50617911179E+01  0.56156333335E+01  0.51100000000E-03 0. -1.
        -11    1    4    4    0    0  0.37168528962E+00  0.47213459464E+01 -0.19458154117E+02  0.20026208313E+02  0.51100000000E-03 0.  1.
        -12    1    4    4    0    0 -0.10968674074E+02  0.13619410080E+02 -0.13587491136E+02  0.22145429714E+02  0.00000000000E+00 0.  1.
</event>
<event>
 8    1  0.6469014E-010  0.9118800E+02  0.7816164E-02  0.1184000E+00
        -11   -1    0    0    0    0  0.00000000000E+00  0.00000000000E+00  0.45593999997E+02  0.45594000000E+02  0.51100000000E-03 0.  1.
         11   -1    0    0    0    0 -0.00000000000E+00 -0.00000000000E+00 -0.45593999997E+02  0.45594000000E+02  0.51100000000E-03 0. -1.
         23    2    1    2    0    0  0.00000000000E+00  0.00000000000E+00  0.00000000000E+00  0.91188000000E+02  0.91188000000E+02 0.  0.
    9900012    2    3    3    0    0 -0.25113225972E+02  0.34125042507E+02  0.94037590621E+01  0.47787270406E+02  0.19999997089E+02 0.  0.
        -12    1    3    3    0    0  0.25113225972E+02 -0.34125042507E+02 -0.94037590621E+01  0.43400729594E+02  0.00000000000E+00 0.  1.
         11    1    4    4    0    0 -0.10569440479E+02  0.53311839022E+01 -0.25554507357E+01  0.12110529409E+02  0.51100000000E-03 0. -1.
        -11    1    4    4    0    0 -0.40994781729E+01  0.99652712278E+01  0.88052122185E+01  0.13915606865E+02  0.51100000000E-03 0.  1.
        -12    1    4    4    0    0 -0.10444307320E+02  0.18828587377E+02  0.31539975793E+01  0.21761134132E+02  0.00000000000E+00 0.  1.
</event>
<event>
 8    1  0.6469014E-010  0.9118800E+02  0.7816164E-02  0.1184000E+00
        -11   -1    0    0    0    0  0.00000000000E+00  0.00000000000E+00  0.45593999997E+02  0.45594000000E+02  0.51100000000E-03 0. -1.
         11   -1    0    0    0    0 -0.00000000000E+00 -0.00000000000E+00 -0.45593999997E+02  0.45594000000E+02  0.51100000000E-03 0.  1.
         23    2    1    2    0    0  0.00000000000E+00  0.35527136788E-14  0.00000000000E+00  0.91188000000E+02  0.91188000000E+02 0.  0.
    9900012    2    3    3    0    0  0.19764181199E+02  0.27674963143E+02 -0.26964775010E+02  0.47787244998E+02  0.19999881243E+02 0.  0.
         12    1    3    3    0    0 -0.19764181199E+02 -0.27674963143E+02  0.26964775010E+02  0.43400755002E+02  0.00000000000E+00 0. -1.
         11    1    4    4    0    0  0.76500192993E+01  0.18521324436E+02 -0.66082445168E+01  0.21100501179E+02  0.51100000000E-03 0. -1.
        -11    1    4    4    0    0  0.12348242338E+02  0.10302922374E+02 -0.19069888017E+02  0.24945739667E+02  0.51100000000E-03 0.  1.
         12    1    4    4    0    0 -0.23408043839E+00 -0.11492836665E+01 -0.12866424757E+01  0.17410041522E+01  0.00000000000E+00 0. -1.
</event>
<event>
 8    1  0.6469014E-010  0.9118800E+02  0.7816164E-02  0.1184000E+00
        -11   -1    0    0    0    0  0.00000000000E+00  0.00000000000E+00  0.45593999997E+02  0.45594000000E+02  0.51100000000E-03 0. -1.
         11   -1    0    0    0    0 -0.00000000000E+00 -0.00000000000E+00 -0.45593999997E+02  0.45594000000E+02  0.51100000000E-03 0.  1.
         23    2    1    2    0    0  0.00000000000E+00 -0.88817841970E-15  0.00000000000E+00  0.91188000000E+02  0.91188000000E+02 0.  0.
    9900012    2    3    3    0    0  0.32258879230E+02  0.45631627011E+01  0.28673427150E+02  0.47787272270E+02  0.20000005586E+02 0.  0.
        -12    1    3    3    0    0 -0.32258879230E+02 -0.45631627011E+01 -0.28673427150E+02  0.43400727730E+02  0.00000000000E+00 0.  1.
         11    1    4    4    0    0  0.48152791582E+01  0.68072260869E+01  0.25801837324E+01  0.87282637864E+01  0.51100000000E-03 0. -1.
        -11    1    4    4    0    0  0.73757795624E+01 -0.36958248826E+01  0.11718856806E+02  0.14331533443E+02  0.51100000000E-03 0.  1.
         12    1    4    4    0    0  0.20067820509E+02  0.14517614967E+01  0.14374386611E+02  0.24727475040E+02  0.00000000000E+00 0. -1.
</event>
<event>
 8    1  0.6469014E-010  0.9118800E+02  0.7816164E-02  0.1184000E+00
        -11   -1    0    0    0    0  0.00000000000E+00  0.00000000000E+00  0.45593999997E+02  0.45594000000E+02  0.51100000000E-03 0. -1.
         11   -1    0    0    0    0 -0.00000000000E+00 -0.00000000000E+00 -0.45593999997E+02  0.45594000000E+02  0.51100000000E-03 0.  1.
         23    2    1    2    0    0 -0.35527136788E-14  0.88817841970E-15 -0.71054273576E-14  0.91188000000E+02  0.91188000000E+02 0.  0.
    9900012    2    3    3    0    0  0.18028230626E+02 -0.44259451851E+01  0.39230315114E+02  0.47787265971E+02  0.19999976870E+02 0.  0.
        -12    1    3    3    0    0 -0.18028230626E+02  0.44259451851E+01 -0.39230315114E+02  0.43400734029E+02  0.00000000000E+00 0.  1.
         11    1    4    4    0    0  0.28399155617E+01  0.59122844592E+01  0.72714589631E+01  0.97925657331E+01  0.51100000000E-03 0. -1.
        -11    1    4    4    0    0  0.91462816907E+01 -0.71252125360E+01  0.11134749680E+02  0.16075004608E+02  0.51100000000E-03 0.  1.
         12    1    4    4    0    0  0.60420333737E+01 -0.32130171083E+01  0.20824106470E+02  0.21919695630E+02  0.00000000000E+00 0. -1.
</event>
<event>
 8    1  0.6469014E-010  0.9118800E+02  0.7816164E-02  0.1184000E+00
        -11   -1    0    0    0    0  0.00000000000E+00  0.00000000000E+00  0.45593999997E+02  0.45594000000E+02  0.51100000000E-03 0. -1.
         11   -1    0    0    0    0 -0.00000000000E+00 -0.00000000000E+00 -0.45593999997E+02  0.45594000000E+02  0.51100000000E-03 0.  1.
         23    2    1    2    0    0  0.33306690739E-15  0.00000000000E+00  0.00000000000E+00  0.91188000000E+02  0.91188000000E+02 0.  0.
    9900012    2    3    3    0    0  0.97907060200E+00 -0.21516572588E+02 -0.37678939408E+02  0.47787263254E+02  0.19999964480E+02 0.  0.
         12    1    3    3    0    0 -0.97907060200E+00  0.21516572588E+02  0.37678939408E+02  0.43400736746E+02  0.00000000000E+00 0. -1.
         11    1    4    4    0    0 -0.30280057225E+01 -0.10330588565E+02 -0.51158883660E+01  0.11918984553E+02  0.51100000000E-03 0. -1.
        -11    1    4    4    0    0  0.47823747312E+01 -0.75092574853E+01 -0.11874652589E+02  0.14841409314E+02  0.51100000000E-03 0.  1.
         12    1    4    4    0    0 -0.77529840670E+00 -0.36767265382E+01 -0.20688398453E+02  0.21026869387E+02  0.00000000000E+00 0. -1.
</event>
<event>
 8    1  0.6469014E-010  0.9118800E+02  0.7816164E-02  0.1184000E+00
        -11   -1    0    0    0    0  0.00000000000E+00  0.00000000000E+00  0.45593999997E+02  0.45594000000E+02  0.51100000000E-03 0. -1.
         11   -1    0    0    0    0 -0.00000000000E+00 -0.00000000000E+00 -0.45593999997E+02  0.45594000000E+02  0.51100000000E-03 0.  1.
         23    2    1    2    0    0  0.00000000000E+00  0.35527136788E-14  0.00000000000E+00  0.91188000000E+02  0.91188000000E+02 0.  0.
    9900012    2    3    3    0    0 -0.18253483521E+02  0.30213111866E+02 -0.25250771527E+02  0.47787271297E+02  0.20000001151E+02 0.  0.
         12    1    3    3    0    0  0.18253483521E+02 -0.30213111866E+02  0.25250771527E+02  0.43400728703E+02  0.00000000000E+00 0. -1.
         11    1    4    4    0    0 -0.36382150447E+01  0.16019573949E+02 -0.74945312143E+01  0.18056338405E+02  0.51100000000E-03 0. -1.
        -11    1    4    4    0    0 -0.16554808526E+02  0.12346930428E+02 -0.13403557531E+02  0.24620392585E+02  0.51100000000E-03 0.  1.
        -12    1    4    4    0    0  0.19395400499E+01  0.18466074894E+01 -0.43526827820E+01  0.51105403067E+01  0.00000000000E+00 0.  1.
</event>
<event>
 8    1  0.6469014E-010  0.9118800E+02  0.7816164E-02  0.1184000E+00
        -11   -1    0    0    0    0  0.00000000000E+00  0.00000000000E+00  0.45593999997E+02  0.45594000000E+02  0.51100000000E-03 0. -1.
         11   -1    0    0    0    0 -0.00000000000E+00 -0.00000000000E+00 -0.45593999997E+02  0.45594000000E+02  0.51100000000E-03 0.  1.
         23    2    1    2    0    0  0.88817841970E-15  0.00000000000E+00 -0.17763568394E-14  0.91188000000E+02  0.91188000000E+02 0.  0.
    9900012    2    3    3    0    0 -0.42090527006E+01 -0.40803948024E+02  0.14175503588E+02  0.47787271885E+02  0.20000003832E+02 0.  0.
        -12    1    3    3    0    0  0.42090527006E+01  0.40803948024E+02 -0.14175503588E+02  0.43400728115E+02  0.00000000000E+00 0.  1.
         11    1    4    4    0    0  0.28501345823E+01 -0.10348901507E+02  0.77851887021E+01  0.13260173186E+02  0.51100000000E-03 0. -1.
        -11    1    4    4    0    0 -0.10615585098E+02 -0.24517335550E+02  0.32063522306E+01  0.26908568976E+02  0.51100000000E-03 0.  1.
        -12    1    4    4    0    0  0.35563978156E+01 -0.59377109664E+01  0.31839626549E+01  0.76185297225E+01  0.00000000000E+00 0.  1.
</event>
<event>
 8    1  0.6469014E-010  0.9118800E+02  0.7816164E-02  0.1184000E+00
        -11   -1    0    0    0    0  0.00000000000E+00  0.00000000000E+00  0.45593999997E+02  0.45594000000E+02  0.51100000000E-03 0.  1.
         11   -1    0    0    0    0 -0.00000000000E+00 -0.00000000000E+00 -0.45593999997E+02  0.45594000000E+02  0.51100000000E-03 0. -1.
         23    2    1    2    0    0  0.22204460493E-15  0.00000000000E+00 -0.88817841970E-15  0.91188000000E+02  0.91188000000E+02 0.  0.
    9900012    2    3    3    0    0  0.14709138792E+01  0.42868967869E+02  0.66114716586E+01  0.47787267848E+02  0.19999985428E+02 0.  0.
        -12    1    3    3    0    0 -0.14709138792E+01 -0.42868967869E+02 -0.66114716586E+01  0.43400732152E+02  0.00000000000E+00 0.  1.
         11    1    4    4    0    0  0.56465219485E+01  0.14516752628E+02  0.40850271666E+01  0.16103004819E+02  0.51100000000E-03 0. -1.
        -11    1    4    4    0    0 -0.70417682105E+01  0.12434662343E+02  0.53640332930E+01  0.15263688301E+02  0.51100000000E-03 0.  1.
        -12    1    4    4    0    0  0.28661601412E+01  0.15917552899E+02 -0.28375888010E+01  0.16420574729E+02  0.00000000000E+00 0.  1.
</event>
<event>
 8    1  0.6469014E-010  0.9118800E+02  0.7816164E-02  0.1184000E+00
        -11   -1    0    0    0    0  0.00000000000E+00  0.00000000000E+00  0.45593999997E+02  0.45594000000E+02  0.51100000000E-03 0.  1.
         11   -1    0    0    0    0 -0.00000000000E+00 -0.00000000000E+00 -0.45593999997E+02  0.45594000000E+02  0.51100000000E-03 0. -1.
         23    2    1    2    0    0  0.00000000000E+00 -0.17763568394E-14  0.00000000000E+00  0.91188000000E+02  0.91188000000E+02 0.  0.
    9900012    2    3    3    0    0  0.39855001177E+02 -0.12140739864E+02 -0.12157479862E+02  0.47787274202E+02  0.20000014394E+02 0.  0.
         12    1    3    3    0    0 -0.39855001177E+02  0.12140739864E+02  0.12157479862E+02  0.43400725798E+02  0.00000000000E+00 0. -1.
         11    1    4    4    0    0  0.11902624269E+02  0.45775574934E+01 -0.19578622144E+01  0.12901927058E+02  0.51100000000E-03 0. -1.
        -11    1    4    4    0    0  0.25030259086E+02 -0.12005122683E+02 -0.92378462698E+01  0.29257044357E+02  0.51100000000E-03 0.  1.
        -12    1    4    4    0    0  0.29221178218E+01 -0.47131746745E+01 -0.96177137823E+00  0.56283027869E+01  0.00000000000E+00 0.  1.
</event>
<event>
 8    1  0.6469014E-010  0.9118800E+02  0.7816164E-02  0.1184000E+00
        -11   -1    0    0    0    0  0.00000000000E+00  0.00000000000E+00  0.45593999997E+02  0.45594000000E+02  0.51100000000E-03 0. -1.
         11   -1    0    0    0    0 -0.00000000000E+00 -0.00000000000E+00 -0.45593999997E+02  0.45594000000E+02  0.51100000000E-03 0.  1.
         23    2    1    2    0    0  0.00000000000E+00  0.35527136788E-14  0.00000000000E+00  0.91188000000E+02  0.91188000000E+02 0.  0.
    9900012    2    3    3    0    0  0.22377346561E+02 -0.17998195797E+02  0.32541400398E+02  0.47787269235E+02  0.19999991751E+02 0.  0.
        -12    1    3    3    0    0 -0.22377346561E+02  0.17998195797E+02 -0.32541400398E+02  0.43400730765E+02  0.00000000000E+00 0.  1.
         11    1    4    4    0    0  0.37765371688E+01  0.13309855634E+01  0.65043737837E+01  0.76381040931E+01  0.51100000000E-03 0. -1.
        -11    1    4    4    0    0  0.76715221310E+01 -0.52408059919E+01  0.18675078214E+02  0.20858495770E+02  0.51100000000E-03 0.  1.
        -12    1    4    4    0    0  0.10929287261E+02 -0.14088375368E+02  0.73619484008E+01  0.19290669372E+02  0.00000000000E+00 0.  1.
</event>
<event>
 8    1  0.6469014E-010  0.9118800E+02  0.7816164E-02  0.1184000E+00
        -11   -1    0    0    0    0  0.00000000000E+00  0.00000000000E+00  0.45593999997E+02  0.45594000000E+02  0.51100000000E-03 0. -1.
         11   -1    0    0    0    0 -0.00000000000E+00 -0.00000000000E+00 -0.45593999997E+02  0.45594000000E+02  0.51100000000E-03 0.  1.
         23    2    1    2    0    0  0.00000000000E+00  0.17763568394E-14  0.35527136788E-14  0.91188000000E+02  0.91188000000E+02 0.  0.
    9900012    2    3    3    0    0 -0.28575615479E+02  0.11418702676E+02  0.30605076114E+02  0.47787271265E+02  0.20000001006E+02 0.  0.
        -12    1    3    3    0    0  0.28575615479E+02 -0.11418702676E+02 -0.30605076114E+02  0.43400728735E+02  0.00000000000E+00 0.  1.
         11    1    4    4    0    0 -0.12829109878E+02  0.11078192258E+02  0.21011310116E+02  0.26996065584E+02  0.51100000000E-03 0. -1.
        -11    1    4    4    0    0 -0.12547070900E+02 -0.13244920881E+01  0.11173942506E+02  0.16853493965E+02  0.51100000000E-03 0.  1.
         12    1    4    4    0    0 -0.31994347010E+01  0.16650025066E+01 -0.15801765088E+01  0.39377117152E+01  0.00000000000E+00 0. -1.
</event>
<event>
 8    1  0.6469014E-010  0.9118800E+02  0.7816164E-02  0.1184000E+00
        -11   -1    0    0    0    0  0.00000000000E+00  0.00000000000E+00  0.45593999997E+02  0.45594000000E+02  0.51100000000E-03 0. -1.
         11   -1    0    0    0    0 -0.00000000000E+00 -0.00000000000E+00 -0.45593999997E+02  0.45594000000E+02  0.51100000000E-03 0.  1.
         23    2    1    2    0    0  0.00000000000E+00  0.00000000000E+00  0.00000000000E+00  0.91188000000E+02  0.91188000000E+02 0.  0.
    9900012    2    3    3    0    0 -0.48474728587E+01  0.17061144598E+02  0.39611142043E+02  0.47787271641E+02  0.20000002720E+02 0.  0.
        -12    1    3    3    0    0  0.48474728587E+01 -0.17061144598E+02 -0.39611142043E+02  0.43400728359E+02  0.00000000000E+00 0.  1.
         11    1    4    4    0    0 -0.35612967619E+01 -0.68577499339E+00  0.14682406157E+01  0.39126529024E+01  0.51100000000E-03 0.  1.
        -11    1    4    4    0    0 -0.26031717849E+01  0.19364606550E+02  0.35326070759E+02  0.40369490531E+02  0.51100000000E-03 0. -1.
         12    1    4    4    0    0  0.13169956881E+01 -0.16176869583E+01  0.28168306689E+01  0.35051282080E+01  0.00000000000E+00 0. -1.
</event>
<event>
 8    1  0.6469014E-010  0.9118800E+02  0.7816164E-02  0.1184000E+00
        -11   -1    0    0    0    0  0.00000000000E+00  0.00000000000E+00  0.45593999997E+02  0.45594000000E+02  0.51100000000E-03 0. -1.
         11   -1    0    0    0    0 -0.00000000000E+00 -0.00000000000E+00 -0.45593999997E+02  0.45594000000E+02  0.51100000000E-03 0.  1.
         23    2    1    2    0    0 -0.35527136788E-14  0.00000000000E+00  0.00000000000E+00  0.91188000000E+02  0.91188000000E+02 0.  0.
    9900012    2    3    3    0    0  0.17253837394E+02 -0.21418782788E+02  0.33573263858E+02  0.47787271815E+02  0.20000003511E+02 0.  0.
        -12    1    3    3    0    0 -0.17253837394E+02  0.21418782788E+02 -0.33573263858E+02  0.43400728185E+02  0.00000000000E+00 0.  1.
         11    1    4    4    0    0 -0.94081739838E+00 -0.64334439555E+01  0.18810779032E+02  0.19902757260E+02  0.51100000000E-03 0. -1.
        -11    1    4    4    0    0  0.16566982499E+02 -0.13783426993E+02  0.14107090236E+02  0.25757673885E+02  0.51100000000E-03 0.  1.
         12    1    4    4    0    0  0.16276722928E+01 -0.12019118398E+01  0.65539459054E+00  0.21268406693E+01  0.00000000000E+00 0. -1.
</event>
<event>
 8    1  0.6469014E-010  0.9118800E+02  0.7816164E-02  0.1184000E+00
        -11   -1    0    0    0    0  0.00000000000E+00  0.00000000000E+00  0.45593999997E+02  0.45594000000E+02  0.51100000000E-03 0. -1.
         11   -1    0    0    0    0 -0.00000000000E+00 -0.00000000000E+00 -0.45593999997E+02  0.45594000000E+02  0.51100000000E-03 0.  1.
         23    2    1    2    0    0  0.00000000000E+00  0.00000000000E+00  0.00000000000E+00  0.91188000000E+02  0.91188000000E+02 0.  0.
    9900012    2    3    3    0    0 -0.39219980505E+02  0.17639030412E+02  0.58550237282E+01  0.47787267661E+02  0.19999984574E+02 0.  0.
        -12    1    3    3    0    0  0.39219980505E+02 -0.17639030412E+02 -0.58550237282E+01  0.43400732339E+02  0.00000000000E+00 0.  1.
         11    1    4    4    0    0 -0.31694357082E+02  0.53081219882E+01  0.71337564018E+01  0.32918063591E+02  0.51100000000E-03 0. -1.
        -11    1    4    4    0    0 -0.76198180504E+01  0.11986212744E+02 -0.73965343152E+00  0.14222447417E+02  0.51100000000E-03 0.  1.
         12    1    4    4    0    0  0.94194627662E-01  0.34469567951E+00 -0.53907924205E+00  0.64675665328E+00  0.00000000000E+00 0. -1.
</event>
<event>
 8    1  0.6469014E-010  0.9118800E+02  0.7816164E-02  0.1184000E+00
        -11   -1    0    0    0    0  0.00000000000E+00  0.00000000000E+00  0.45593999997E+02  0.45594000000E+02  0.51100000000E-03 0. -1.
         11   -1    0    0    0    0 -0.00000000000E+00 -0.00000000000E+00 -0.45593999997E+02  0.45594000000E+02  0.51100000000E-03 0.  1.
         23    2    1    2    0    0  0.17763568394E-14  0.00000000000E+00  0.00000000000E+00  0.91188000000E+02  0.91188000000E+02 0.  0.
    9900012    2    3    3    0    0  0.14317029594E+02 -0.50322143969E+01  0.40661072323E+02  0.47787270506E+02  0.19999997545E+02 0.  0.
        -12    1    3    3    0    0 -0.14317029594E+02  0.50322143969E+01 -0.40661072323E+02  0.43400729494E+02  0.00000000000E+00 0.  1.
         11    1    4    4    0    0  0.10245270131E+02 -0.13287324336E+00  0.34834085325E+02  0.36309733076E+02  0.51100000000E-03 0. -1.
        -11    1    4    4    0    0  0.44519202100E+01  0.51575950978E-01  0.10223785600E+01  0.45680971767E+01  0.51100000000E-03 0.  1.
         12    1    4    4    0    0 -0.38016074678E+00 -0.49509171045E+01  0.48046084386E+01  0.69094402535E+01  0.00000000000E+00 0. -1.
</event>
<event>
 8    1  0.6469014E-010  0.9118800E+02  0.7816164E-02  0.1184000E+00
        -11   -1    0    0    0    0  0.00000000000E+00  0.00000000000E+00  0.45593999997E+02  0.45594000000E+02  0.51100000000E-03 0. -1.
         11   -1    0    0    0    0 -0.00000000000E+00 -0.00000000000E+00 -0.45593999997E+02  0.45594000000E+02  0.51100000000E-03 0.  1.
         23    2    1    2    0    0  0.00000000000E+00 -0.35527136788E-14 -0.35527136788E-14  0.91188000000E+02  0.91188000000E+02 0.  0.
    9900012    2    3    3    0    0  0.32777613867E+02  0.26894970372E+02  0.92688669708E+01  0.47787270777E+02  0.19999998781E+02 0.  0.
        -12    1    3    3    0    0 -0.32777613867E+02 -0.26894970372E+02 -0.92688669708E+01  0.43400729223E+02  0.00000000000E+00 0.  1.
         11    1    4    4    0    0  0.27684452272E+02  0.14952802811E+02  0.46187952397E+01  0.31801705603E+02  0.51100000000E-03 0. -1.
        -11    1    4    4    0    0  0.89595107360E+00  0.10153523406E+02  0.11955651241E+01  0.10262852533E+02  0.51100000000E-03 0.  1.
        -12    1    4    4    0    0  0.41972105219E+01  0.17886441546E+01  0.34545066070E+01  0.57227126413E+01  0.00000000000E+00 0.  1.
</event>
<event>
 8    1  0.6469014E-010  0.9118800E+02  0.7816164E-02  0.1184000E+00
        -11   -1    0    0    0    0  0.00000000000E+00  0.00000000000E+00  0.45593999997E+02  0.45594000000E+02  0.51100000000E-03 0. -1.
         11   -1    0    0    0    0 -0.00000000000E+00 -0.00000000000E+00 -0.45593999997E+02  0.45594000000E+02  0.51100000000E-03 0.  1.
         23    2    1    2    0    0 -0.35527136788E-14  0.35527136788E-14  0.00000000000E+00  0.91188000000E+02  0.91188000000E+02 0.  0.
    9900012    2    3    3    0    0  0.23904322365E+02 -0.17771931182E+02  0.31565252455E+02  0.47787270418E+02  0.19999997146E+02 0.  0.
        -12    1    3    3    0    0 -0.23904322365E+02  0.17771931182E+02 -0.31565252455E+02  0.43400729582E+02  0.00000000000E+00 0.  1.
         11    1    4    4    0    0  0.14283689638E+02 -0.99644362136E+01  0.82213145322E+01  0.19258862677E+02  0.51100000000E-03 0. -1.
        -11    1    4    4    0    0 -0.12402661861E+01 -0.50046646718E+01  0.81158636924E+01  0.96152052721E+01  0.51100000000E-03 0.  1.
        -12    1    4    4    0    0  0.10860898913E+02 -0.28028302971E+01  0.15228074230E+02  0.18913202469E+02  0.00000000000E+00 0.  1.
</event>
<event>
 8    1  0.6469014E-010  0.9118800E+02  0.7816164E-02  0.1184000E+00
        -11   -1    0    0    0    0  0.00000000000E+00  0.00000000000E+00  0.45593999997E+02  0.45594000000E+02  0.51100000000E-03 0. -1.
         11   -1    0    0    0    0 -0.00000000000E+00 -0.00000000000E+00 -0.45593999997E+02  0.45594000000E+02  0.51100000000E-03 0.  1.
         23    2    1    2    0    0 -0.35527136788E-14  0.17763568394E-14  0.00000000000E+00  0.91188000000E+02  0.91188000000E+02 0.  0.
    9900012    2    3    3    0    0 -0.24191012709E+02  0.14359476203E+02  0.33048803611E+02  0.47787273360E+02  0.20000010558E+02 0.  0.
        -12    1    3    3    0    0  0.24191012709E+02 -0.14359476203E+02 -0.33048803611E+02  0.43400726640E+02  0.00000000000E+00 0.  1.
         11    1    4    4    0    0 -0.20407464456E+02  0.44362720016E+01  0.15365204079E+02  0.25927487565E+02  0.51100000000E-03 0. -1.
        -11    1    4    4    0    0 -0.53272115664E+01  0.59887750909E+01  0.14502190387E+02  0.16569795908E+02  0.51100000000E-03 0.  1.
         12    1    4    4    0    0  0.15436633130E+01  0.39344291107E+01  0.31814091455E+01  0.52899898868E+01  0.00000000000E+00 0. -1.
</event>
<event>
 8    1  0.6469014E-010  0.9118800E+02  0.7816164E-02  0.1184000E+00
        -11   -1    0    0    0    0  0.00000000000E+00  0.00000000000E+00  0.45593999997E+02  0.45594000000E+02  0.51100000000E-03 0. -1.
         11   -1    0    0    0    0 -0.00000000000E+00 -0.00000000000E+00 -0.45593999997E+02  0.45594000000E+02  0.51100000000E-03 0.  1.
         23    2    1    2    0    0  0.00000000000E+00  0.35527136788E-14  0.00000000000E+00  0.91188000000E+02  0.91188000000E+02 0.  0.
    9900012    2    3    3    0    0 -0.17263655002E+02  0.31456590151E+02  0.24414576736E+02  0.47787281053E+02  0.20000045631E+02 0.  0.
        -12    1    3    3    0    0  0.17263655002E+02 -0.31456590151E+02 -0.24414576736E+02  0.43400718947E+02  0.00000000000E+00 0.  1.
         11    1    4    4    0    0  0.30231539144E+01  0.75282178105E+01  0.39209284208E+01  0.90103941608E+01  0.51100000000E-03 0. -1.
        -11    1    4    4    0    0 -0.17493424741E+02  0.20729195188E+02  0.12808533659E+02  0.29996299389E+02  0.51100000000E-03 0.  1.
         12    1    4    4    0    0 -0.27933841751E+01  0.31991771527E+01  0.76851146563E+01  0.87805875023E+01  0.00000000000E+00 0. -1.
</event>
<event>
 8    1  0.6469014E-010  0.9118800E+02  0.7816164E-02  0.1184000E+00
        -11   -1    0    0    0    0  0.00000000000E+00  0.00000000000E+00  0.45593999997E+02  0.45594000000E+02  0.51100000000E-03 0. -1.
         11   -1    0    0    0    0 -0.00000000000E+00 -0.00000000000E+00 -0.45593999997E+02  0.45594000000E+02  0.51100000000E-03 0.  1.
         23    2    1    2    0    0  0.00000000000E+00  0.00000000000E+00  0.35527136788E-14  0.91188000000E+02  0.91188000000E+02 0.  0.
    9900012    2    3    3    0    0 -0.10400365829E+01  0.29307284693E+02 -0.31994134291E+02  0.47787271421E+02  0.20000001717E+02 0.  0.
         12    1    3    3    0    0  0.10400365829E+01 -0.29307284693E+02  0.31994134291E+02  0.43400728579E+02  0.00000000000E+00 0. -1.
         11    1    4    4    0    0 -0.15584066182E+00  0.22339341687E+02 -0.99935042057E+01  0.24473262960E+02  0.51100000000E-03 0. -1.
        -11    1    4    4    0    0 -0.55964763848E+00 -0.13964790483E+00 -0.21804757862E+01  0.22554782047E+01  0.51100000000E-03 0.  1.
         12    1    4    4    0    0 -0.32454828256E+00  0.71075909110E+01 -0.19820154299E+02  0.21058530257E+02  0.00000000000E+00 0. -1.
</event>
<event>
 8    1  0.6469014E-010  0.9118800E+02  0.7816164E-02  0.1184000E+00
        -11   -1    0    0    0    0  0.00000000000E+00  0.00000000000E+00  0.45593999997E+02  0.45594000000E+02  0.51100000000E-03 0. -1.
         11   -1    0    0    0    0 -0.00000000000E+00 -0.00000000000E+00 -0.45593999997E+02  0.45594000000E+02  0.51100000000E-03 0.  1.
         23    2    1    2    0    0  0.00000000000E+00  0.00000000000E+00  0.00000000000E+00  0.91188000000E+02  0.91188000000E+02 0.  0.
    9900012    2    3    3    0    0 -0.24053013789E+02 -0.18890012934E+02  0.30793623808E+02  0.47787224336E+02  0.19999787037E+02 0.  0.
        -12    1    3    3    0    0  0.24053013789E+02  0.18890012934E+02 -0.30793623808E+02  0.43400775664E+02  0.00000000000E+00 0.  1.
         11    1    4    4    0    0 -0.15624209875E+02 -0.19165234320E+02  0.23108212017E+02  0.33843930086E+02  0.51100000000E-03 0. -1.
        -11    1    4    4    0    0 -0.64904639292E+01 -0.33537931605E+01  0.35974792898E+01  0.81434579929E+01  0.51100000000E-03 0.  1.
         12    1    4    4    0    0 -0.19383399846E+01  0.36290145466E+01  0.40879325017E+01  0.57998362575E+01  0.00000000000E+00 0. -1.
</event>
<event>
 8    1  0.6469014E-010  0.9118800E+02  0.7816164E-02  0.1184000E+00
        -11   -1    0    0    0    0  0.00000000000E+00  0.00000000000E+00  0.45593999997E+02  0.45594000000E+02  0.51100000000E-03 0. -1.
         11   -1    0    0    0    0 -0.00000000000E+00 -0.00000000000E+00 -0.45593999997E+02  0.45594000000E+02  0.51100000000E-03 0.  1.
         23    2    1    2    0    0  0.00000000000E+00  0.00000000000E+00  0.00000000000E+00  0.91188000000E+02  0.91188000000E+02 0.  0.
    9900012    2    3    3    0    0 -0.18810109200E+02  0.20960909354E+02  0.33021858684E+02  0.47787273278E+02  0.20000010183E+02 0.  0.
        -12    1    3    3    0    0  0.18810109200E+02 -0.20960909354E+02 -0.33021858684E+02  0.43400726722E+02  0.00000000000E+00 0.  1.
         11    1    4    4    0    0 -0.67939311575E+01  0.36034620716E+01  0.14814809274E+02  0.16691944571E+02  0.51100000000E-03 0. -1.
        -11    1    4    4    0    0 -0.14158829803E+02  0.18002557289E+02  0.15900528130E+02  0.27881738206E+02  0.51100000000E-03 0.  1.
        -12    1    4    4    0    0  0.21426517606E+01 -0.64511000677E+00  0.23065212807E+01  0.32135905007E+01  0.00000000000E+00 0.  1.
</event>
<event>
 8    1  0.6469014E-010  0.9118800E+02  0.7816164E-02  0.1184000E+00
        -11   -1    0    0    0    0  0.00000000000E+00  0.00000000000E+00  0.45593999997E+02  0.45594000000E+02  0.51100000000E-03 0. -1.
         11   -1    0    0    0    0 -0.00000000000E+00 -0.00000000000E+00 -0.45593999997E+02  0.45594000000E+02  0.51100000000E-03 0.  1.
         23    2    1    2    0    0  0.00000000000E+00  0.00000000000E+00  0.00000000000E+00  0.91188000000E+02  0.91188000000E+02 0.  0.
    9900012    2    3    3    0    0 -0.17584670845E+02 -0.30781235167E+02  0.25038332263E+02  0.47787272245E+02  0.20000005474E+02 0.  0.
        -12    1    3    3    0    0  0.17584670845E+02  0.30781235167E+02 -0.25038332263E+02  0.43400727755E+02  0.00000000000E+00 0.  1.
         11    1    4    4    0    0 -0.21037902630E+01 -0.82679992524E+01 -0.61265063247E+00  0.85534254055E+01  0.51100000000E-03 0.  1.
        -11    1    4    4    0    0 -0.14543822220E+02 -0.11840559799E+02  0.13983592373E+02  0.23393641808E+02  0.51100000000E-03 0. -1.
        -12    1    4    4    0    0 -0.93705836201E+00 -0.10672676116E+02  0.11667390522E+02  0.15840205031E+02  0.00000000000E+00 0.  1.
</event>
<event>
 8    1  0.6469014E-010  0.9118800E+02  0.7816164E-02  0.1184000E+00
        -11   -1    0    0    0    0  0.00000000000E+00  0.00000000000E+00  0.45593999997E+02  0.45594000000E+02  0.51100000000E-03 0. -1.
         11   -1    0    0    0    0 -0.00000000000E+00 -0.00000000000E+00 -0.45593999997E+02  0.45594000000E+02  0.51100000000E-03 0.  1.
         23    2    1    2    0    0 -0.71054273576E-14  0.11102230246E-15 -0.71054273576E-14  0.91188000000E+02  0.91188000000E+02 0.  0.
    9900012    2    3    3    0    0 -0.26983551613E+02  0.99310445016E+00 -0.33978281426E+02  0.47787286610E+02  0.20000070970E+02 0.  0.
         12    1    3    3    0    0  0.26983551613E+02 -0.99310445016E+00  0.33978281426E+02  0.43400713390E+02  0.00000000000E+00 0. -1.
         11    1    4    4    0    0 -0.74804046597E+01  0.50149543721E+01 -0.19727653847E+02  0.21686091114E+02  0.51100000000E-03 0. -1.
        -11    1    4    4    0    0 -0.16603599894E+02 -0.48606548800E+01 -0.77963857884E+01  0.18976014517E+02  0.51100000000E-03 0.  1.
         12    1    4    4    0    0 -0.28995470588E+01  0.83880495812E+00 -0.64542417902E+01  0.71251809795E+01  0.00000000000E+00 0. -1.
</event>
<event>
 8    1  0.6469014E-010  0.9118800E+02  0.7816164E-02  0.1184000E+00
        -11   -1    0    0    0    0  0.00000000000E+00  0.00000000000E+00  0.45593999997E+02  0.45594000000E+02  0.51100000000E-03 0. -1.
         11   -1    0    0    0    0 -0.00000000000E+00 -0.00000000000E+00 -0.45593999997E+02  0.45594000000E+02  0.51100000000E-03 0.  1.
         23    2    1    2    0    0  0.00000000000E+00  0.00000000000E+00  0.00000000000E+00  0.91188000000E+02  0.91188000000E+02 0.  0.
    9900012    2    3    3    0    0 -0.21817395037E+02  0.32994487830E+02  0.17860239198E+02  0.47787273076E+02  0.20000009261E+02 0.  0.
        -12    1    3    3    0    0  0.21817395037E+02 -0.32994487830E+02 -0.17860239198E+02  0.43400726924E+02  0.00000000000E+00 0.  1.
         11    1    4    4    0    0 -0.49270472789E+01  0.52269314438E+01  0.59693379241E+01  0.93396789409E+01  0.51100000000E-03 0. -1.
        -11    1    4    4    0    0 -0.96056175134E+01  0.20356133785E+01  0.32765473931E+01  0.10351201511E+02  0.51100000000E-03 0.  1.
        -12    1    4    4    0    0 -0.72847302446E+01  0.25731943007E+02  0.86143538813E+01  0.28096392624E+02  0.00000000000E+00 0.  1.
</event>
<event>
 8    1  0.6469014E-010  0.9118800E+02  0.7816164E-02  0.1184000E+00
        -11   -1    0    0    0    0  0.00000000000E+00  0.00000000000E+00  0.45593999997E+02  0.45594000000E+02  0.51100000000E-03 0. -1.
         11   -1    0    0    0    0 -0.00000000000E+00 -0.00000000000E+00 -0.45593999997E+02  0.45594000000E+02  0.51100000000E-03 0.  1.
         23    2    1    2    0    0  0.00000000000E+00 -0.88817841970E-15  0.00000000000E+00  0.91188000000E+02  0.91188000000E+02 0.  0.
    9900012    2    3    3    0    0  0.11890703943E+02  0.43473875122E+01 -0.41513066225E+02  0.47787270907E+02  0.19999999372E+02 0.  0.
         12    1    3    3    0    0 -0.11890703943E+02 -0.43473875122E+01  0.41513066225E+02  0.43400729093E+02  0.00000000000E+00 0. -1.
         11    1    4    4    0    0  0.11029791744E+02  0.35344179080E+00 -0.89952983587E+01  0.14237156311E+02  0.51100000000E-03 0. -1.
        -11    1    4    4    0    0  0.38100428914E+01  0.16764421178E+01 -0.12241645142E+02  0.12929994626E+02  0.51100000000E-03 0.  1.
         12    1    4    4    0    0 -0.29491306920E+01  0.23175036036E+01 -0.20276122724E+02  0.20620119969E+02  0.00000000000E+00 0. -1.
</event>
<event>
 8    1  0.6469014E-010  0.9118800E+02  0.7816164E-02  0.1184000E+00
        -11   -1    0    0    0    0  0.00000000000E+00  0.00000000000E+00  0.45593999997E+02  0.45594000000E+02  0.51100000000E-03 0. -1.
         11   -1    0    0    0    0 -0.00000000000E+00 -0.00000000000E+00 -0.45593999997E+02  0.45594000000E+02  0.51100000000E-03 0.  1.
         23    2    1    2    0    0 -0.17763568394E-14  0.00000000000E+00  0.00000000000E+00  0.91188000000E+02  0.91188000000E+02 0.  0.
    9900012    2    3    3    0    0 -0.15166012851E+02 -0.14691762174E+02 -0.37917906773E+02  0.47787268720E+02  0.19999989401E+02 0.  0.
         12    1    3    3    0    0  0.15166012851E+02  0.14691762174E+02  0.37917906773E+02  0.43400731280E+02  0.00000000000E+00 0. -1.
         11    1    4    4    0    0  0.13408471694E+01 -0.40418892926E+01 -0.49427633488E+01  0.65242355851E+01  0.51100000000E-03 0. -1.
        -11    1    4    4    0    0 -0.87680746785E+01 -0.35886865330E+01 -0.37017888254E+01  0.10171580279E+02  0.51100000000E-03 0.  1.
        -12    1    4    4    0    0 -0.77387853421E+01 -0.70611863487E+01 -0.29273354599E+02  0.31091452856E+02  0.00000000000E+00 0.  1.
</event>
<event>
 8    1  0.6469014E-010  0.9118800E+02  0.7816164E-02  0.1184000E+00
        -11   -1    0    0    0    0  0.00000000000E+00  0.00000000000E+00  0.45593999997E+02  0.45594000000E+02  0.51100000000E-03 0. -1.
         11   -1    0    0    0    0 -0.00000000000E+00 -0.00000000000E+00 -0.45593999997E+02  0.45594000000E+02  0.51100000000E-03 0.  1.
         23    2    1    2    0    0 -0.17763568394E-14 -0.44408920985E-15  0.71054273576E-14  0.91188000000E+02  0.91188000000E+02 0.  0.
    9900012    2    3    3    0    0 -0.15853306524E+02 -0.31404604406E+01  0.40279443217E+02  0.47787269990E+02  0.19999995192E+02 0.  0.
        -12    1    3    3    0    0  0.15853306524E+02  0.31404604406E+01 -0.40279443217E+02  0.43400730010E+02  0.00000000000E+00 0.  1.
         11    1    4    4    0    0 -0.13505187335E+02 -0.19132184230E+01  0.27989484321E+02  0.31136180281E+02  0.51100000000E-03 0. -1.
        -11    1    4    4    0    0  0.41548400578E+01 -0.15215412069E+01  0.69138673541E+01  0.82084922856E+01  0.51100000000E-03 0.  1.
         12    1    4    4    0    0 -0.65029592470E+01  0.29429918925E+00  0.53760915418E+01  0.84425974230E+01  0.00000000000E+00 0. -1.
</event>
<event>
 8    1  0.6469014E-010  0.9118800E+02  0.7816164E-02  0.1184000E+00
        -11   -1    0    0    0    0  0.00000000000E+00  0.00000000000E+00  0.45593999997E+02  0.45594000000E+02  0.51100000000E-03 0.  1.
         11   -1    0    0    0    0 -0.00000000000E+00 -0.00000000000E+00 -0.45593999997E+02  0.45594000000E+02  0.51100000000E-03 0. -1.
         23    2    1    2    0    0  0.00000000000E+00  0.00000000000E+00  0.00000000000E+00  0.91188000000E+02  0.91188000000E+02 0.  0.
    9900012    2    3    3    0    0  0.29017612471E+02  0.28788102095E+02 -0.14589274413E+02  0.47787267476E+02  0.19999983730E+02 0.  0.
         12    1    3    3    0    0 -0.29017612471E+02 -0.28788102095E+02  0.14589274413E+02  0.43400732524E+02  0.00000000000E+00 0. -1.
         11    1    4    4    0    0  0.14995430255E+02  0.90275636697E+01  0.21174983092E+01  0.17630758171E+02  0.51100000000E-03 0. -1.
        -11    1    4    4    0    0  0.12511557203E+02  0.14965941261E+02 -0.10447309760E+02  0.22128369641E+02  0.51100000000E-03 0.  1.
         12    1    4    4    0    0  0.15106250131E+01  0.47945971641E+01 -0.62594629616E+01  0.80281396639E+01  0.00000000000E+00 0. -1.
</event>
<event>
 8    1  0.6469014E-010  0.9118800E+02  0.7816164E-02  0.1184000E+00
        -11   -1    0    0    0    0  0.00000000000E+00  0.00000000000E+00  0.45593999997E+02  0.45594000000E+02  0.51100000000E-03 0.  1.
         11   -1    0    0    0    0 -0.00000000000E+00 -0.00000000000E+00 -0.45593999997E+02  0.45594000000E+02  0.51100000000E-03 0. -1.
         23    2    1    2    0    0  0.00000000000E+00  0.00000000000E+00  0.17763568394E-14  0.91188000000E+02  0.91188000000E+02 0.  0.
    9900012    2    3    3    0    0  0.23180773357E+02  0.34518198439E+02 -0.12440626483E+02  0.47787268852E+02  0.19999990002E+02 0.  0.
         12    1    3    3    0    0 -0.23180773357E+02 -0.34518198439E+02  0.12440626483E+02  0.43400731148E+02  0.00000000000E+00 0. -1.
         11    1    4    4    0    0  0.66168971869E+00  0.66519427529E+01 -0.39648023863E+01  0.77721190094E+01  0.51100000000E-03 0. -1.
        -11    1    4    4    0    0  0.20894450829E+02  0.27136798551E+02 -0.11816022724E+02  0.36229853772E+02  0.51100000000E-03 0.  1.
        -12    1    4    4    0    0  0.16246328091E+01  0.72945713531E+00  0.33401986267E+01  0.37852960707E+01  0.00000000000E+00 0.  1.
</event>
<event>
 8    1  0.6469014E-010  0.9118800E+02  0.7816164E-02  0.1184000E+00
        -11   -1    0    0    0    0  0.00000000000E+00  0.00000000000E+00  0.45593999997E+02  0.45594000000E+02  0.51100000000E-03 0. -1.
         11   -1    0    0    0    0 -0.00000000000E+00 -0.00000000000E+00 -0.45593999997E+02  0.45594000000E+02  0.51100000000E-03 0.  1.
         23    2    1    2    0    0 -0.44408920985E-15 -0.35527136788E-14  0.00000000000E+00  0.91188000000E+02  0.91188000000E+02 0.  0.
    9900012    2    3    3    0    0 -0.22715340834E+01 -0.17236498181E+02  0.39766398468E+02  0.47787272083E+02  0.20000004735E+02 0.  0.
        -12    1    3    3    0    0  0.22715340834E+01  0.17236498181E+02 -0.39766398468E+02  0.43400727917E+02  0.00000000000E+00 0.  1.
         11    1    4    4    0    0  0.52013492076E+01 -0.72574455783E+00  0.18369615154E+02  0.19105588186E+02  0.51100000000E-03 0. -1.
        -11    1    4    4    0    0 -0.21983489762E+00 -0.14602515647E+00 -0.39854609238E+00  0.47800625248E+00  0.51100000000E-03 0.  1.
         12    1    4    4    0    0 -0.72530483933E+01 -0.16364728467E+02  0.21795329406E+02  0.28203677645E+02  0.00000000000E+00 0. -1.
</event>
<event>
 8    1  0.6469014E-010  0.9118800E+02  0.7816164E-02  0.1184000E+00
        -11   -1    0    0    0    0  0.00000000000E+00  0.00000000000E+00  0.45593999997E+02  0.45594000000E+02  0.51100000000E-03 0. -1.
         11   -1    0    0    0    0 -0.00000000000E+00 -0.00000000000E+00 -0.45593999997E+02  0.45594000000E+02  0.51100000000E-03 0.  1.
         23    2    1    2    0    0  0.00000000000E+00  0.00000000000E+00  0.35527136788E-14  0.91188000000E+02  0.91188000000E+02 0.  0.
    9900012    2    3    3    0    0  0.41206772357E+01 -0.37430964936E+02 -0.21576946124E+02  0.47787288934E+02  0.20000081567E+02 0.  0.
         12    1    3    3    0    0 -0.41206772357E+01  0.37430964936E+02  0.21576946124E+02  0.43400711066E+02  0.00000000000E+00 0. -1.
         11    1    4    4    0    0 -0.20418882627E+01 -0.13585002946E+02 -0.14928494277E+02  0.20287472843E+02  0.51100000000E-03 0. -1.
        -11    1    4    4    0    0  0.68402254320E+01 -0.15517508773E+02 -0.84575424850E+01  0.18950245054E+02  0.51100000000E-03 0.  1.
         12    1    4    4    0    0 -0.67765993365E+00 -0.83284532172E+01  0.18090906377E+01  0.85495710367E+01  0.00000000000E+00 0. -1.
</event>
<event>
 8    1  0.6469014E-010  0.9118800E+02  0.7816164E-02  0.1184000E+00
        -11   -1    0    0    0    0  0.00000000000E+00  0.00000000000E+00  0.45593999997E+02  0.45594000000E+02  0.51100000000E-03 0. -1.
         11   -1    0    0    0    0 -0.00000000000E+00 -0.00000000000E+00 -0.45593999997E+02  0.45594000000E+02  0.51100000000E-03 0.  1.
         23    2    1    2    0    0  0.00000000000E+00  0.17763568394E-14 -0.71054273576E-14  0.91188000000E+02  0.91188000000E+02 0.  0.
    9900012    2    3    3    0    0  0.56445383534E+01  0.10726200554E+02 -0.41673843905E+02  0.47787291972E+02  0.20000095415E+02 0.  0.
         12    1    3    3    0    0 -0.56445383534E+01 -0.10726200554E+02  0.41673843905E+02  0.43400708028E+02  0.00000000000E+00 0. -1.
         11    1    4    4    0    0  0.67132803662E+01  0.51943737869E+01 -0.37838913498E+01  0.92934109089E+01  0.51100000000E-03 0. -1.
        -11    1    4    4    0    0 -0.14323661566E+01  0.35287627485E+01 -0.13732615879E+02  0.14250915005E+02  0.51100000000E-03 0.  1.
         12    1    4    4    0    0  0.36362414376E+00  0.20030640182E+01 -0.24157336677E+02  0.24242966058E+02  0.00000000000E+00 0. -1.
</event>
<event>
 8    1  0.6469014E-010  0.9118800E+02  0.7816164E-02  0.1184000E+00
        -11   -1    0    0    0    0  0.00000000000E+00  0.00000000000E+00  0.45593999997E+02  0.45594000000E+02  0.51100000000E-03 0. -1.
         11   -1    0    0    0    0 -0.00000000000E+00 -0.00000000000E+00 -0.45593999997E+02  0.45594000000E+02  0.51100000000E-03 0.  1.
         23    2    1    2    0    0  0.00000000000E+00  0.17763568394E-14  0.00000000000E+00  0.91188000000E+02  0.91188000000E+02 0.  0.
    9900012    2    3    3    0    0 -0.21498219507E+01 -0.12311672148E+02 -0.41562293540E+02  0.47787271322E+02  0.20000001266E+02 0.  0.
         12    1    3    3    0    0  0.21498219507E+01  0.12311672148E+02  0.41562293540E+02  0.43400728678E+02  0.00000000000E+00 0. -1.
         11    1    4    4    0    0  0.10221334163E+01  0.70741378957E+00  0.12619714473E+01  0.17713732485E+01  0.51100000000E-03 0. -1.
        -11    1    4    4    0    0 -0.23655968254E+01 -0.14297965415E+02 -0.41656767630E+02  0.44105715650E+02  0.51100000000E-03 0.  1.
        -12    1    4    4    0    0 -0.80635854158E+00  0.12788794771E+01 -0.11674973568E+01  0.19101824239E+01  0.00000000000E+00 0.  1.
</event>
<event>
 8    1  0.6469014E-010  0.9118800E+02  0.7816164E-02  0.1184000E+00
        -11   -1    0    0    0    0  0.00000000000E+00  0.00000000000E+00  0.45593999997E+02  0.45594000000E+02  0.51100000000E-03 0. -1.
         11   -1    0    0    0    0 -0.00000000000E+00 -0.00000000000E+00 -0.45593999997E+02  0.45594000000E+02  0.51100000000E-03 0.  1.
         23    2    1    2    0    0  0.00000000000E+00  0.88817841970E-15  0.00000000000E+00  0.91188000000E+02  0.91188000000E+02 0.  0.
    9900012    2    3    3    0    0  0.10733058736E+02 -0.35849395435E+01 -0.41899539496E+02  0.47787288584E+02  0.20000079972E+02 0.  0.
         12    1    3    3    0    0 -0.10733058736E+02  0.35849395435E+01  0.41899539496E+02  0.43400711416E+02  0.00000000000E+00 0. -1.
         11    1    4    4    0    0  0.15405522170E+01  0.54983233400E+01 -0.74945561423E+01  0.94219548245E+01  0.51100000000E-03 0. -1.
        -11    1    4    4    0    0  0.86168304793E+01 -0.11079399778E+02 -0.24417872811E+02  0.28164434662E+02  0.51100000000E-03 0.  1.
        -12    1    4    4    0    0  0.57567604011E+00  0.19961368949E+01 -0.99871105426E+01  0.10200899097E+02  0.00000000000E+00 0.  1.
</event>
<event>
 8    1  0.6469014E-010  0.9118800E+02  0.7816164E-02  0.1184000E+00
        -11   -1    0    0    0    0  0.00000000000E+00  0.00000000000E+00  0.45593999997E+02  0.45594000000E+02  0.51100000000E-03 0. -1.
         11   -1    0    0    0    0 -0.00000000000E+00 -0.00000000000E+00 -0.45593999997E+02  0.45594000000E+02  0.51100000000E-03 0.  1.
         23    2    1    2    0    0  0.00000000000E+00  0.35527136788E-14  0.00000000000E+00  0.91188000000E+02  0.91188000000E+02 0.  0.
    9900012    2    3    3    0    0  0.21049888467E+02  0.17905005672E+02 -0.33465455791E+02  0.47787265400E+02  0.19999974264E+02 0.  0.
         12    1    3    3    0    0 -0.21049888467E+02 -0.17905005672E+02  0.33465455791E+02  0.43400734600E+02  0.00000000000E+00 0. -1.
         11    1    4    4    0    0  0.46332214729E+01 -0.26077355702E+01 -0.60867609873E+01  0.80818120244E+01  0.51100000000E-03 0. -1.
        -11    1    4    4    0    0  0.16064526146E+02  0.21503777098E+02 -0.23463091654E+02  0.35651060293E+02  0.51100000000E-03 0.  1.
        -12    1    4    4    0    0  0.35214084793E+00 -0.99103585660E+00 -0.39156031488E+01  0.40543930822E+01  0.00000000000E+00 0.  1.
</event>
<event>
 8    1  0.6469014E-010  0.9118800E+02  0.7816164E-02  0.1184000E+00
        -11   -1    0    0    0    0  0.00000000000E+00  0.00000000000E+00  0.45593999997E+02  0.45594000000E+02  0.51100000000E-03 0. -1.
         11   -1    0    0    0    0 -0.00000000000E+00 -0.00000000000E+00 -0.45593999997E+02  0.45594000000E+02  0.51100000000E-03 0.  1.
         23    2    1    2    0    0  0.00000000000E+00 -0.17763568394E-14  0.35527136788E-14  0.91188000000E+02  0.91188000000E+02 0.  0.
    9900012    2    3    3    0    0 -0.27152895199E+02  0.12645905898E+02  0.31407362246E+02  0.47787296585E+02  0.20000116449E+02 0.  0.
        -12    1    3    3    0    0  0.27152895199E+02 -0.12645905898E+02 -0.31407362246E+02  0.43400703415E+02  0.00000000000E+00 0.  1.
         11    1    4    4    0    0 -0.28798350314E+01  0.53478128887E+01  0.12580175794E+02  0.13969730698E+02  0.51100000000E-03 0.  1.
        -11    1    4    4    0    0 -0.10599100608E+02  0.40951879965E+01  0.14195735930E+01  0.11451056191E+02  0.51100000000E-03 0. -1.
        -12    1    4    4    0    0 -0.13673959560E+02  0.32029050122E+01  0.17407612859E+02  0.22366509697E+02  0.00000000000E+00 0.  1.
</event>
<event>
 8    1  0.6469014E-010  0.9118800E+02  0.7816164E-02  0.1184000E+00
        -11   -1    0    0    0    0  0.00000000000E+00  0.00000000000E+00  0.45593999997E+02  0.45594000000E+02  0.51100000000E-03 0. -1.
         11   -1    0    0    0    0 -0.00000000000E+00 -0.00000000000E+00 -0.45593999997E+02  0.45594000000E+02  0.51100000000E-03 0.  1.
         23    2    1    2    0    0  0.00000000000E+00  0.00000000000E+00  0.00000000000E+00  0.91188000000E+02  0.91188000000E+02 0.  0.
    9900012    2    3    3    0    0 -0.11870698922E+02  0.18355292006E+02 -0.37493908281E+02  0.47787269641E+02  0.19999993602E+02 0.  0.
         12    1    3    3    0    0  0.11870698922E+02 -0.18355292006E+02  0.37493908281E+02  0.43400730359E+02  0.00000000000E+00 0. -1.
         11    1    4    4    0    0 -0.42320858889E+01 -0.30921626136E+01 -0.57475175087E+01  0.77785588880E+01  0.51100000000E-03 0. -1.
        -11    1    4    4    0    0 -0.30921855497E+01  0.11284221015E+01 -0.26289264268E+01  0.42126241622E+01  0.51100000000E-03 0.  1.
         12    1    4    4    0    0 -0.45464274834E+01  0.20319032518E+02 -0.29117464345E+02  0.35796086591E+02  0.00000000000E+00 0. -1.
</event>
<event>
 8    1  0.6469014E-010  0.9118800E+02  0.7816164E-02  0.1184000E+00
        -11   -1    0    0    0    0  0.00000000000E+00  0.00000000000E+00  0.45593999997E+02  0.45594000000E+02  0.51100000000E-03 0.  1.
         11   -1    0    0    0    0 -0.00000000000E+00 -0.00000000000E+00 -0.45593999997E+02  0.45594000000E+02  0.51100000000E-03 0. -1.
         23    2    1    2    0    0  0.00000000000E+00  0.35527136788E-14  0.00000000000E+00  0.91188000000E+02  0.91188000000E+02 0.  0.
    9900012    2    3    3    0    0 -0.37768675537E+02  0.17817979466E+02 -0.11818218440E+02  0.47787268080E+02  0.19999986485E+02 0.  0.
        -12    1    3    3    0    0  0.37768675537E+02 -0.17817979466E+02  0.11818218440E+02  0.43400731920E+02  0.00000000000E+00 0.  1.
         11    1    4    4    0    0 -0.16926321133E+02  0.15275650164E+02 -0.69991969677E+01  0.23850253530E+02  0.51100000000E-03 0. -1.
        -11    1    4    4    0    0 -0.57543969605E+01 -0.40086690517E+00  0.32024328069E+01  0.65976779853E+01  0.51100000000E-03 0.  1.
         12    1    4    4    0    0 -0.15087957444E+02  0.29431962073E+01 -0.80214542788E+01  0.17339336564E+02  0.00000000000E+00 0. -1.
</event>
<event>
 8    1  0.6469014E-010  0.9118800E+02  0.7816164E-02  0.1184000E+00
        -11   -1    0    0    0    0  0.00000000000E+00  0.00000000000E+00  0.45593999997E+02  0.45594000000E+02  0.51100000000E-03 0. -1.
         11   -1    0    0    0    0 -0.00000000000E+00 -0.00000000000E+00 -0.45593999997E+02  0.45594000000E+02  0.51100000000E-03 0.  1.
         23    2    1    2    0    0  0.00000000000E+00  0.35527136788E-14 -0.71054273576E-14  0.91188000000E+02  0.91188000000E+02 0.  0.
    9900012    2    3    3    0    0  0.21842267414E+02 -0.18185261568E+02  0.32799923606E+02  0.47787269907E+02  0.19999994812E+02 0.  0.
        -12    1    3    3    0    0 -0.21842267414E+02  0.18185261568E+02 -0.32799923606E+02  0.43400730093E+02  0.00000000000E+00 0.  1.
         11    1    4    4    0    0  0.31646418956E+01 -0.13262860684E+02  0.10877649348E+02  0.17442525260E+02  0.51100000000E-03 0. -1.
        -11    1    4    4    0    0  0.35002758669E+01 -0.43627599478E+01  0.41365215493E+01  0.69567532869E+01  0.51100000000E-03 0.  1.
         12    1    4    4    0    0  0.15177349651E+02 -0.55964093640E+00  0.17785752708E+02  0.23387991359E+02  0.00000000000E+00 0. -1.
</event>
<event>
 8    1  0.6469014E-010  0.9118800E+02  0.7816164E-02  0.1184000E+00
        -11   -1    0    0    0    0  0.00000000000E+00  0.00000000000E+00  0.45593999997E+02  0.45594000000E+02  0.51100000000E-03 0. -1.
         11   -1    0    0    0    0 -0.00000000000E+00 -0.00000000000E+00 -0.45593999997E+02  0.45594000000E+02  0.51100000000E-03 0.  1.
         23    2    1    2    0    0  0.88817841970E-15  0.00000000000E+00  0.00000000000E+00  0.91188000000E+02  0.91188000000E+02 0.  0.
    9900012    2    3    3    0    0  0.40276664942E+01  0.17287145386E+02  0.39604998880E+02  0.47787269254E+02  0.19999991839E+02 0.  0.
        -12    1    3    3    0    0 -0.40276664942E+01 -0.17287145386E+02 -0.39604998880E+02  0.43400730746E+02  0.00000000000E+00 0.  1.
         11    1    4    4    0    0  0.10228572685E+02  0.12492541346E+02  0.27390406331E+02  0.31794994067E+02  0.51100000000E-03 0. -1.
        -11    1    4    4    0    0 -0.64704344141E+01  0.52822367034E+01  0.74415763633E+01  0.11186849652E+02  0.51100000000E-03 0.  1.
         12    1    4    4    0    0  0.26952822360E+00 -0.48763266348E+00  0.47730161853E+01  0.48054255361E+01  0.00000000000E+00 0. -1.
</event>
<event>
 8    1  0.6469014E-010  0.9118800E+02  0.7816164E-02  0.1184000E+00
        -11   -1    0    0    0    0  0.00000000000E+00  0.00000000000E+00  0.45593999997E+02  0.45594000000E+02  0.51100000000E-03 0. -1.
         11   -1    0    0    0    0 -0.00000000000E+00 -0.00000000000E+00 -0.45593999997E+02  0.45594000000E+02  0.51100000000E-03 0.  1.
         23    2    1    2    0    0  0.66613381478E-15  0.35527136788E-14  0.35527136788E-14  0.91188000000E+02  0.91188000000E+02 0.  0.
    9900012    2    3    3    0    0 -0.80050984687E+00  0.31129758880E+02 -0.30231104943E+02  0.47787280996E+02  0.20000045375E+02 0.  0.
         12    1    3    3    0    0  0.80050984687E+00 -0.31129758880E+02  0.30231104943E+02  0.43400719004E+02  0.00000000000E+00 0. -1.
         11    1    4    4    0    0  0.23208544933E+01  0.76749927420E+01 -0.22601228090E+01  0.83306683130E+01  0.51100000000E-03 0. -1.
        -11    1    4    4    0    0 -0.34715963791E+01  0.23260606833E+02 -0.29584853965E+02  0.37793801027E+02  0.51100000000E-03 0.  1.
         12    1    4    4    0    0  0.35023203899E+00  0.19415930489E+00  0.16138718312E+01  0.16628116563E+01  0.00000000000E+00 0. -1.
</event>
<event>
 8    1  0.6469014E-010  0.9118800E+02  0.7816164E-02  0.1184000E+00
        -11   -1    0    0    0    0  0.00000000000E+00  0.00000000000E+00  0.45593999997E+02  0.45594000000E+02  0.51100000000E-03 0. -1.
         11   -1    0    0    0    0 -0.00000000000E+00 -0.00000000000E+00 -0.45593999997E+02  0.45594000000E+02  0.51100000000E-03 0.  1.
         23    2    1    2    0    0  0.00000000000E+00  0.44408920985E-15  0.00000000000E+00  0.91188000000E+02  0.91188000000E+02 0.  0.
    9900012    2    3    3    0    0  0.13029639679E+02  0.24529599112E+01  0.41325952922E+02  0.47787275267E+02  0.20000019252E+02 0.  0.
        -12    1    3    3    0    0 -0.13029639679E+02 -0.24529599112E+01 -0.41325952922E+02  0.43400724733E+02  0.00000000000E+00 0.  1.
         11    1    4    4    0    0  0.93126161156E+01  0.15750901087E+01  0.96134011733E+01  0.13476765567E+02  0.51100000000E-03 0. -1.
        -11    1    4    4    0    0  0.43636329298E+01  0.53583134364E+00  0.24386437492E+01  0.50274636917E+01  0.51100000000E-03 0.  1.
         12    1    4    4    0    0 -0.64660936666E+00  0.34203845884E+00  0.29273907999E+02  0.29283046008E+02  0.00000000000E+00 0. -1.
</event>
<event>
 8    1  0.6469014E-010  0.9118800E+02  0.7816164E-02  0.1184000E+00
        -11   -1    0    0    0    0  0.00000000000E+00  0.00000000000E+00  0.45593999997E+02  0.45594000000E+02  0.51100000000E-03 0. -1.
         11   -1    0    0    0    0 -0.00000000000E+00 -0.00000000000E+00 -0.45593999997E+02  0.45594000000E+02  0.51100000000E-03 0.  1.
         23    2    1    2    0    0  0.00000000000E+00  0.00000000000E+00 -0.71054273576E-14  0.91188000000E+02  0.91188000000E+02 0.  0.
    9900012    2    3    3    0    0  0.96149046431E+01  0.30361545250E+01 -0.42213244739E+02  0.47787278151E+02  0.20000032404E+02 0.  0.
         12    1    3    3    0    0 -0.96149046431E+01 -0.30361545250E+01  0.42213244739E+02  0.43400721849E+02  0.00000000000E+00 0. -1.
         11    1    4    4    0    0 -0.26035960125E+01 -0.16179158741E+01 -0.20094101271E+00  0.30719279815E+01  0.51100000000E-03 0. -1.
        -11    1    4    4    0    0  0.85224868907E+01  0.15349185528E+01 -0.35854394462E+02  0.36885313612E+02  0.51100000000E-03 0.  1.
         12    1    4    4    0    0  0.36960137649E+01  0.31191518464E+01 -0.61579092637E+01  0.78300365574E+01  0.00000000000E+00 0. -1.
</event>
<event>
 8    1  0.6469014E-010  0.9118800E+02  0.7816164E-02  0.1184000E+00
        -11   -1    0    0    0    0  0.00000000000E+00  0.00000000000E+00  0.45593999997E+02  0.45594000000E+02  0.51100000000E-03 0. -1.
         11   -1    0    0    0    0 -0.00000000000E+00 -0.00000000000E+00 -0.45593999997E+02  0.45594000000E+02  0.51100000000E-03 0.  1.
         23    2    1    2    0    0  0.00000000000E+00  0.35527136788E-14  0.35527136788E-14  0.91188000000E+02  0.91188000000E+02 0.  0.
    9900012    2    3    3    0    0 -0.26815924868E+02 -0.25030642331E+02 -0.23194748323E+02  0.47787271529E+02  0.20000002210E+02 0.  0.
         12    1    3    3    0    0  0.26815924868E+02  0.25030642331E+02  0.23194748323E+02  0.43400728471E+02  0.00000000000E+00 0. -1.
         11    1    4    4    0    0 -0.18767088782E+01 -0.13962555065E+01  0.29873618353E+01  0.37941924897E+01  0.51100000000E-03 0. -1.
        -11    1    4    4    0    0 -0.17178521879E+02 -0.15353277655E+02 -0.12484887089E+02  0.26204907071E+02  0.51100000000E-03 0.  1.
         12    1    4    4    0    0 -0.77606941102E+01 -0.82811091695E+01 -0.13697223070E+02  0.17788171969E+02  0.00000000000E+00 0. -1.
</event>
<event>
 8    1  0.6469014E-010  0.9118800E+02  0.7816164E-02  0.1184000E+00
        -11   -1    0    0    0    0  0.00000000000E+00  0.00000000000E+00  0.45593999997E+02  0.45594000000E+02  0.51100000000E-03 0. -1.
         11   -1    0    0    0    0 -0.00000000000E+00 -0.00000000000E+00 -0.45593999997E+02  0.45594000000E+02  0.51100000000E-03 0.  1.
         23    2    1    2    0    0  0.71054273576E-14  0.88817841970E-15  0.53290705182E-14  0.91188000000E+02  0.91188000000E+02 0.  0.
    9900012    2    3    3    0    0 -0.39984342809E+02 -0.64812448020E+01 -0.15584248153E+02  0.47787274263E+02  0.20000014674E+02 0.  0.
         12    1    3    3    0    0  0.39984342809E+02  0.64812448020E+01  0.15584248153E+02  0.43400725737E+02  0.00000000000E+00 0. -1.
         11    1    4    4    0    0 -0.11464713978E+02 -0.44214761878E+01  0.36243391261E+01  0.12811126127E+02  0.51100000000E-03 0. -1.
        -11    1    4    4    0    0 -0.68857402591E+01 -0.11393840326E+01 -0.18407968214E+01  0.72180432312E+01  0.51100000000E-03 0.  1.
         12    1    4    4    0    0 -0.21633888571E+02 -0.92038458155E+00 -0.17367790458E+02  0.27758104904E+02  0.00000000000E+00 0. -1.
</event>
<event>
 8    1  0.6469014E-010  0.9118800E+02  0.7816164E-02  0.1184000E+00
        -11   -1    0    0    0    0  0.00000000000E+00  0.00000000000E+00  0.45593999997E+02  0.45594000000E+02  0.51100000000E-03 0.  1.
         11   -1    0    0    0    0 -0.00000000000E+00 -0.00000000000E+00 -0.45593999997E+02  0.45594000000E+02  0.51100000000E-03 0. -1.
         23    2    1    2    0    0  0.00000000000E+00  0.00000000000E+00  0.00000000000E+00  0.91188000000E+02  0.91188000000E+02 0.  0.
    9900012    2    3    3    0    0 -0.18329788710E+02  0.37549874998E+02  0.11732393580E+02  0.47787270448E+02  0.19999997280E+02 0.  0.
        -12    1    3    3    0    0  0.18329788710E+02 -0.37549874998E+02 -0.11732393580E+02  0.43400729552E+02  0.00000000000E+00 0.  1.
         11    1    4    4    0    0 -0.85468094171E+01  0.32158257153E+02  0.11432303701E+02  0.35183789200E+02  0.51100000000E-03 0. -1.
        -11    1    4    4    0    0 -0.59857480479E+01  0.39227581058E+01 -0.25896789901E+01  0.76107587258E+01  0.51100000000E-03 0.  1.
         12    1    4    4    0    0 -0.37972312451E+01  0.14688597398E+01  0.28897688691E+01  0.49927225219E+01  0.00000000000E+00 0. -1.
</event>
<event>
 8    1  0.6469014E-010  0.9118800E+02  0.7816164E-02  0.1184000E+00
        -11   -1    0    0    0    0  0.00000000000E+00  0.00000000000E+00  0.45593999997E+02  0.45594000000E+02  0.51100000000E-03 0.  1.
         11   -1    0    0    0    0 -0.00000000000E+00 -0.00000000000E+00 -0.45593999997E+02  0.45594000000E+02  0.51100000000E-03 0. -1.
         23    2    1    2    0    0  0.00000000000E+00  0.71054273576E-14 -0.88817841970E-15  0.91188000000E+02  0.91188000000E+02 0.  0.
    9900012    2    3    3    0    0  0.79674207112E+01 -0.42427915579E+02  0.44738678127E+01  0.47787270670E+02  0.19999998293E+02 0.  0.
        -12    1    3    3    0    0 -0.79674207112E+01  0.42427915579E+02 -0.44738678127E+01  0.43400729330E+02  0.00000000000E+00 0.  1.
         11    1    4    4    0    0 -0.28128380922E+01 -0.21187889691E+02  0.60986150133E+01  0.22226826877E+02  0.51100000000E-03 0. -1.
        -11    1    4    4    0    0 -0.14455954836E+01 -0.38157627093E+01  0.72929193781E+00  0.41450763983E+01  0.51100000000E-03 0.  1.
         12    1    4    4    0    0  0.12225854287E+02 -0.17424263179E+02 -0.23540391385E+01  0.21415367394E+02  0.00000000000E+00 0. -1.
</event>
<event>
 8    1  0.6469014E-010  0.9118800E+02  0.7816164E-02  0.1184000E+00
        -11   -1    0    0    0    0  0.00000000000E+00  0.00000000000E+00  0.45593999997E+02  0.45594000000E+02  0.51100000000E-03 0. -1.
         11   -1    0    0    0    0 -0.00000000000E+00 -0.00000000000E+00 -0.45593999997E+02  0.45594000000E+02  0.51100000000E-03 0.  1.
         23    2    1    2    0    0  0.00000000000E+00 -0.35527136788E-14 -0.71054273576E-14  0.91188000000E+02  0.91188000000E+02 0.  0.
    9900012    2    3    3    0    0 -0.89254440858E+01 -0.29887602362E+02  0.30177657964E+02  0.47787269968E+02  0.19999995094E+02 0.  0.
        -12    1    3    3    0    0  0.89254440858E+01  0.29887602362E+02 -0.30177657964E+02  0.43400730032E+02  0.00000000000E+00 0.  1.
         11    1    4    4    0    0 -0.16963772068E+01 -0.12724648254E+02  0.16178300109E+02  0.20652645436E+02  0.51100000000E-03 0. -1.
        -11    1    4    4    0    0 -0.30799072439E+01  0.17125193983E+01  0.49682979043E+00  0.35588469231E+01  0.51100000000E-03 0.  1.
        -12    1    4    4    0    0 -0.41491596351E+01 -0.18875473506E+02  0.13502528064E+02  0.23575777609E+02  0.00000000000E+00 0.  1.
</event>
<event>
 8    1  0.6469014E-010  0.9118800E+02  0.7816164E-02  0.1184000E+00
        -11   -1    0    0    0    0  0.00000000000E+00  0.00000000000E+00  0.45593999997E+02  0.45594000000E+02  0.51100000000E-03 0. -1.
         11   -1    0    0    0    0 -0.00000000000E+00 -0.00000000000E+00 -0.45593999997E+02  0.45594000000E+02  0.51100000000E-03 0.  1.
         23    2    1    2    0    0  0.17763568394E-14  0.00000000000E+00  0.71054273576E-14  0.91188000000E+02  0.91188000000E+02 0.  0.
    9900012    2    3    3    0    0  0.14593577302E+02 -0.14680930045E+02  0.38146048271E+02  0.47787271848E+02  0.20000003664E+02 0.  0.
        -12    1    3    3    0    0 -0.14593577302E+02  0.14680930045E+02 -0.38146048271E+02  0.43400728152E+02  0.00000000000E+00 0.  1.
         11    1    4    4    0    0  0.41246742362E+01 -0.30184128780E+01  0.24599804305E+02  0.25125169173E+02  0.51100000000E-03 0. -1.
        -11    1    4    4    0    0 -0.11752269473E+01 -0.38454672980E+01  0.41634899848E+01  0.57882144252E+01  0.51100000000E-03 0.  1.
         12    1    4    4    0    0  0.11644130013E+02 -0.78170498692E+01  0.93827539806E+01  0.16873888250E+02  0.00000000000E+00 0. -1.
</event>
<event>
 8    1  0.6469014E-010  0.9118800E+02  0.7816164E-02  0.1184000E+00
        -11   -1    0    0    0    0  0.00000000000E+00  0.00000000000E+00  0.45593999997E+02  0.45594000000E+02  0.51100000000E-03 0. -1.
         11   -1    0    0    0    0 -0.00000000000E+00 -0.00000000000E+00 -0.45593999997E+02  0.45594000000E+02  0.51100000000E-03 0.  1.
         23    2    1    2    0    0  0.48572257327E-16  0.00000000000E+00  0.71054273576E-14  0.91188000000E+02  0.91188000000E+02 0.  0.
    9900012    2    3    3    0    0 -0.39742204134E-01  0.24973721930E+02 -0.35495563236E+02  0.47787269869E+02  0.19999994641E+02 0.  0.
         12    1    3    3    0    0  0.39742204134E-01 -0.24973721930E+02  0.35495563236E+02  0.43400730131E+02  0.00000000000E+00 0. -1.
         11    1    4    4    0    0  0.31973307325E+01  0.59090313468E+01 -0.66052503438E+01  0.94217253004E+01  0.51100000000E-03 0. -1.
        -11    1    4    4    0    0 -0.35498933583E+01  0.20244285392E+02 -0.17744940251E+02  0.27153558490E+02  0.51100000000E-03 0.  1.
        -12    1    4    4    0    0  0.31282042164E+00 -0.11795948091E+01 -0.11145372641E+02  0.11211986079E+02  0.00000000000E+00 0.  1.
</event>
<event>
 8    1  0.6469014E-010  0.9118800E+02  0.7816164E-02  0.1184000E+00
        -11   -1    0    0    0    0  0.00000000000E+00  0.00000000000E+00  0.45593999997E+02  0.45594000000E+02  0.51100000000E-03 0. -1.
         11   -1    0    0    0    0 -0.00000000000E+00 -0.00000000000E+00 -0.45593999997E+02  0.45594000000E+02  0.51100000000E-03 0.  1.
         23    2    1    2    0    0 -0.88817841970E-15  0.00000000000E+00  0.35527136788E-14  0.91188000000E+02  0.91188000000E+02 0.  0.
    9900012    2    3    3    0    0 -0.78863617183E+01  0.28753401575E+02  0.31538397902E+02  0.47787270219E+02  0.19999996237E+02 0.  0.
        -12    1    3    3    0    0  0.78863617183E+01 -0.28753401575E+02 -0.31538397902E+02  0.43400729781E+02  0.00000000000E+00 0.  1.
         11    1    4    4    0    0 -0.41656524344E+01  0.47640736171E+01  0.48034841501E+00  0.63466363134E+01  0.51100000000E-03 0. -1.
        -11    1    4    4    0    0 -0.63092106659E+00  0.17040563847E+01  0.11460547290E+02  0.11603706907E+02  0.51100000000E-03 0.  1.
         12    1    4    4    0    0 -0.30897882173E+01  0.22285271574E+02  0.19597502197E+02  0.29836926998E+02  0.00000000000E+00 0. -1.
</event>
<event>
 8    1  0.6469014E-010  0.9118800E+02  0.7816164E-02  0.1184000E+00
        -11   -1    0    0    0    0  0.00000000000E+00  0.00000000000E+00  0.45593999997E+02  0.45594000000E+02  0.51100000000E-03 0. -1.
         11   -1    0    0    0    0 -0.00000000000E+00 -0.00000000000E+00 -0.45593999997E+02  0.45594000000E+02  0.51100000000E-03 0.  1.
         23    2    1    2    0    0  0.00000000000E+00  0.00000000000E+00  0.00000000000E+00  0.91188000000E+02  0.91188000000E+02 0.  0.
    9900012    2    3    3    0    0  0.70534743831E+01 -0.27801077866E+01  0.42733390642E+02  0.47787272172E+02  0.20000005143E+02 0.  0.
        -12    1    3    3    0    0 -0.70534743831E+01  0.27801077866E+01 -0.42733390642E+02  0.43400727828E+02  0.00000000000E+00 0.  1.
         11    1    4    4    0    0  0.72606467495E+01 -0.29640135375E+01  0.19518376822E+02  0.21034956656E+02  0.51100000000E-03 0. -1.
        -11    1    4    4    0    0 -0.72436247369E+00  0.51271529834E+01  0.31060139954E+01  0.60381886282E+01  0.51100000000E-03 0.  1.
        -12    1    4    4    0    0  0.51719010736E+00 -0.49432472325E+01  0.20108999825E+02  0.20714126889E+02  0.00000000000E+00 0.  1.
</event>
<event>
 8    1  0.6469014E-010  0.9118800E+02  0.7816164E-02  0.1184000E+00
        -11   -1    0    0    0    0  0.00000000000E+00  0.00000000000E+00  0.45593999997E+02  0.45594000000E+02  0.51100000000E-03 0.  1.
         11   -1    0    0    0    0 -0.00000000000E+00 -0.00000000000E+00 -0.45593999997E+02  0.45594000000E+02  0.51100000000E-03 0. -1.
         23    2    1    2    0    0  0.00000000000E+00  0.00000000000E+00  0.17763568394E-14  0.91188000000E+02  0.91188000000E+02 0.  0.
    9900012    2    3    3    0    0 -0.13742573948E+02 -0.40365738849E+02 -0.80853093335E+01  0.47787269147E+02  0.19999991350E+02 0.  0.
        -12    1    3    3    0    0  0.13742573948E+02  0.40365738849E+02  0.80853093335E+01  0.43400730853E+02  0.00000000000E+00 0.  1.
         11    1    4    4    0    0 -0.19276310902E+01 -0.25164638668E+02  0.41426675425E+00  0.25241759410E+02  0.51100000000E-03 0. -1.
        -11    1    4    4    0    0 -0.14271937842E+01  0.83368387680E+00 -0.13915210213E+01  0.21606114686E+01  0.51100000000E-03 0.  1.
         12    1    4    4    0    0 -0.10387749074E+02 -0.16034784058E+02 -0.71080550664E+01  0.20384898269E+02  0.00000000000E+00 0. -1.
</event>
<event>
 8    1  0.6469014E-010  0.9118800E+02  0.7816164E-02  0.1184000E+00
        -11   -1    0    0    0    0  0.00000000000E+00  0.00000000000E+00  0.45593999997E+02  0.45594000000E+02  0.51100000000E-03 0. -1.
         11   -1    0    0    0    0 -0.00000000000E+00 -0.00000000000E+00 -0.45593999997E+02  0.45594000000E+02  0.51100000000E-03 0.  1.
         23    2    1    2    0    0 -0.35527136788E-14  0.17763568394E-14 -0.35527136788E-14  0.91188000000E+02  0.91188000000E+02 0.  0.
    9900012    2    3    3    0    0 -0.30411215996E+02  0.10686676009E+02 -0.29061594914E+02  0.47787269575E+02  0.19999993300E+02 0.  0.
         12    1    3    3    0    0  0.30411215996E+02 -0.10686676009E+02  0.29061594914E+02  0.43400730425E+02  0.00000000000E+00 0. -1.
         11    1    4    4    0    0 -0.23899715511E+02  0.38325700754E+01 -0.17764869081E+02  0.30024582738E+02  0.51100000000E-03 0. -1.
        -11    1    4    4    0    0  0.85340844293E+00  0.47813654443E+01 -0.81549255734E+01  0.94917107441E+01  0.51100000000E-03 0.  1.
        -12    1    4    4    0    0 -0.73649089277E+01  0.20727404893E+01 -0.31418002598E+01  0.82709760925E+01  0.00000000000E+00 0.  1.
</event>
<event>
 8    1  0.6469014E-010  0.9118800E+02  0.7816164E-02  0.1184000E+00
        -11   -1    0    0    0    0  0.00000000000E+00  0.00000000000E+00  0.45593999997E+02  0.45594000000E+02  0.51100000000E-03 0. -1.
         11   -1    0    0    0    0 -0.00000000000E+00 -0.00000000000E+00 -0.45593999997E+02  0.45594000000E+02  0.51100000000E-03 0.  1.
         23    2    1    2    0    0  0.35527136788E-14 -0.35527136788E-14  0.00000000000E+00  0.91188000000E+02  0.91188000000E+02 0.  0.
    9900012    2    3    3    0    0  0.25460313359E+02 -0.30196224883E+02 -0.17988461578E+02  0.47787259183E+02  0.19999945917E+02 0.  0.
         12    1    3    3    0    0 -0.25460313359E+02  0.30196224883E+02  0.17988461578E+02  0.43400740817E+02  0.00000000000E+00 0. -1.
         11    1    4    4    0    0  0.45351790682E+01 -0.68708680088E+01  0.26464344739E+01  0.86475598905E+01  0.51100000000E-03 0. -1.
        -11    1    4    4    0    0  0.22067968274E+02 -0.22454118921E+02 -0.18349912639E+02  0.36440389328E+02  0.51100000000E-03 0.  1.
        -12    1    4    4    0    0 -0.11428339828E+01 -0.87123795327E+00 -0.22849834132E+01  0.26993099641E+01  0.00000000000E+00 0.  1.
</event>
<event>
 8    1  0.6469014E-010  0.9118800E+02  0.7816164E-02  0.1184000E+00
        -11   -1    0    0    0    0  0.00000000000E+00  0.00000000000E+00  0.45593999997E+02  0.45594000000E+02  0.51100000000E-03 0. -1.
         11   -1    0    0    0    0 -0.00000000000E+00 -0.00000000000E+00 -0.45593999997E+02  0.45594000000E+02  0.51100000000E-03 0.  1.
         23    2    1    2    0    0 -0.35527136788E-14  0.00000000000E+00  0.00000000000E+00  0.91188000000E+02  0.91188000000E+02 0.  0.
    9900012    2    3    3    0    0  0.19359044216E+02  0.14445031837E+02 -0.36058145329E+02  0.47787292837E+02  0.20000099359E+02 0.  0.
         12    1    3    3    0    0 -0.19359044216E+02 -0.14445031837E+02  0.36058145329E+02  0.43400707163E+02  0.00000000000E+00 0. -1.
         11    1    4    4    0    0 -0.12184372939E+01  0.73436574660E+01 -0.13978080478E+02  0.15836686160E+02  0.51100000000E-03 0. -1.
        -11    1    4    4    0    0  0.19081854546E+02  0.52466437042E+01 -0.21964887361E+02  0.29565194403E+02  0.51100000000E-03 0.  1.
        -12    1    4    4    0    0  0.14956269640E+01  0.18547306668E+01 -0.11517749019E+00  0.23854122738E+01  0.00000000000E+00 0.  1.
</event>
<event>
 8    1  0.6469014E-010  0.9118800E+02  0.7816164E-02  0.1184000E+00
        -11   -1    0    0    0    0  0.00000000000E+00  0.00000000000E+00  0.45593999997E+02  0.45594000000E+02  0.51100000000E-03 0. -1.
         11   -1    0    0    0    0 -0.00000000000E+00 -0.00000000000E+00 -0.45593999997E+02  0.45594000000E+02  0.51100000000E-03 0.  1.
         23    2    1    2    0    0  0.00000000000E+00  0.88817841970E-15  0.00000000000E+00  0.91188000000E+02  0.91188000000E+02 0.  0.
    9900012    2    3    3    0    0  0.22976350014E+02  0.24876955597E+01 -0.36735854264E+02  0.47787259480E+02  0.19999947274E+02 0.  0.
         12    1    3    3    0    0 -0.22976350014E+02 -0.24876955597E+01  0.36735854264E+02  0.43400740520E+02  0.00000000000E+00 0. -1.
         11    1    4    4    0    0  0.35778510858E+01 -0.50363494183E+01 -0.12131110244E+02  0.13613584020E+02  0.51100000000E-03 0. -1.
        -11    1    4    4    0    0  0.19884701069E+02  0.84752226781E+01 -0.24987021091E+02  0.33039097435E+02  0.51100000000E-03 0.  1.
         12    1    4    4    0    0 -0.48620214037E+00 -0.95117770003E+00  0.38227707079E+00  0.11345780260E+01  0.00000000000E+00 0. -1.
</event>
<event>
 8    1  0.6469014E-010  0.9118800E+02  0.7816164E-02  0.1184000E+00
        -11   -1    0    0    0    0  0.00000000000E+00  0.00000000000E+00  0.45593999997E+02  0.45594000000E+02  0.51100000000E-03 0. -1.
         11   -1    0    0    0    0 -0.00000000000E+00 -0.00000000000E+00 -0.45593999997E+02  0.45594000000E+02  0.51100000000E-03 0.  1.
         23    2    1    2    0    0  0.00000000000E+00  0.00000000000E+00  0.00000000000E+00  0.91188000000E+02  0.91188000000E+02 0.  0.
    9900012    2    3    3    0    0  0.27046558408E+02 -0.34473026133E+01 -0.33767186057E+02  0.47787273379E+02  0.20000010643E+02 0.  0.
         12    1    3    3    0    0 -0.27046558408E+02  0.34473026133E+01  0.33767186057E+02  0.43400726621E+02  0.00000000000E+00 0. -1.
         11    1    4    4    0    0 -0.18375596703E+01 -0.84989526663E+00 -0.91465908068E+01  0.93679811675E+01  0.51100000000E-03 0. -1.
        -11    1    4    4    0    0  0.99762375836E+01 -0.19845470498E+00 -0.53775552146E+01  0.11335025405E+02  0.51100000000E-03 0.  1.
         12    1    4    4    0    0  0.18907880495E+02 -0.23989526417E+01 -0.19243040036E+02  0.27084266806E+02  0.00000000000E+00 0. -1.
</event>
<event>
 8    1  0.6469014E-010  0.9118800E+02  0.7816164E-02  0.1184000E+00
        -11   -1    0    0    0    0  0.00000000000E+00  0.00000000000E+00  0.45593999997E+02  0.45594000000E+02  0.51100000000E-03 0. -1.
         11   -1    0    0    0    0 -0.00000000000E+00 -0.00000000000E+00 -0.45593999997E+02  0.45594000000E+02  0.51100000000E-03 0.  1.
         23    2    1    2    0    0  0.00000000000E+00  0.17763568394E-14  0.00000000000E+00  0.91188000000E+02  0.91188000000E+02 0.  0.
    9900012    2    3    3    0    0 -0.30676022107E+02 -0.13946072713E+02 -0.27351641011E+02  0.47787267951E+02  0.19999985895E+02 0.  0.
         12    1    3    3    0    0  0.30676022107E+02  0.13946072713E+02  0.27351641011E+02  0.43400732049E+02  0.00000000000E+00 0. -1.
         11    1    4    4    0    0  0.13163977661E+01 -0.18607463391E+00 -0.13978833527E+01  0.19291461782E+01  0.51100000000E-03 0. -1.
        -11    1    4    4    0    0 -0.19350005527E+02 -0.62987077524E+00 -0.10897170127E+02  0.22216385128E+02  0.51100000000E-03 0.  1.
        -12    1    4    4    0    0 -0.12642414345E+02 -0.13130127304E+02 -0.15056587532E+02  0.23641736645E+02  0.00000000000E+00 0.  1.
</event>
<event>
 8    1  0.6469014E-010  0.9118800E+02  0.7816164E-02  0.1184000E+00
        -11   -1    0    0    0    0  0.00000000000E+00  0.00000000000E+00  0.45593999997E+02  0.45594000000E+02  0.51100000000E-03 0. -1.
         11   -1    0    0    0    0 -0.00000000000E+00 -0.00000000000E+00 -0.45593999997E+02  0.45594000000E+02  0.51100000000E-03 0.  1.
         23    2    1    2    0    0  0.00000000000E+00 -0.88817841970E-15  0.00000000000E+00  0.91188000000E+02  0.91188000000E+02 0.  0.
    9900012    2    3    3    0    0 -0.17607351590E+02 -0.70387168376E+01  0.39039222698E+02  0.47787271048E+02  0.20000000015E+02 0.  0.
        -12    1    3    3    0    0  0.17607351590E+02  0.70387168376E+01 -0.39039222698E+02  0.43400728952E+02  0.00000000000E+00 0.  1.
         11    1    4    4    0    0 -0.10205983572E+02 -0.12351775286E+02  0.15389426441E+02  0.22216275561E+02  0.51100000000E-03 0. -1.
        -11    1    4    4    0    0 -0.35907016314E+01  0.13785644554E+01  0.13504329595E+02  0.14041385125E+02  0.51100000000E-03 0.  1.
         12    1    4    4    0    0 -0.38106663861E+01  0.39344939926E+01  0.10145466662E+02  0.11529610361E+02  0.00000000000E+00 0. -1.
</event>
<event>
 8    1  0.6469014E-010  0.9118800E+02  0.7816164E-02  0.1184000E+00
        -11   -1    0    0    0    0  0.00000000000E+00  0.00000000000E+00  0.45593999997E+02  0.45594000000E+02  0.51100000000E-03 0.  1.
         11   -1    0    0    0    0 -0.00000000000E+00 -0.00000000000E+00 -0.45593999997E+02  0.45594000000E+02  0.51100000000E-03 0. -1.
         23    2    1    2    0    0 -0.35527136788E-14  0.00000000000E+00  0.35527136788E-14  0.91188000000E+02  0.91188000000E+02 0.  0.
    9900012    2    3    3    0    0  0.17410343331E+02 -0.31060754887E+02 -0.24813959791E+02  0.47787272477E+02  0.20000006530E+02 0.  0.
         12    1    3    3    0    0 -0.17410343331E+02  0.31060754887E+02  0.24813959791E+02  0.43400727523E+02  0.00000000000E+00 0. -1.
         11    1    4    4    0    0  0.44754418271E+00  0.43029450054E+00 -0.54530539594E+01  0.54882826912E+01  0.51100000000E-03 0. -1.
        -11    1    4    4    0    0  0.10441400379E+02 -0.19479916214E+02 -0.53793897004E+01  0.22747039619E+02  0.51100000000E-03 0.  1.
        -12    1    4    4    0    0  0.65213987692E+01 -0.12011133173E+02 -0.13981516131E+02  0.19551950167E+02  0.00000000000E+00 0.  1.
</event>
<event>
 8    1  0.6469014E-010  0.9118800E+02  0.7816164E-02  0.1184000E+00
        -11   -1    0    0    0    0  0.00000000000E+00  0.00000000000E+00  0.45593999997E+02  0.45594000000E+02  0.51100000000E-03 0. -1.
         11   -1    0    0    0    0 -0.00000000000E+00 -0.00000000000E+00 -0.45593999997E+02  0.45594000000E+02  0.51100000000E-03 0.  1.
         23    2    1    2    0    0  0.22204460493E-15  0.71054273576E-14 -0.35527136788E-14  0.91188000000E+02  0.91188000000E+02 0.  0.
    9900012    2    3    3    0    0 -0.13171862117E+01  0.36474496020E+02  0.23484028507E+02  0.47787269196E+02  0.19999991572E+02 0.  0.
        -12    1    3    3    0    0  0.13171862117E+01 -0.36474496020E+02 -0.23484028507E+02  0.43400730804E+02  0.00000000000E+00 0.  1.
         11    1    4    4    0    0 -0.15917896201E+01  0.33619279942E+02  0.21745043956E+02  0.40070396990E+02  0.51100000000E-03 0. -1.
        -11    1    4    4    0    0  0.12748511591E+01  0.33272101001E+01  0.39041106901E+01  0.52856081078E+01  0.51100000000E-03 0.  1.
         12    1    4    4    0    0 -0.10002477507E+01 -0.47199402215E+00 -0.21651261389E+01  0.24312640986E+01  0.00000000000E+00 0. -1.
</event>
<event>
 8    1  0.6469014E-010  0.9118800E+02  0.7816164E-02  0.1184000E+00
        -11   -1    0    0    0    0  0.00000000000E+00  0.00000000000E+00  0.45593999997E+02  0.45594000000E+02  0.51100000000E-03 0.  1.
         11   -1    0    0    0    0 -0.00000000000E+00 -0.00000000000E+00 -0.45593999997E+02  0.45594000000E+02  0.51100000000E-03 0. -1.
         23    2    1    2    0    0  0.00000000000E+00  0.00000000000E+00  0.00000000000E+00  0.91188000000E+02  0.91188000000E+02 0.  0.
    9900012    2    3    3    0    0 -0.66103623840E+01 -0.40083178665E+02  0.15273021536E+02  0.47787270864E+02  0.19999999176E+02 0.  0.
        -12    1    3    3    0    0  0.66103623840E+01  0.40083178665E+02 -0.15273021536E+02  0.43400729136E+02  0.00000000000E+00 0.  1.
         11    1    4    4    0    0 -0.25057832964E+01 -0.32172637578E+02  0.16960561043E+02  0.36455701746E+02  0.51100000000E-03 0. -1.
        -11    1    4    4    0    0 -0.55898049752E+01 -0.78578807923E+01 -0.10027881890E+01  0.96952459804E+01  0.51100000000E-03 0.  1.
        -12    1    4    4    0    0  0.14852258876E+01 -0.52660294888E-01 -0.68475131757E+00  0.16363231376E+01  0.00000000000E+00 0.  1.
</event>
<event>
 8    1  0.6469014E-010  0.9118800E+02  0.7816164E-02  0.1184000E+00
        -11   -1    0    0    0    0  0.00000000000E+00  0.00000000000E+00  0.45593999997E+02  0.45594000000E+02  0.51100000000E-03 0. -1.
         11   -1    0    0    0    0 -0.00000000000E+00 -0.00000000000E+00 -0.45593999997E+02  0.45594000000E+02  0.51100000000E-03 0.  1.
         23    2    1    2    0    0  0.17763568394E-14  0.35527136788E-14  0.00000000000E+00  0.91188000000E+02  0.91188000000E+02 0.  0.
    9900012    2    3    3    0    0  0.12560570710E+02 -0.26326231253E+02 -0.32136973884E+02  0.47787268682E+02  0.19999989227E+02 0.  0.
         12    1    3    3    0    0 -0.12560570710E+02  0.26326231253E+02  0.32136973884E+02  0.43400731318E+02  0.00000000000E+00 0. -1.
         11    1    4    4    0    0 -0.16738119111E+01 -0.54491682231E+01 -0.14214712817E+02  0.15315127860E+02  0.51100000000E-03 0. -1.
        -11    1    4    4    0    0  0.11154197080E+01 -0.73856054538E+01 -0.88512742278E+01  0.11581726329E+02  0.51100000000E-03 0.  1.
         12    1    4    4    0    0  0.13118962913E+02 -0.13491457576E+02 -0.90709868400E+01  0.20890414493E+02  0.00000000000E+00 0. -1.
</event>
<event>
 8    1  0.6469014E-010  0.9118800E+02  0.7816164E-02  0.1184000E+00
        -11   -1    0    0    0    0  0.00000000000E+00  0.00000000000E+00  0.45593999997E+02  0.45594000000E+02  0.51100000000E-03 0. -1.
         11   -1    0    0    0    0 -0.00000000000E+00 -0.00000000000E+00 -0.45593999997E+02  0.45594000000E+02  0.51100000000E-03 0.  1.
         23    2    1    2    0    0  0.00000000000E+00 -0.26645352591E-14  0.71054273576E-14  0.91188000000E+02  0.91188000000E+02 0.  0.
    9900012    2    3    3    0    0  0.42198621886E+01  0.53017262881E+01  0.42868492843E+02  0.47787271698E+02  0.20000002980E+02 0.  0.
        -12    1    3    3    0    0 -0.42198621886E+01 -0.53017262881E+01 -0.42868492843E+02  0.43400728302E+02  0.00000000000E+00 0.  1.
         11    1    4    4    0    0  0.65142168254E+01  0.59443083916E+01  0.21666770970E+02  0.23392708001E+02  0.51100000000E-03 0. -1.
        -11    1    4    4    0    0 -0.56547608245E+01 -0.41956043870E+01  0.14253526743E+02  0.15897875362E+02  0.51100000000E-03 0.  1.
        -12    1    4    4    0    0  0.33604061877E+01  0.35530222836E+01  0.69481951297E+01  0.84966883345E+01  0.00000000000E+00 0.  1.
</event>
<event>
 8    1  0.1202701E-009  0.9118800E+02  0.7816164E-02  0.1184000E+00
        -11   -1    0    0    0    0  0.00000000000E+00  0.00000000000E+00  0.45593999997E+02  0.45594000000E+02  0.51100000000E-03 0. -1.
         11   -1    0    0    0    0 -0.00000000000E+00 -0.00000000000E+00 -0.45593999997E+02  0.45594000000E+02  0.51100000000E-03 0.  1.
         23    2    1    2    0    0  0.35527136788E-14  0.00000000000E+00  0.00000000000E+00  0.91188000000E+02  0.91188000000E+02 0.  0.
    9900012    2    3    3    0    0 -0.26880947276E+02  0.16163174340E+02 -0.29996491983E+02  0.47787273480E+02  0.20000011104E+02 0.  0.
         12    1    3    3    0    0  0.26880947276E+02 -0.16163174340E+02  0.29996491983E+02  0.43400726520E+02  0.00000000000E+00 0. -1.
         11    1    4    4    0    0 -0.71054607061E+01 -0.32881178936E+01 -0.73924769775E+01  0.10767915641E+02  0.51100000000E-03 0. -1.
        -11    1    4    4    0    0 -0.10421833741E+02  0.41770539254E+01 -0.10727840690E+02  0.15528971767E+02  0.51100000000E-03 0.  1.
         12    1    4    4    0    0 -0.93536528291E+01  0.15274238308E+02 -0.11876174316E+02  0.21490386072E+02  0.00000000000E+00 0. -1.
</event>
<event>
 8    1  0.6469014E-010  0.9118800E+02  0.7816164E-02  0.1184000E+00
        -11   -1    0    0    0    0  0.00000000000E+00  0.00000000000E+00  0.45593999997E+02  0.45594000000E+02  0.51100000000E-03 0. -1.
         11   -1    0    0    0    0 -0.00000000000E+00 -0.00000000000E+00 -0.45593999997E+02  0.45594000000E+02  0.51100000000E-03 0.  1.
         23    2    1    2    0    0  0.00000000000E+00  0.00000000000E+00  0.00000000000E+00  0.91188000000E+02  0.91188000000E+02 0.  0.
    9900012    2    3    3    0    0  0.35979668555E+02  0.11575155264E+02  0.21333128571E+02  0.47787272548E+02  0.20000006857E+02 0.  0.
        -12    1    3    3    0    0 -0.35979668555E+02 -0.11575155264E+02 -0.21333128571E+02  0.43400727452E+02  0.00000000000E+00 0.  1.
         11    1    4    4    0    0  0.69026175169E+01  0.69721881376E+01  0.89805838023E+01  0.13300692527E+02  0.51100000000E-03 0. -1.
        -11    1    4    4    0    0  0.30068806644E+02  0.57408832464E+01  0.12255380465E+02  0.32974008310E+02  0.51100000000E-03 0.  1.
        -12    1    4    4    0    0 -0.99175560636E+00 -0.11379161198E+01  0.97164303832E-01  0.15125717108E+01  0.00000000000E+00 0.  1.
</event>
<event>
 8    1  0.6469014E-010  0.9118800E+02  0.7816164E-02  0.1184000E+00
        -11   -1    0    0    0    0  0.00000000000E+00  0.00000000000E+00  0.45593999997E+02  0.45594000000E+02  0.51100000000E-03 0. -1.
         11   -1    0    0    0    0 -0.00000000000E+00 -0.00000000000E+00 -0.45593999997E+02  0.45594000000E+02  0.51100000000E-03 0.  1.
         23    2    1    2    0    0  0.00000000000E+00  0.00000000000E+00  0.00000000000E+00  0.91188000000E+02  0.91188000000E+02 0.  0.
    9900012    2    3    3    0    0 -0.10512779702E+02 -0.10788775275E+02  0.40702670812E+02  0.47787267054E+02  0.19999981806E+02 0.  0.
        -12    1    3    3    0    0  0.10512779702E+02  0.10788775275E+02 -0.40702670812E+02  0.43400732946E+02  0.00000000000E+00 0.  1.
         11    1    4    4    0    0 -0.31897255817E+01 -0.73122509650E+01  0.13769573542E+02  0.15913658261E+02  0.51100000000E-03 0. -1.
        -11    1    4    4    0    0 -0.10915994770E+02 -0.50323195935E+01  0.24428800376E+02  0.27225897054E+02  0.51100000000E-03 0.  1.
        -12    1    4    4    0    0  0.35929406494E+01  0.15557952834E+01  0.25042968942E+01  0.46477117390E+01  0.00000000000E+00 0.  1.
</event>
<event>
 8    1  0.6469014E-010  0.9118800E+02  0.7816164E-02  0.1184000E+00
        -11   -1    0    0    0    0  0.00000000000E+00  0.00000000000E+00  0.45593999997E+02  0.45594000000E+02  0.51100000000E-03 0. -1.
         11   -1    0    0    0    0 -0.00000000000E+00 -0.00000000000E+00 -0.45593999997E+02  0.45594000000E+02  0.51100000000E-03 0.  1.
         23    2    1    2    0    0  0.17763568394E-14  0.00000000000E+00  0.00000000000E+00  0.91188000000E+02  0.91188000000E+02 0.  0.
    9900012    2    3    3    0    0  0.10320128734E+02 -0.33959796025E+02  0.24977001803E+02  0.47787269335E+02  0.19999992208E+02 0.  0.
        -12    1    3    3    0    0 -0.10320128734E+02  0.33959796025E+02 -0.24977001803E+02  0.43400730665E+02  0.00000000000E+00 0.  1.
         11    1    4    4    0    0  0.12829646616E+02 -0.33694287815E+02  0.22816235785E+02  0.42667147541E+02  0.51100000000E-03 0. -1.
        -11    1    4    4    0    0  0.91388242561E+00 -0.29787031187E+00 -0.17319755625E+00  0.97668084098E+00  0.51100000000E-03 0.  1.
         12    1    4    4    0    0 -0.34234003071E+01  0.32362101630E-01  0.23339635737E+01  0.41434409530E+01  0.00000000000E+00 0. -1.
</event>
<event>
 8    1  0.6469014E-010  0.9118800E+02  0.7816164E-02  0.1184000E+00
        -11   -1    0    0    0    0  0.00000000000E+00  0.00000000000E+00  0.45593999997E+02  0.45594000000E+02  0.51100000000E-03 0. -1.
         11   -1    0    0    0    0 -0.00000000000E+00 -0.00000000000E+00 -0.45593999997E+02  0.45594000000E+02  0.51100000000E-03 0.  1.
         23    2    1    2    0    0  0.00000000000E+00 -0.88817841970E-15  0.00000000000E+00  0.91188000000E+02  0.91188000000E+02 0.  0.
    9900012    2    3    3    0    0  0.41894037764E+02  0.45089118397E+01  0.10401037319E+02  0.47787282685E+02  0.20000053074E+02 0.  0.
        -12    1    3    3    0    0 -0.41894037764E+02 -0.45089118397E+01 -0.10401037319E+02  0.43400717315E+02  0.00000000000E+00 0.  1.
         11    1    4    4    0    0  0.16003399010E+02  0.63311205502E+01  0.80747334451E+01  0.19010344231E+02  0.51100000000E-03 0. -1.
        -11    1    4    4    0    0  0.45678218276E+01  0.45633237904E+00 -0.43431561990E+01  0.63195127596E+01  0.51100000000E-03 0.  1.
        -12    1    4    4    0    0  0.21322816926E+02 -0.22785410895E+01  0.66694600730E+01  0.22457425695E+02  0.00000000000E+00 0.  1.
</event>
<event>
 8    1  0.6469014E-010  0.9118800E+02  0.7816164E-02  0.1184000E+00
        -11   -1    0    0    0    0  0.00000000000E+00  0.00000000000E+00  0.45593999997E+02  0.45594000000E+02  0.51100000000E-03 0. -1.
         11   -1    0    0    0    0 -0.00000000000E+00 -0.00000000000E+00 -0.45593999997E+02  0.45594000000E+02  0.51100000000E-03 0.  1.
         23    2    1    2    0    0  0.00000000000E+00  0.00000000000E+00  0.00000000000E+00  0.91188000000E+02  0.91188000000E+02 0.  0.
    9900012    2    3    3    0    0  0.13397476280E+02  0.14098762696E+02 -0.38798913857E+02  0.47787271933E+02  0.20000004051E+02 0.  0.
         12    1    3    3    0    0 -0.13397476280E+02 -0.14098762696E+02  0.38798913857E+02  0.43400728067E+02  0.00000000000E+00 0. -1.
         11    1    4    4    0    0  0.52350973984E+00 -0.47748778445E+01 -0.48645312696E+01  0.68364600205E+01  0.51100000000E-03 0. -1.
        -11    1    4    4    0    0  0.46620873196E+01  0.84663353969E+01 -0.14237263090E+02  0.17207950308E+02  0.51100000000E-03 0.  1.
         12    1    4    4    0    0  0.82118792206E+01  0.10407305144E+02 -0.19697119497E+02  0.23742861605E+02  0.00000000000E+00 0. -1.
</event>
<event>
 8    1  0.6469014E-010  0.9118800E+02  0.7816164E-02  0.1184000E+00
        -11   -1    0    0    0    0  0.00000000000E+00  0.00000000000E+00  0.45593999997E+02  0.45594000000E+02  0.51100000000E-03 0.  1.
         11   -1    0    0    0    0 -0.00000000000E+00 -0.00000000000E+00 -0.45593999997E+02  0.45594000000E+02  0.51100000000E-03 0. -1.
         23    2    1    2    0    0  0.00000000000E+00  0.00000000000E+00  0.00000000000E+00  0.91188000000E+02  0.91188000000E+02 0.  0.
    9900012    2    3    3    0    0  0.24894928076E+02 -0.28352112551E+02 -0.21448175064E+02  0.47787263329E+02  0.19999964821E+02 0.  0.
         12    1    3    3    0    0 -0.24894928076E+02  0.28352112551E+02  0.21448175064E+02  0.43400736671E+02  0.00000000000E+00 0. -1.
         11    1    4    4    0    0  0.20648647818E+02 -0.10278158872E+02 -0.10902824261E+02  0.25512326112E+02  0.51100000000E-03 0.  1.
        -11    1    4    4    0    0  0.52686202975E+01 -0.15550094046E+02 -0.10614961051E+02  0.19550989311E+02  0.51100000000E-03 0. -1.
         12    1    4    4    0    0 -0.10223400396E+01 -0.25238596337E+01  0.69610248061E-01  0.27239479059E+01  0.00000000000E+00 0. -1.
</event>
<event>
 8    1  0.6469014E-010  0.9118800E+02  0.7816164E-02  0.1184000E+00
        -11   -1    0    0    0    0  0.00000000000E+00  0.00000000000E+00  0.45593999997E+02  0.45594000000E+02  0.51100000000E-03 0. -1.
         11   -1    0    0    0    0 -0.00000000000E+00 -0.00000000000E+00 -0.45593999997E+02  0.45594000000E+02  0.51100000000E-03 0.  1.
         23    2    1    2    0    0  0.71054273576E-14 -0.35527136788E-14  0.35527136788E-14  0.91188000000E+02  0.91188000000E+02 0.  0.
    9900012    2    3    3    0    0  0.27771560223E+02  0.24097344801E+02  0.23058222638E+02  0.47787271724E+02  0.20000003097E+02 0.  0.
        -12    1    3    3    0    0 -0.27771560223E+02 -0.24097344801E+02 -0.23058222638E+02  0.43400728276E+02  0.00000000000E+00 0.  1.
         11    1    4    4    0    0 -0.27439523151E+01  0.27945422101E+01  0.17389828079E+01  0.42851840029E+01  0.51100000000E-03 0. -1.
        -11    1    4    4    0    0  0.19818498479E+02  0.97880416883E+01  0.14001646514E+02  0.26165334843E+02  0.51100000000E-03 0.  1.
         12    1    4    4    0    0  0.10697014059E+02  0.11514760902E+02  0.73175933162E+01  0.17336752878E+02  0.00000000000E+00 0. -1.
</event>
<event>
 8    1  0.6469014E-010  0.9118800E+02  0.7816164E-02  0.1184000E+00
        -11   -1    0    0    0    0  0.00000000000E+00  0.00000000000E+00  0.45593999997E+02  0.45594000000E+02  0.51100000000E-03 0. -1.
         11   -1    0    0    0    0 -0.00000000000E+00 -0.00000000000E+00 -0.45593999997E+02  0.45594000000E+02  0.51100000000E-03 0.  1.
         23    2    1    2    0    0  0.00000000000E+00  0.88817841970E-15  0.00000000000E+00  0.91188000000E+02  0.91188000000E+02 0.  0.
    9900012    2    3    3    0    0 -0.37531944941E+02 -0.28871994318E+01 -0.21601856702E+02  0.47787273917E+02  0.20000013096E+02 0.  0.
         12    1    3    3    0    0  0.37531944941E+02  0.28871994318E+01  0.21601856702E+02  0.43400726083E+02  0.00000000000E+00 0. -1.
         11    1    4    4    0    0 -0.15895476352E+02 -0.95981823233E+01 -0.83049291075E+01  0.20341168111E+02  0.51100000000E-03 0. -1.
        -11    1    4    4    0    0 -0.15861854038E+01  0.37921626216E+00 -0.42573026016E+01  0.45589927409E+01  0.51100000000E-03 0.  1.
         12    1    4    4    0    0 -0.20050283185E+02  0.63317666294E+01 -0.90396249927E+01  0.22887113065E+02  0.00000000000E+00 0. -1.
</event>
<event>
 8    1  0.6469014E-010  0.9118800E+02  0.7816164E-02  0.1184000E+00
        -11   -1    0    0    0    0  0.00000000000E+00  0.00000000000E+00  0.45593999997E+02  0.45594000000E+02  0.51100000000E-03 0. -1.
         11   -1    0    0    0    0 -0.00000000000E+00 -0.00000000000E+00 -0.45593999997E+02  0.45594000000E+02  0.51100000000E-03 0.  1.
         23    2    1    2    0    0  0.00000000000E+00  0.00000000000E+00  0.00000000000E+00  0.91188000000E+02  0.91188000000E+02 0.  0.
    9900012    2    3    3    0    0  0.18351385842E+02 -0.10308996198E+02 -0.37954921568E+02  0.47787253046E+02  0.19999917939E+02 0.  0.
         12    1    3    3    0    0 -0.18351385842E+02  0.10308996198E+02  0.37954921568E+02  0.43400746954E+02  0.00000000000E+00 0. -1.
         11    1    4    4    0    0 -0.20082385823E+00 -0.42564592961E+01 -0.17507463955E+01  0.46068307071E+01  0.51100000000E-03 0. -1.
        -11    1    4    4    0    0  0.13188544216E+02  0.24609065036E+01 -0.19219422285E+02  0.23438855616E+02  0.51100000000E-03 0.  1.
        -12    1    4    4    0    0  0.53636654844E+01 -0.85134434051E+01 -0.16984752888E+02  0.19741566723E+02  0.00000000000E+00 0.  1.
</event>
<event>
 8    1  0.6469014E-010  0.9118800E+02  0.7816164E-02  0.1184000E+00
        -11   -1    0    0    0    0  0.00000000000E+00  0.00000000000E+00  0.45593999997E+02  0.45594000000E+02  0.51100000000E-03 0.  1.
         11   -1    0    0    0    0 -0.00000000000E+00 -0.00000000000E+00 -0.45593999997E+02  0.45594000000E+02  0.51100000000E-03 0. -1.
         23    2    1    2    0    0  0.17763568394E-14  0.00000000000E+00 -0.88817841970E-15  0.91188000000E+02  0.91188000000E+02 0.  0.
    9900012    2    3    3    0    0 -0.73870685600E+01 -0.42055848527E+02  0.77691859058E+01  0.47787269282E+02  0.19999991965E+02 0.  0.
        -12    1    3    3    0    0  0.73870685600E+01  0.42055848527E+02 -0.77691859058E+01  0.43400730718E+02  0.00000000000E+00 0.  1.
         11    1    4    4    0    0 -0.48927202324E+01 -0.49606584042E+01 -0.94329619847E+00  0.70311201849E+01  0.51100000000E-03 0. -1.
        -11    1    4    4    0    0  0.29644016302E+01 -0.18697001146E+02  0.10207340490E+02  0.21507099503E+02  0.51100000000E-03 0.  1.
        -12    1    4    4    0    0 -0.54587499578E+01 -0.18398188976E+02 -0.14948583854E+01  0.19249049594E+02  0.00000000000E+00 0.  1.
</event>
<event>
 8    1  0.6469014E-010  0.9118800E+02  0.7816164E-02  0.1184000E+00
        -11   -1    0    0    0    0  0.00000000000E+00  0.00000000000E+00  0.45593999997E+02  0.45594000000E+02  0.51100000000E-03 0.  1.
         11   -1    0    0    0    0 -0.00000000000E+00 -0.00000000000E+00 -0.45593999997E+02  0.45594000000E+02  0.51100000000E-03 0. -1.
         23    2    1    2    0    0  0.71054273576E-14 -0.88817841970E-15  0.17763568394E-14  0.91188000000E+02  0.91188000000E+02 0.  0.
    9900012    2    3    3    0    0 -0.40954825088E+02  0.66285815400E+01 -0.12743120156E+02  0.47787275322E+02  0.20000019504E+02 0.  0.
        -12    1    3    3    0    0  0.40954825088E+02 -0.66285815400E+01  0.12743120156E+02  0.43400724678E+02  0.00000000000E+00 0.  1.
         11    1    4    4    0    0 -0.18520964110E+02  0.33278954965E+01 -0.28500332317E+01  0.19032175117E+02  0.51100000000E-03 0. -1.
        -11    1    4    4    0    0 -0.61466604119E+01 -0.54011586379E+00 -0.10310672809E+02  0.12015953287E+02  0.51100000000E-03 0.  1.
        -12    1    4    4    0    0 -0.16287200567E+02  0.38408019073E+01  0.41758588412E+00  0.16739146918E+02  0.00000000000E+00 0.  1.
</event>
<event>
 8    1  0.6469014E-010  0.9118800E+02  0.7816164E-02  0.1184000E+00
        -11   -1    0    0    0    0  0.00000000000E+00  0.00000000000E+00  0.45593999997E+02  0.45594000000E+02  0.51100000000E-03 0. -1.
         11   -1    0    0    0    0 -0.00000000000E+00 -0.00000000000E+00 -0.45593999997E+02  0.45594000000E+02  0.51100000000E-03 0.  1.
         23    2    1    2    0    0  0.00000000000E+00  0.00000000000E+00  0.00000000000E+00  0.91188000000E+02  0.91188000000E+02 0.  0.
    9900012    2    3    3    0    0  0.21263796362E+02 -0.88061444634E+01  0.36795727107E+02  0.47787277086E+02  0.20000027548E+02 0.  0.
        -12    1    3    3    0    0 -0.21263796362E+02  0.88061444634E+01 -0.36795727107E+02  0.43400722914E+02  0.00000000000E+00 0.  1.
         11    1    4    4    0    0  0.23614977252E+02 -0.78569928540E+01  0.27962821492E+02  0.37434193906E+02  0.51100000000E-03 0. -1.
        -11    1    4    4    0    0 -0.21086944160E+01  0.19471190081E+00  0.84496479693E+00  0.22800154897E+01  0.51100000000E-03 0.  1.
         12    1    4    4    0    0 -0.24248647373E+00 -0.11438635102E+01  0.79879408185E+01  0.80730676908E+01  0.00000000000E+00 0. -1.
</event>
<event>
 8    1  0.6469014E-010  0.9118800E+02  0.7816164E-02  0.1184000E+00
        -11   -1    0    0    0    0  0.00000000000E+00  0.00000000000E+00  0.45593999997E+02  0.45594000000E+02  0.51100000000E-03 0. -1.
         11   -1    0    0    0    0 -0.00000000000E+00 -0.00000000000E+00 -0.45593999997E+02  0.45594000000E+02  0.51100000000E-03 0.  1.
         23    2    1    2    0    0  0.17763568394E-14  0.00000000000E+00  0.35527136788E-14  0.91188000000E+02  0.91188000000E+02 0.  0.
    9900012    2    3    3    0    0 -0.75071879745E+01 -0.34450053236E+02 -0.25307348504E+02  0.47787240473E+02  0.19999860610E+02 0.  0.
         12    1    3    3    0    0  0.75071879745E+01  0.34450053236E+02  0.25307348504E+02  0.43400759527E+02  0.00000000000E+00 0. -1.
         11    1    4    4    0    0  0.14576925329E+01 -0.23333232945E+02 -0.67410012050E+01  0.24331167762E+02  0.51100000000E-03 0. -1.
        -11    1    4    4    0    0 -0.48826964235E+01 -0.62290157075E+01 -0.92925144155E+01  0.12206235516E+02  0.51100000000E-03 0.  1.
         12    1    4    4    0    0 -0.40821840840E+01 -0.48878045837E+01 -0.92738328837E+01  0.11249837194E+02  0.00000000000E+00 0. -1.
</event>
<event>
 8    1  0.6469014E-010  0.9118800E+02  0.7816164E-02  0.1184000E+00
        -11   -1    0    0    0    0  0.00000000000E+00  0.00000000000E+00  0.45593999997E+02  0.45594000000E+02  0.51100000000E-03 0. -1.
         11   -1    0    0    0    0 -0.00000000000E+00 -0.00000000000E+00 -0.45593999997E+02  0.45594000000E+02  0.51100000000E-03 0.  1.
         23    2    1    2    0    0  0.00000000000E+00 -0.35527136788E-14  0.00000000000E+00  0.91188000000E+02  0.91188000000E+02 0.  0.
    9900012    2    3    3    0    0 -0.25104857962E+02  0.21109695015E+02 -0.28420933661E+02  0.47787278957E+02  0.20000036076E+02 0.  0.
         12    1    3    3    0    0  0.25104857962E+02 -0.21109695015E+02  0.28420933661E+02  0.43400721043E+02  0.00000000000E+00 0. -1.
         11    1    4    4    0    0 -0.35580091518E+01  0.66060551627E+01 -0.17159507213E+02  0.18728269594E+02  0.51100000000E-03 0. -1.
        -11    1    4    4    0    0 -0.14939049366E+02  0.13106054431E+02 -0.69849515450E+01  0.21064980585E+02  0.51100000000E-03 0.  1.
        -12    1    4    4    0    0 -0.66077994440E+01  0.13975854205E+01 -0.42764749033E+01  0.79940287777E+01  0.00000000000E+00 0.  1.
</event>
<event>
 8    1  0.6469014E-010  0.9118800E+02  0.7816164E-02  0.1184000E+00
        -11   -1    0    0    0    0  0.00000000000E+00  0.00000000000E+00  0.45593999997E+02  0.45594000000E+02  0.51100000000E-03 0. -1.
         11   -1    0    0    0    0 -0.00000000000E+00 -0.00000000000E+00 -0.45593999997E+02  0.45594000000E+02  0.51100000000E-03 0.  1.
         23    2    1    2    0    0  0.17763568394E-14  0.00000000000E+00  0.00000000000E+00  0.91188000000E+02  0.91188000000E+02 0.  0.
    9900012    2    3    3    0    0  0.14224845971E+02 -0.33665605261E+02  0.23407358229E+02  0.47787266829E+02  0.19999980781E+02 0.  0.
        -12    1    3    3    0    0 -0.14224845971E+02  0.33665605261E+02 -0.23407358229E+02  0.43400733171E+02  0.00000000000E+00 0.  1.
         11    1    4    4    0    0  0.13967731590E+02 -0.25066411992E+02  0.12453512978E+02  0.31281184787E+02  0.51100000000E-03 0. -1.
        -11    1    4    4    0    0  0.24451710888E+01 -0.11259383613E+00 -0.37885936028E-01  0.24480552753E+01  0.51100000000E-03 0.  1.
         12    1    4    4    0    0 -0.21880567077E+01 -0.84865994322E+01  0.10991731187E+02  0.14058026767E+02  0.00000000000E+00 0. -1.
</event>
<event>
 8    1  0.6469014E-010  0.9118800E+02  0.7816164E-02  0.1184000E+00
        -11   -1    0    0    0    0  0.00000000000E+00  0.00000000000E+00  0.45593999997E+02  0.45594000000E+02  0.51100000000E-03 0. -1.
         11   -1    0    0    0    0 -0.00000000000E+00 -0.00000000000E+00 -0.45593999997E+02  0.45594000000E+02  0.51100000000E-03 0.  1.
         23    2    1    2    0    0 -0.88817841970E-15  0.00000000000E+00 -0.71054273576E-14  0.91188000000E+02  0.91188000000E+02 0.  0.
    9900012    2    3    3    0    0 -0.57381663323E+01  0.24074646619E+02  0.35652599778E+02  0.47787273813E+02  0.20000012622E+02 0.  0.
        -12    1    3    3    0    0  0.57381663323E+01 -0.24074646619E+02 -0.35652599778E+02  0.43400726187E+02  0.00000000000E+00 0.  1.
         11    1    4    4    0    0 -0.82264751842E+01  0.10026197272E+02  0.85977168802E+01  0.15560214057E+02  0.51100000000E-03 0. -1.
        -11    1    4    4    0    0 -0.23909414317E+01  0.19077034705E+01  0.12693144199E+01  0.33116601304E+01  0.51100000000E-03 0.  1.
         12    1    4    4    0    0  0.48792502837E+01  0.12140745876E+02  0.25785568478E+02  0.28915399625E+02  0.00000000000E+00 0. -1.
</event>
<event>
 8    1  0.6469014E-010  0.9118800E+02  0.7816164E-02  0.1184000E+00
        -11   -1    0    0    0    0  0.00000000000E+00  0.00000000000E+00  0.45593999997E+02  0.45594000000E+02  0.51100000000E-03 0.  1.
         11   -1    0    0    0    0 -0.00000000000E+00 -0.00000000000E+00 -0.45593999997E+02  0.45594000000E+02  0.51100000000E-03 0. -1.
         23    2    1    2    0    0  0.00000000000E+00  0.00000000000E+00  0.00000000000E+00  0.91188000000E+02  0.91188000000E+02 0.  0.
    9900012    2    3    3    0    0 -0.36734235050E+02  0.16085502720E+02 -0.16597462552E+02  0.47787272061E+02  0.20000004635E+02 0.  0.
         12    1    3    3    0    0  0.36734235050E+02 -0.16085502720E+02  0.16597462552E+02  0.43400727939E+02  0.00000000000E+00 0. -1.
         11    1    4    4    0    0 -0.23221452443E+02  0.86908883562E+01 -0.15420519703E+02  0.29198627060E+02  0.51100000000E-03 0. -1.
        -11    1    4    4    0    0 -0.12697000848E+02  0.38090506340E+01  0.23853038788E+01  0.13468941017E+02  0.51100000000E-03 0.  1.
         12    1    4    4    0    0 -0.81578175897E+00  0.35855637301E+01 -0.35622467275E+01  0.51197039844E+01  0.00000000000E+00 0. -1.
</event>
<event>
 8    1  0.6469014E-010  0.9118800E+02  0.7816164E-02  0.1184000E+00
        -11   -1    0    0    0    0  0.00000000000E+00  0.00000000000E+00  0.45593999997E+02  0.45594000000E+02  0.51100000000E-03 0. -1.
         11   -1    0    0    0    0 -0.00000000000E+00 -0.00000000000E+00 -0.45593999997E+02  0.45594000000E+02  0.51100000000E-03 0.  1.
         23    2    1    2    0    0  0.13322676296E-14  0.00000000000E+00  0.00000000000E+00  0.91188000000E+02  0.91188000000E+02 0.  0.
    9900012    2    3    3    0    0 -0.31639498992E+01  0.25488373313E+02 -0.34985073783E+02  0.47787272578E+02  0.20000006993E+02 0.  0.
         12    1    3    3    0    0  0.31639498992E+01 -0.25488373313E+02  0.34985073783E+02  0.43400727422E+02  0.00000000000E+00 0. -1.
         11    1    4    4    0    0  0.20596718364E+01 -0.80327324512E+00 -0.50852237903E+01  0.55449974967E+01  0.51100000000E-03 0. -1.
        -11    1    4    4    0    0 -0.92912448653E+01  0.15605249545E+02 -0.20916629435E+02  0.27701199102E+02  0.51100000000E-03 0.  1.
        -12    1    4    4    0    0  0.40676231298E+01  0.10686397013E+02 -0.89832205585E+01  0.14541075980E+02  0.00000000000E+00 0.  1.
</event>
<event>
 8    1  0.6469014E-010  0.9118800E+02  0.7816164E-02  0.1184000E+00
        -11   -1    0    0    0    0  0.00000000000E+00  0.00000000000E+00  0.45593999997E+02  0.45594000000E+02  0.51100000000E-03 0. -1.
         11   -1    0    0    0    0 -0.00000000000E+00 -0.00000000000E+00 -0.45593999997E+02  0.45594000000E+02  0.51100000000E-03 0.  1.
         23    2    1    2    0    0 -0.35527136788E-14 -0.35527136788E-14 -0.10658141036E-13  0.91188000000E+02  0.91188000000E+02 0.  0.
    9900012    2    3    3    0    0 -0.14270875472E+02 -0.31100712407E+02 -0.26696650594E+02  0.47787270146E+02  0.19999995903E+02 0.  0.
         12    1    3    3    0    0  0.14270875472E+02  0.31100712407E+02  0.26696650594E+02  0.43400729854E+02  0.00000000000E+00 0. -1.
         11    1    4    4    0    0 -0.68523420589E+01 -0.19770637118E+02 -0.11744157119E+02  0.23994955938E+02  0.51100000000E-03 0.  1.
        -11    1    4    4    0    0 -0.59478275307E+01  0.13677262441E+00 -0.16617652310E+01  0.61771209337E+01  0.51100000000E-03 0. -1.
        -12    1    4    4    0    0 -0.14707058827E+01 -0.11466847913E+02 -0.13290728243E+02  0.17615193275E+02  0.00000000000E+00 0.  1.
</event>
<event>
 8    1  0.6469014E-010  0.9118800E+02  0.7816164E-02  0.1184000E+00
        -11   -1    0    0    0    0  0.00000000000E+00  0.00000000000E+00  0.45593999997E+02  0.45594000000E+02  0.51100000000E-03 0. -1.
         11   -1    0    0    0    0 -0.00000000000E+00 -0.00000000000E+00 -0.45593999997E+02  0.45594000000E+02  0.51100000000E-03 0.  1.
         23    2    1    2    0    0  0.35527136788E-14  0.49960036108E-15  0.71054273576E-14  0.91188000000E+02  0.91188000000E+02 0.  0.
    9900012    2    3    3    0    0 -0.22001704038E+02  0.44802213830E+00 -0.37407863903E+02  0.47787262838E+02  0.19999962583E+02 0.  0.
         12    1    3    3    0    0  0.22001704038E+02 -0.44802213830E+00  0.37407863903E+02  0.43400737162E+02  0.00000000000E+00 0. -1.
         11    1    4    4    0    0 -0.10033595833E+02 -0.78775028303E+01 -0.11855406688E+02  0.17414900636E+02  0.51100000000E-03 0. -1.
        -11    1    4    4    0    0 -0.10841293193E+02  0.76053606888E+01 -0.25811240582E+02  0.29010261804E+02  0.51100000000E-03 0.  1.
        -12    1    4    4    0    0 -0.11268150119E+01  0.72016427987E+00  0.25878336662E+00  0.13621003971E+01  0.00000000000E+00 0.  1.
</event>
<event>
 8    1  0.6469014E-010  0.9118800E+02  0.7816164E-02  0.1184000E+00
        -11   -1    0    0    0    0  0.00000000000E+00  0.00000000000E+00  0.45593999997E+02  0.45594000000E+02  0.51100000000E-03 0. -1.
         11   -1    0    0    0    0 -0.00000000000E+00 -0.00000000000E+00 -0.45593999997E+02  0.45594000000E+02  0.51100000000E-03 0.  1.
         23    2    1    2    0    0 -0.12212453271E-14  0.00000000000E+00  0.71054273576E-14  0.91188000000E+02  0.91188000000E+02 0.  0.
    9900012    2    3    3    0    0 -0.31936760863E+00  0.11369800626E+02 -0.41883758307E+02  0.47787267611E+02  0.19999984347E+02 0.  0.
         12    1    3    3    0    0  0.31936760863E+00 -0.11369800626E+02  0.41883758307E+02  0.43400732389E+02  0.00000000000E+00 0. -1.
         11    1    4    4    0    0  0.49113506725E+01  0.45535286932E+00 -0.56232035572E+01  0.74799151179E+01  0.51100000000E-03 0. -1.
        -11    1    4    4    0    0 -0.73316344299E+01  0.91970453325E+00 -0.15361357380E+02  0.17046114533E+02  0.51100000000E-03 0.  1.
        -12    1    4    4    0    0  0.21009161487E+01  0.99947432232E+01 -0.20899197370E+02  0.23261237961E+02  0.00000000000E+00 0.  1.
</event>
<event>
 8    1  0.6469014E-010  0.9118800E+02  0.7816164E-02  0.1184000E+00
        -11   -1    0    0    0    0  0.00000000000E+00  0.00000000000E+00  0.45593999997E+02  0.45594000000E+02  0.51100000000E-03 0. -1.
         11   -1    0    0    0    0 -0.00000000000E+00 -0.00000000000E+00 -0.45593999997E+02  0.45594000000E+02  0.51100000000E-03 0.  1.
         23    2    1    2    0    0  0.22204460493E-15  0.00000000000E+00  0.00000000000E+00  0.91188000000E+02  0.91188000000E+02 0.  0.
    9900012    2    3    3    0    0 -0.17188847187E+01  0.20354213895E+02  0.38293273448E+02  0.47787269830E+02  0.19999994462E+02 0.  0.
        -12    1    3    3    0    0  0.17188847187E+01 -0.20354213895E+02 -0.38293273448E+02  0.43400730170E+02  0.00000000000E+00 0.  1.
         11    1    4    4    0    0 -0.40760939306E+01  0.20240469307E+02  0.24275573503E+02  0.31868395138E+02  0.51100000000E-03 0. -1.
        -11    1    4    4    0    0  0.42100606668E+01  0.12409934136E+01  0.50416640467E+01  0.66845382856E+01  0.51100000000E-03 0.  1.
         12    1    4    4    0    0 -0.18528514550E+01 -0.11272488254E+01  0.89760358975E+01  0.92343364061E+01  0.00000000000E+00 0. -1.
</event>
<event>
 8    1  0.6469014E-010  0.9118800E+02  0.7816164E-02  0.1184000E+00
        -11   -1    0    0    0    0  0.00000000000E+00  0.00000000000E+00  0.45593999997E+02  0.45594000000E+02  0.51100000000E-03 0. -1.
         11   -1    0    0    0    0 -0.00000000000E+00 -0.00000000000E+00 -0.45593999997E+02  0.45594000000E+02  0.51100000000E-03 0.  1.
         23    2    1    2    0    0  0.00000000000E+00 -0.88817841970E-15  0.00000000000E+00  0.91188000000E+02  0.91188000000E+02 0.  0.
    9900012    2    3    3    0    0  0.37584649763E+02 -0.46537841990E+01 -0.21198135632E+02  0.47787256234E+02  0.19999932472E+02 0.  0.
         12    1    3    3    0    0 -0.37584649763E+02  0.46537841990E+01  0.21198135632E+02  0.43400743766E+02  0.00000000000E+00 0. -1.
         11    1    4    4    0    0  0.12286713929E+02  0.68980430071E+00 -0.25760695155E+01  0.12572800148E+02  0.51100000000E-03 0. -1.
        -11    1    4    4    0    0  0.23114518596E+02 -0.89962980879E+01 -0.12544969982E+02  0.27795514410E+02  0.51100000000E-03 0.  1.
        -12    1    4    4    0    0  0.21834172388E+01  0.36527095881E+01 -0.60770961337E+01  0.74189416760E+01  0.00000000000E+00 0.  1.
</event>
<event>
 8    1  0.6469014E-010  0.9118800E+02  0.7816164E-02  0.1184000E+00
        -11   -1    0    0    0    0  0.00000000000E+00  0.00000000000E+00  0.45593999997E+02  0.45594000000E+02  0.51100000000E-03 0. -1.
         11   -1    0    0    0    0 -0.00000000000E+00 -0.00000000000E+00 -0.45593999997E+02  0.45594000000E+02  0.51100000000E-03 0.  1.
         23    2    1    2    0    0 -0.17763568394E-14  0.35527136788E-14  0.00000000000E+00  0.91188000000E+02  0.91188000000E+02 0.  0.
    9900012    2    3    3    0    0 -0.88904561730E+01 -0.22912811420E+02 -0.35771300887E+02  0.47787272987E+02  0.20000008858E+02 0.  0.
         12    1    3    3    0    0  0.88904561730E+01  0.22912811420E+02  0.35771300887E+02  0.43400727013E+02  0.00000000000E+00 0. -1.
         11    1    4    4    0    0 -0.34320431068E+00 -0.23596522419E+01  0.55012684153E+00  0.24471182449E+01  0.51100000000E-03 0. -1.
        -11    1    4    4    0    0 -0.25098969249E+01  0.34315415319E+00 -0.13798116610E+02  0.14028733357E+02  0.51100000000E-03 0.  1.
        -12    1    4    4    0    0 -0.60373549374E+01 -0.20896313331E+02 -0.22523311118E+02  0.31311421386E+02  0.00000000000E+00 0.  1.
</event>
<event>
 8    1  0.6469014E-010  0.9118800E+02  0.7816164E-02  0.1184000E+00
        -11   -1    0    0    0    0  0.00000000000E+00  0.00000000000E+00  0.45593999997E+02  0.45594000000E+02  0.51100000000E-03 0. -1.
         11   -1    0    0    0    0 -0.00000000000E+00 -0.00000000000E+00 -0.45593999997E+02  0.45594000000E+02  0.51100000000E-03 0.  1.
         23    2    1    2    0    0  0.00000000000E+00  0.00000000000E+00  0.00000000000E+00  0.91188000000E+02  0.91188000000E+02 0.  0.
    9900012    2    3    3    0    0  0.36860951772E+02 -0.21678069850E+02 -0.74131264898E+01  0.47787275095E+02  0.20000018466E+02 0.  0.
         12    1    3    3    0    0 -0.36860951772E+02  0.21678069850E+02  0.74131264898E+01  0.43400724905E+02  0.00000000000E+00 0. -1.
         11    1    4    4    0    0  0.13788744873E+02 -0.35832885159E+01  0.47053175694E+01  0.15003648071E+02  0.51100000000E-03 0. -1.
        -11    1    4    4    0    0  0.20702891578E+02 -0.12027674756E+02 -0.97722381663E+01  0.25860613271E+02  0.51100000000E-03 0.  1.
        -12    1    4    4    0    0  0.23693153212E+01 -0.60671065779E+01 -0.23462058929E+01  0.69230137520E+01  0.00000000000E+00 0.  1.
</event>
<event>
 8    1  0.6469014E-010  0.9118800E+02  0.7816164E-02  0.1184000E+00
        -11   -1    0    0    0    0  0.00000000000E+00  0.00000000000E+00  0.45593999997E+02  0.45594000000E+02  0.51100000000E-03 0. -1.
         11   -1    0    0    0    0 -0.00000000000E+00 -0.00000000000E+00 -0.45593999997E+02  0.45594000000E+02  0.51100000000E-03 0.  1.
         23    2    1    2    0    0 -0.35527136788E-14  0.35527136788E-14  0.00000000000E+00  0.91188000000E+02  0.91188000000E+02 0.  0.
    9900012    2    3    3    0    0 -0.29726220696E+02  0.28365263445E+02  0.13978082317E+02  0.47787272444E+02  0.20000006380E+02 0.  0.
        -12    1    3    3    0    0  0.29726220696E+02 -0.28365263445E+02 -0.13978082317E+02  0.43400727556E+02  0.00000000000E+00 0.  1.
         11    1    4    4    0    0 -0.12638132114E+02  0.11667744067E+02  0.14318588564E+02  0.22380362233E+02  0.51100000000E-03 0. -1.
        -11    1    4    4    0    0  0.27588807019E+00  0.36730744551E+01  0.26173806270E+00  0.36927086609E+01  0.51100000000E-03 0.  1.
         12    1    4    4    0    0 -0.17363976653E+02  0.13024444923E+02 -0.60224431054E+00  0.21714201550E+02  0.00000000000E+00 0. -1.
</event>
<event>
 8    1  0.6469014E-010  0.9118800E+02  0.7816164E-02  0.1184000E+00
        -11   -1    0    0    0    0  0.00000000000E+00  0.00000000000E+00  0.45593999997E+02  0.45594000000E+02  0.51100000000E-03 0. -1.
         11   -1    0    0    0    0 -0.00000000000E+00 -0.00000000000E+00 -0.45593999997E+02  0.45594000000E+02  0.51100000000E-03 0.  1.
         23    2    1    2    0    0  0.00000000000E+00  0.00000000000E+00 -0.35527136788E-14  0.91188000000E+02  0.91188000000E+02 0.  0.
    9900012    2    3    3    0    0  0.16185692452E+02 -0.32137844453E+02  0.24265312715E+02  0.47787273193E+02  0.20000009797E+02 0.  0.
        -12    1    3    3    0    0 -0.16185692452E+02  0.32137844453E+02 -0.24265312715E+02  0.43400726807E+02  0.00000000000E+00 0.  1.
         11    1    4    4    0    0  0.35776994317E+00 -0.11134202103E+02  0.15088811299E+02  0.18755550711E+02  0.51100000000E-03 0. -1.
        -11    1    4    4    0    0  0.14740349461E+02 -0.19149452477E+02  0.10667709942E+02  0.26415515669E+02  0.51100000000E-03 0.  1.
        -12    1    4    4    0    0  0.10875730479E+01 -0.18541898729E+01 -0.14912085263E+01  0.26162068130E+01  0.00000000000E+00 0.  1.
</event>
<event>
 8    1  0.6469014E-010  0.9118800E+02  0.7816164E-02  0.1184000E+00
        -11   -1    0    0    0    0  0.00000000000E+00  0.00000000000E+00  0.45593999997E+02  0.45594000000E+02  0.51100000000E-03 0. -1.
         11   -1    0    0    0    0 -0.00000000000E+00 -0.00000000000E+00 -0.45593999997E+02  0.45594000000E+02  0.51100000000E-03 0.  1.
         23    2    1    2    0    0  0.00000000000E+00  0.00000000000E+00  0.35527136788E-14  0.91188000000E+02  0.91188000000E+02 0.  0.
    9900012    2    3    3    0    0  0.38548512647E+02  0.67454475857E+01 -0.18765288286E+02  0.47787251909E+02  0.19999912752E+02 0.  0.
         12    1    3    3    0    0 -0.38548512647E+02 -0.67454475857E+01  0.18765288286E+02  0.43400748091E+02  0.00000000000E+00 0. -1.
         11    1    4    4    0    0  0.10396757634E+02  0.15087489828E+01 -0.15394712578E+02  0.18637759211E+02  0.51100000000E-03 0. -1.
        -11    1    4    4    0    0  0.14315760146E+02  0.38625034871E+01  0.62720012794E-01  0.14827806844E+02  0.51100000000E-03 0.  1.
         12    1    4    4    0    0  0.13835994867E+02  0.13741951157E+01 -0.34332957212E+01  0.14321685853E+02  0.00000000000E+00 0. -1.
</event>
<event>
 8    1  0.6469014E-010  0.9118800E+02  0.7816164E-02  0.1184000E+00
        -11   -1    0    0    0    0  0.00000000000E+00  0.00000000000E+00  0.45593999997E+02  0.45594000000E+02  0.51100000000E-03 0. -1.
         11   -1    0    0    0    0 -0.00000000000E+00 -0.00000000000E+00 -0.45593999997E+02  0.45594000000E+02  0.51100000000E-03 0.  1.
         23    2    1    2    0    0 -0.35527136788E-14  0.00000000000E+00  0.00000000000E+00  0.91188000000E+02  0.91188000000E+02 0.  0.
    9900012    2    3    3    0    0  0.30944876988E+02  0.21691031756E+02 -0.21343302788E+02  0.47787275994E+02  0.20000022565E+02 0.  0.
         12    1    3    3    0    0 -0.30944876988E+02 -0.21691031756E+02  0.21343302788E+02  0.43400724006E+02  0.00000000000E+00 0. -1.
         11    1    4    4    0    0  0.24273167772E+02  0.13095006686E+02 -0.93942400329E+01  0.29136190895E+02  0.51100000000E-03 0. -1.
        -11    1    4    4    0    0  0.71825731115E+01  0.40088176216E+01 -0.11319862999E+02  0.13992829371E+02  0.51100000000E-03 0.  1.
        -12    1    4    4    0    0 -0.51086389620E+00  0.45872074485E+01 -0.62919975589E+00  0.46582557281E+01  0.00000000000E+00 0.  1.
</event>
<event>
 8    1  0.6469014E-010  0.9118800E+02  0.7816164E-02  0.1184000E+00
        -11   -1    0    0    0    0  0.00000000000E+00  0.00000000000E+00  0.45593999997E+02  0.45594000000E+02  0.51100000000E-03 0. -1.
         11   -1    0    0    0    0 -0.00000000000E+00 -0.00000000000E+00 -0.45593999997E+02  0.45594000000E+02  0.51100000000E-03 0.  1.
         23    2    1    2    0    0  0.35527136788E-14  0.00000000000E+00  0.00000000000E+00  0.91188000000E+02  0.91188000000E+02 0.  0.
    9900012    2    3    3    0    0  0.22501950478E+02  0.85471431612E+01  0.36114153998E+02  0.47787267858E+02  0.19999985470E+02 0.  0.
        -12    1    3    3    0    0 -0.22501950478E+02 -0.85471431612E+01 -0.36114153998E+02  0.43400732142E+02  0.00000000000E+00 0.  1.
         11    1    4    4    0    0  0.27038657595E+01  0.63929542989E+01  0.15270222008E+02  0.16773802048E+02  0.51100000000E-03 0. -1.
        -11    1    4    4    0    0  0.77377717336E+01  0.76836117986E+00  0.11242749908E+01  0.78566840856E+01  0.51100000000E-03 0.  1.
        -12    1    4    4    0    0  0.12060312985E+02  0.13858276824E+01  0.19719656999E+02  0.23156781724E+02  0.00000000000E+00 0.  1.
</event>
<event>
 8    1  0.6469014E-010  0.9118800E+02  0.7816164E-02  0.1184000E+00
        -11   -1    0    0    0    0  0.00000000000E+00  0.00000000000E+00  0.45593999997E+02  0.45594000000E+02  0.51100000000E-03 0. -1.
         11   -1    0    0    0    0 -0.00000000000E+00 -0.00000000000E+00 -0.45593999997E+02  0.45594000000E+02  0.51100000000E-03 0.  1.
         23    2    1    2    0    0  0.00000000000E+00  0.00000000000E+00  0.00000000000E+00  0.91188000000E+02  0.91188000000E+02 0.  0.
    9900012    2    3    3    0    0  0.28118578151E+02 -0.58553341165E+01 -0.32537422257E+02  0.47787271642E+02  0.20000002725E+02 0.  0.
         12    1    3    3    0    0 -0.28118578151E+02  0.58553341165E+01  0.32537422257E+02  0.43400728358E+02  0.00000000000E+00 0. -1.
         11    1    4    4    0    0 -0.53050491292E+00 -0.95341155867E-01 -0.16512146507E+01  0.17369615662E+01  0.51100000000E-03 0. -1.
        -11    1    4    4    0    0  0.14639946445E+02  0.43285905984E+01 -0.21591559121E+02  0.26443527640E+02  0.51100000000E-03 0.  1.
        -12    1    4    4    0    0  0.14009136619E+02 -0.10088583559E+02 -0.92946484848E+01  0.19606782436E+02  0.00000000000E+00 0.  1.
</event>
<event>
 8    1  0.6469014E-010  0.9118800E+02  0.7816164E-02  0.1184000E+00
        -11   -1    0    0    0    0  0.00000000000E+00  0.00000000000E+00  0.45593999997E+02  0.45594000000E+02  0.51100000000E-03 0. -1.
         11   -1    0    0    0    0 -0.00000000000E+00 -0.00000000000E+00 -0.45593999997E+02  0.45594000000E+02  0.51100000000E-03 0.  1.
         23    2    1    2    0    0  0.00000000000E+00 -0.88817841970E-15  0.00000000000E+00  0.91188000000E+02  0.91188000000E+02 0.  0.
    9900012    2    3    3    0    0 -0.26530830904E+02  0.65293899450E+01 -0.33720986344E+02  0.47787276025E+02  0.20000022711E+02 0.  0.
         12    1    3    3    0    0  0.26530830904E+02 -0.65293899450E+01  0.33720986344E+02  0.43400723975E+02  0.00000000000E+00 0. -1.
         11    1    4    4    0    0 -0.96189868755E+01 -0.34490705333E+01 -0.47575615246E+01  0.11271884846E+02  0.51100000000E-03 0. -1.
        -11    1    4    4    0    0 -0.72296964931E+01  0.21526731416E+01 -0.19405675287E+02  0.20820248477E+02  0.51100000000E-03 0.  1.
        -12    1    4    4    0    0 -0.96821475350E+01  0.78257873368E+01 -0.95577495322E+01  0.15695142702E+02  0.00000000000E+00 0.  1.
</event>
<event>
 8    1  0.6469014E-010  0.9118800E+02  0.7816164E-02  0.1184000E+00
        -11   -1    0    0    0    0  0.00000000000E+00  0.00000000000E+00  0.45593999997E+02  0.45594000000E+02  0.51100000000E-03 0. -1.
         11   -1    0    0    0    0 -0.00000000000E+00 -0.00000000000E+00 -0.45593999997E+02  0.45594000000E+02  0.51100000000E-03 0.  1.
         23    2    1    2    0    0  0.00000000000E+00  0.00000000000E+00  0.00000000000E+00  0.91188000000E+02  0.91188000000E+02 0.  0.
    9900012    2    3    3    0    0 -0.22961367772E+02 -0.32734831862E+02  0.16876896593E+02  0.47787271140E+02  0.20000000434E+02 0.  0.
        -12    1    3    3    0    0  0.22961367772E+02  0.32734831862E+02 -0.16876896593E+02  0.43400728860E+02  0.00000000000E+00 0.  1.
         11    1    4    4    0    0 -0.17480455534E+02 -0.27957525288E+02  0.63750775190E+01  0.33583197578E+02  0.51100000000E-03 0. -1.
        -11    1    4    4    0    0 -0.39575925996E+01 -0.43027147009E+01  0.11063078650E+02  0.12512697649E+02  0.51100000000E-03 0.  1.
         12    1    4    4    0    0 -0.15233196382E+01 -0.47459187302E+00 -0.56125957581E+00  0.16913759125E+01  0.00000000000E+00 0. -1.
</event>
<event>
 8    1  0.6469014E-010  0.9118800E+02  0.7816164E-02  0.1184000E+00
        -11   -1    0    0    0    0  0.00000000000E+00  0.00000000000E+00  0.45593999997E+02  0.45594000000E+02  0.51100000000E-03 0. -1.
         11   -1    0    0    0    0 -0.00000000000E+00 -0.00000000000E+00 -0.45593999997E+02  0.45594000000E+02  0.51100000000E-03 0.  1.
         23    2    1    2    0    0  0.44408920985E-15  0.00000000000E+00  0.00000000000E+00  0.91188000000E+02  0.91188000000E+02 0.  0.
    9900012    2    3    3    0    0  0.11135271358E+01 -0.36434274975E+02  0.23556893258E+02  0.47787267798E+02  0.19999985200E+02 0.  0.
        -12    1    3    3    0    0 -0.11135271358E+01  0.36434274975E+02 -0.23556893258E+02  0.43400732202E+02  0.00000000000E+00 0.  1.
         11    1    4    4    0    0  0.54304968619E+01 -0.34292642646E+01  0.76416195214E+01  0.99822091109E+01  0.51100000000E-03 0. -1.
        -11    1    4    4    0    0 -0.24714157070E+01 -0.31784323924E+02  0.13782982660E+02  0.34732142954E+02  0.51100000000E-03 0.  1.
        -12    1    4    4    0    0 -0.18455540191E+01 -0.12206867869E+01  0.21322910770E+01  0.30729157337E+01  0.00000000000E+00 0.  1.
</event>
<event>
 8    1  0.6469014E-010  0.9118800E+02  0.7816164E-02  0.1184000E+00
        -11   -1    0    0    0    0  0.00000000000E+00  0.00000000000E+00  0.45593999997E+02  0.45594000000E+02  0.51100000000E-03 0. -1.
         11   -1    0    0    0    0 -0.00000000000E+00 -0.00000000000E+00 -0.45593999997E+02  0.45594000000E+02  0.51100000000E-03 0.  1.
         23    2    1    2    0    0  0.00000000000E+00  0.88817841970E-15 -0.35527136788E-14  0.91188000000E+02  0.91188000000E+02 0.  0.
    9900012    2    3    3    0    0  0.34108233894E+02  0.49673191395E+01 -0.26373801164E+02  0.47787271128E+02  0.20000000380E+02 0.  0.
         12    1    3    3    0    0 -0.34108233894E+02 -0.49673191395E+01  0.26373801164E+02  0.43400728872E+02  0.00000000000E+00 0. -1.
         11    1    4    4    0    0  0.56060333099E+01  0.79044353787E+01 -0.93128939260E+01  0.13440152591E+02  0.51100000000E-03 0. -1.
        -11    1    4    4    0    0  0.20849714068E+02 -0.29870976326E+01 -0.81080450215E+01  0.22569309323E+02  0.51100000000E-03 0.  1.
        -12    1    4    4    0    0  0.76524865161E+01  0.49981393454E-01 -0.89528622163E+01  0.11777809214E+02  0.00000000000E+00 0.  1.
</event>
<event>
 8    1  0.6469014E-010  0.9118800E+02  0.7816164E-02  0.1184000E+00
        -11   -1    0    0    0    0  0.00000000000E+00  0.00000000000E+00  0.45593999997E+02  0.45594000000E+02  0.51100000000E-03 0. -1.
         11   -1    0    0    0    0 -0.00000000000E+00 -0.00000000000E+00 -0.45593999997E+02  0.45594000000E+02  0.51100000000E-03 0.  1.
         23    2    1    2    0    0  0.00000000000E+00  0.17763568394E-14  0.00000000000E+00  0.91188000000E+02  0.91188000000E+02 0.  0.
    9900012    2    3    3    0    0 -0.40383399964E+02  0.15279848115E+02  0.43966397044E+01  0.47787271991E+02  0.20000004314E+02 0.  0.
         12    1    3    3    0    0  0.40383399964E+02 -0.15279848115E+02 -0.43966397044E+01  0.43400728009E+02  0.00000000000E+00 0. -1.
         11    1    4    4    0    0 -0.39855441046E+01  0.62694250794E+01 -0.41909346683E+01  0.85296064558E+01  0.51100000000E-03 0. -1.
        -11    1    4    4    0    0 -0.10866839990E+02  0.48431213544E+01 -0.31034246765E+00  0.11901275080E+02  0.51100000000E-03 0.  1.
         12    1    4    4    0    0 -0.25531015869E+02  0.41673016816E+01  0.88979168404E+01  0.27356390455E+02  0.00000000000E+00 0. -1.
</event>
<event>
 8    1  0.6469014E-010  0.9118800E+02  0.7816164E-02  0.1184000E+00
        -11   -1    0    0    0    0  0.00000000000E+00  0.00000000000E+00  0.45593999997E+02  0.45594000000E+02  0.51100000000E-03 0. -1.
         11   -1    0    0    0    0 -0.00000000000E+00 -0.00000000000E+00 -0.45593999997E+02  0.45594000000E+02  0.51100000000E-03 0.  1.
         23    2    1    2    0    0  0.00000000000E+00  0.00000000000E+00  0.00000000000E+00  0.91188000000E+02  0.91188000000E+02 0.  0.
    9900012    2    3    3    0    0  0.22893022651E+02 -0.32638639175E+02 -0.17153804385E+02  0.47787259705E+02  0.19999948299E+02 0.  0.
         12    1    3    3    0    0 -0.22893022651E+02  0.32638639175E+02  0.17153804385E+02  0.43400740295E+02  0.00000000000E+00 0. -1.
         11    1    4    4    0    0  0.20708984650E+01 -0.70627587275E+00 -0.20166878321E+01  0.29756471791E+01  0.51100000000E-03 0. -1.
        -11    1    4    4    0    0 -0.93931221075E+00 -0.10837762088E+02 -0.84512605802E+01  0.13775456441E+02  0.51100000000E-03 0.  1.
        -12    1    4    4    0    0  0.21761436397E+02 -0.21094601214E+02 -0.66858559726E+01  0.31036156084E+02  0.00000000000E+00 0.  1.
</event>
<event>
 8    1  0.6469014E-010  0.9118800E+02  0.7816164E-02  0.1184000E+00
        -11   -1    0    0    0    0  0.00000000000E+00  0.00000000000E+00  0.45593999997E+02  0.45594000000E+02  0.51100000000E-03 0. -1.
         11   -1    0    0    0    0 -0.00000000000E+00 -0.00000000000E+00 -0.45593999997E+02  0.45594000000E+02  0.51100000000E-03 0.  1.
         23    2    1    2    0    0  0.00000000000E+00  0.00000000000E+00 -0.71054273576E-14  0.91188000000E+02  0.91188000000E+02 0.  0.
    9900012    2    3    3    0    0  0.26397866587E+02  0.27262622832E+01 -0.34341571673E+02  0.47787269461E+02  0.19999992780E+02 0.  0.
         12    1    3    3    0    0 -0.26397866587E+02 -0.27262622832E+01  0.34341571673E+02  0.43400730539E+02  0.00000000000E+00 0. -1.
         11    1    4    4    0    0  0.32595915920E+01  0.47076320862E+00 -0.32211795763E+00  0.33091261060E+01  0.51100000000E-03 0. -1.
        -11    1    4    4    0    0  0.75456170543E+01  0.21377419186E+01 -0.92854852986E+00  0.78973717067E+01  0.51100000000E-03 0.  1.
        -12    1    4    4    0    0  0.15592657941E+02  0.11775715596E+00 -0.33090905185E+02  0.36580771648E+02  0.00000000000E+00 0.  1.
</event>
<event>
 8    1  0.6469014E-010  0.9118800E+02  0.7816164E-02  0.1184000E+00
        -11   -1    0    0    0    0  0.00000000000E+00  0.00000000000E+00  0.45593999997E+02  0.45594000000E+02  0.51100000000E-03 0. -1.
         11   -1    0    0    0    0 -0.00000000000E+00 -0.00000000000E+00 -0.45593999997E+02  0.45594000000E+02  0.51100000000E-03 0.  1.
         23    2    1    2    0    0  0.88817841970E-15  0.35527136788E-14  0.00000000000E+00  0.91188000000E+02  0.91188000000E+02 0.  0.
    9900012    2    3    3    0    0 -0.79239363495E+01  0.99284305007E+01  0.41500140253E+02  0.47787261061E+02  0.19999954481E+02 0.  0.
        -12    1    3    3    0    0  0.79239363495E+01 -0.99284305007E+01 -0.41500140253E+02  0.43400738939E+02  0.00000000000E+00 0.  1.
         11    1    4    4    0    0  0.41738756867E+00  0.89794880275E+01  0.24320013991E+02  0.25928141052E+02  0.51100000000E-03 0. -1.
        -11    1    4    4    0    0 -0.10797917356E+02 -0.15250594715E+00  0.14255659310E+02  0.17884129833E+02  0.51100000000E-03 0.  1.
        -12    1    4    4    0    0  0.24565934378E+01  0.11014484203E+01  0.29244669519E+01  0.39749901753E+01  0.00000000000E+00 0.  1.
</event>
<event>
 8    1  0.6469014E-010  0.9118800E+02  0.7816164E-02  0.1184000E+00
        -11   -1    0    0    0    0  0.00000000000E+00  0.00000000000E+00  0.45593999997E+02  0.45594000000E+02  0.51100000000E-03 0. -1.
         11   -1    0    0    0    0 -0.00000000000E+00 -0.00000000000E+00 -0.45593999997E+02  0.45594000000E+02  0.51100000000E-03 0.  1.
         23    2    1    2    0    0 -0.35527136788E-14  0.35527136788E-14  0.00000000000E+00  0.91188000000E+02  0.91188000000E+02 0.  0.
    9900012    2    3    3    0    0 -0.26200585468E+02  0.19278191564E+02  0.28731571952E+02  0.47787279088E+02  0.20000036673E+02 0.  0.
        -12    1    3    3    0    0  0.26200585468E+02 -0.19278191564E+02 -0.28731571952E+02  0.43400720912E+02  0.00000000000E+00 0.  1.
         11    1    4    4    0    0 -0.96070180331E+01  0.14511833023E+02  0.11964485793E+02  0.21119588389E+02  0.51100000000E-03 0. -1.
        -11    1    4    4    0    0 -0.16889100987E+02  0.53161816571E+01  0.18022982203E+02  0.25265221300E+02  0.51100000000E-03 0.  1.
        -12    1    4    4    0    0  0.29553355265E+00 -0.54982311623E+00 -0.12558960441E+01  0.14024693984E+01  0.00000000000E+00 0.  1.
</event>
<event>
 8    1  0.6469014E-010  0.9118800E+02  0.7816164E-02  0.1184000E+00
        -11   -1    0    0    0    0  0.00000000000E+00  0.00000000000E+00  0.45593999997E+02  0.45594000000E+02  0.51100000000E-03 0. -1.
         11   -1    0    0    0    0 -0.00000000000E+00 -0.00000000000E+00 -0.45593999997E+02  0.45594000000E+02  0.51100000000E-03 0.  1.
         23    2    1    2    0    0  0.00000000000E+00 -0.88817841970E-15 -0.35527136788E-14  0.91188000000E+02  0.91188000000E+02 0.  0.
    9900012    2    3    3    0    0 -0.36177699280E+02  0.67059253680E+01  0.23017997121E+02  0.47787267844E+02  0.19999985407E+02 0.  0.
        -12    1    3    3    0    0  0.36177699280E+02 -0.67059253680E+01 -0.23017997121E+02  0.43400732156E+02  0.00000000000E+00 0.  1.
         11    1    4    4    0    0 -0.13679825616E+02  0.14669844986E+01  0.13487766912E+02  0.19266798617E+02  0.51100000000E-03 0. -1.
        -11    1    4    4    0    0 -0.17361745387E+02  0.84680216335E+01  0.28996694673E+01  0.19533194223E+02  0.51100000000E-03 0.  1.
        -12    1    4    4    0    0 -0.51361282774E+01 -0.32290807641E+01  0.66305607408E+01  0.89872750042E+01  0.00000000000E+00 0.  1.
</event>
<event>
 8    1  0.6469014E-010  0.9118800E+02  0.7816164E-02  0.1184000E+00
        -11   -1    0    0    0    0  0.00000000000E+00  0.00000000000E+00  0.45593999997E+02  0.45594000000E+02  0.51100000000E-03 0. -1.
         11   -1    0    0    0    0 -0.00000000000E+00 -0.00000000000E+00 -0.45593999997E+02  0.45594000000E+02  0.51100000000E-03 0.  1.
         23    2    1    2    0    0  0.00000000000E+00  0.00000000000E+00  0.00000000000E+00  0.91188000000E+02  0.91188000000E+02 0.  0.
    9900012    2    3    3    0    0 -0.32962275246E+02 -0.76051358150E+01 -0.27189522839E+02  0.47787310693E+02  0.20000180773E+02 0.  0.
         12    1    3    3    0    0  0.32962275246E+02  0.76051358150E+01  0.27189522839E+02  0.43400689307E+02  0.00000000000E+00 0. -1.
         11    1    4    4    0    0 -0.26507179050E+02 -0.14114901479E+01 -0.13358878262E+02  0.29716703624E+02  0.51100000000E-03 0. -1.
        -11    1    4    4    0    0 -0.73025593928E+01 -0.65172597222E+01 -0.94792006570E+01  0.13625611668E+02  0.51100000000E-03 0.  1.
         12    1    4    4    0    0  0.84746319687E+00  0.32361405514E+00 -0.43514439195E+01  0.44449954006E+01  0.00000000000E+00 0. -1.
</event>
<event>
 8    1  0.6469014E-010  0.9118800E+02  0.7816164E-02  0.1184000E+00
        -11   -1    0    0    0    0  0.00000000000E+00  0.00000000000E+00  0.45593999997E+02  0.45594000000E+02  0.51100000000E-03 0. -1.
         11   -1    0    0    0    0 -0.00000000000E+00 -0.00000000000E+00 -0.45593999997E+02  0.45594000000E+02  0.51100000000E-03 0.  1.
         23    2    1    2    0    0  0.00000000000E+00  0.00000000000E+00 -0.35527136788E-14  0.91188000000E+02  0.91188000000E+02 0.  0.
    9900012    2    3    3    0    0 -0.31725535873E+02 -0.84434046275E+01  0.28387018898E+02  0.47787267863E+02  0.19999985495E+02 0.  0.
        -12    1    3    3    0    0  0.31725535873E+02  0.84434046275E+01 -0.28387018898E+02  0.43400732137E+02  0.00000000000E+00 0.  1.
         11    1    4    4    0    0 -0.65066241708E+01  0.22220549957E+01  0.16684737988E+01  0.70751319127E+01  0.51100000000E-03 0. -1.
        -11    1    4    4    0    0 -0.24588164353E+02 -0.13169743944E+02  0.25726487256E+02  0.37945647031E+02  0.51100000000E-03 0.  1.
        -12    1    4    4    0    0 -0.63074734854E+00  0.25042843209E+01  0.99205784324E+00  0.27664889195E+01  0.00000000000E+00 0.  1.
</event>
<event>
 8    1  0.6469014E-010  0.9118800E+02  0.7816164E-02  0.1184000E+00
        -11   -1    0    0    0    0  0.00000000000E+00  0.00000000000E+00  0.45593999997E+02  0.45594000000E+02  0.51100000000E-03 0. -1.
         11   -1    0    0    0    0 -0.00000000000E+00 -0.00000000000E+00 -0.45593999997E+02  0.45594000000E+02  0.51100000000E-03 0.  1.
         23    2    1    2    0    0  0.00000000000E+00  0.00000000000E+00 -0.17763568394E-14  0.91188000000E+02  0.91188000000E+02 0.  0.
    9900012    2    3    3    0    0 -0.36759166375E+02  0.21025651434E+02 -0.95031051941E+01  0.47787270292E+02  0.19999996570E+02 0.  0.
         12    1    3    3    0    0  0.36759166375E+02 -0.21025651434E+02  0.95031051941E+01  0.43400729708E+02  0.00000000000E+00 0. -1.
         11    1    4    4    0    0 -0.12233899159E+02  0.91674371162E+01 -0.11685071939E+02  0.19241909946E+02  0.51100000000E-03 0. -1.
        -11    1    4    4    0    0 -0.17787912932E+02  0.11411474982E+02 -0.83432493602E+00  0.21150123075E+02  0.51100000000E-03 0.  1.
         12    1    4    4    0    0 -0.67373542842E+01  0.44673933628E+00  0.30162916806E+01  0.73952372706E+01  0.00000000000E+00 0. -1.
</event>
<event>
 8    1  0.6469014E-010  0.9118800E+02  0.7816164E-02  0.1184000E+00
        -11   -1    0    0    0    0  0.00000000000E+00  0.00000000000E+00  0.45593999997E+02  0.45594000000E+02  0.51100000000E-03 0. -1.
         11   -1    0    0    0    0 -0.00000000000E+00 -0.00000000000E+00 -0.45593999997E+02  0.45594000000E+02  0.51100000000E-03 0.  1.
         23    2    1    2    0    0  0.00000000000E+00  0.00000000000E+00  0.00000000000E+00  0.91188000000E+02  0.91188000000E+02 0.  0.
    9900012    2    3    3    0    0  0.21636878619E+02  0.22737566712E+02  0.29974521493E+02  0.47787269648E+02  0.19999993632E+02 0.  0.
        -12    1    3    3    0    0 -0.21636878619E+02 -0.22737566712E+02 -0.29974521493E+02  0.43400730352E+02  0.00000000000E+00 0.  1.
         11    1    4    4    0    0  0.14012196059E+02  0.96435743048E+01  0.68708760167E+01  0.18345274630E+02  0.51100000000E-03 0. -1.
        -11    1    4    4    0    0 -0.16256418844E+00 -0.68736424931E+00  0.63647320559E+01  0.64038044263E+01  0.51100000000E-03 0.  1.
         12    1    4    4    0    0  0.77872467487E+01  0.13781356657E+02  0.16738913421E+02  0.23038190591E+02  0.00000000000E+00 0. -1.
</event>
<event>
 8    1  0.6469014E-010  0.9118800E+02  0.7816164E-02  0.1184000E+00
        -11   -1    0    0    0    0  0.00000000000E+00  0.00000000000E+00  0.45593999997E+02  0.45594000000E+02  0.51100000000E-03 0. -1.
         11   -1    0    0    0    0 -0.00000000000E+00 -0.00000000000E+00 -0.45593999997E+02  0.45594000000E+02  0.51100000000E-03 0.  1.
         23    2    1    2    0    0 -0.71054273576E-14  0.17763568394E-14  0.35527136788E-14  0.91188000000E+02  0.91188000000E+02 0.  0.
    9900012    2    3    3    0    0 -0.36283901149E+02  0.13432823297E+02  0.19663701255E+02  0.47787269921E+02  0.19999994880E+02 0.  0.
        -12    1    3    3    0    0  0.36283901149E+02 -0.13432823297E+02 -0.19663701255E+02  0.43400730079E+02  0.00000000000E+00 0.  1.
         11    1    4    4    0    0 -0.40152781201E+01 -0.35728821860E+01  0.35126426826E+01  0.64207946839E+01  0.51100000000E-03 0. -1.
        -11    1    4    4    0    0 -0.79622938187E+00  0.39061001826E+01  0.14504038048E+01  0.42420833706E+01  0.51100000000E-03 0.  1.
         12    1    4    4    0    0 -0.31472393647E+02  0.13099605300E+02  0.14700654768E+02  0.37124391867E+02  0.00000000000E+00 0. -1.
</event>
<event>
 8    1  0.6469014E-010  0.9118800E+02  0.7816164E-02  0.1184000E+00
        -11   -1    0    0    0    0  0.00000000000E+00  0.00000000000E+00  0.45593999997E+02  0.45594000000E+02  0.51100000000E-03 0. -1.
         11   -1    0    0    0    0 -0.00000000000E+00 -0.00000000000E+00 -0.45593999997E+02  0.45594000000E+02  0.51100000000E-03 0.  1.
         23    2    1    2    0    0  0.35527136788E-14  0.44408920985E-15  0.00000000000E+00  0.91188000000E+02  0.91188000000E+02 0.  0.
    9900012    2    3    3    0    0  0.28742490000E+02  0.30448770877E+01 -0.32376249811E+02  0.47787267752E+02  0.19999984987E+02 0.  0.
         12    1    3    3    0    0 -0.28742490000E+02 -0.30448770877E+01  0.32376249811E+02  0.43400732248E+02  0.00000000000E+00 0. -1.
         11    1    4    4    0    0 -0.84442258552E+00  0.21182150203E+01  0.74192921322E+00  0.23979874048E+01  0.51100000000E-03 0. -1.
        -11    1    4    4    0    0  0.27573079073E+02  0.31336598838E+01 -0.27744874164E+02  0.39241209926E+02  0.51100000000E-03 0.  1.
        -12    1    4    4    0    0  0.20138335120E+01 -0.22069978164E+01 -0.53733048606E+01  0.61480704209E+01  0.00000000000E+00 0.  1.
</event>
<event>
 8    1  0.6469014E-010  0.9118800E+02  0.7816164E-02  0.1184000E+00
        -11   -1    0    0    0    0  0.00000000000E+00  0.00000000000E+00  0.45593999997E+02  0.45594000000E+02  0.51100000000E-03 0. -1.
         11   -1    0    0    0    0 -0.00000000000E+00 -0.00000000000E+00 -0.45593999997E+02  0.45594000000E+02  0.51100000000E-03 0.  1.
         23    2    1    2    0    0 -0.88817841970E-15  0.35527136788E-14 -0.71054273576E-14  0.91188000000E+02  0.91188000000E+02 0.  0.
    9900012    2    3    3    0    0  0.68371381280E+01 -0.25492948251E+02  0.34452674241E+02  0.47787266934E+02  0.19999981258E+02 0.  0.
        -12    1    3    3    0    0 -0.68371381280E+01  0.25492948251E+02 -0.34452674241E+02  0.43400733066E+02  0.00000000000E+00 0.  1.
         11    1    4    4    0    0  0.40532008304E+00 -0.14765703896E+02  0.30199230028E+02  0.33618206235E+02  0.51100000000E-03 0. -1.
        -11    1    4    4    0    0 -0.73276403401E+00 -0.10575893385E+01 -0.26583656564E+00  0.13138141723E+01  0.51100000000E-03 0.  1.
         12    1    4    4    0    0  0.71645820790E+01 -0.96696550168E+01  0.45192807789E+01  0.12855246527E+02  0.00000000000E+00 0. -1.
</event>
<event>
 8    1  0.6469014E-010  0.9118800E+02  0.7816164E-02  0.1184000E+00
        -11   -1    0    0    0    0  0.00000000000E+00  0.00000000000E+00  0.45593999997E+02  0.45594000000E+02  0.51100000000E-03 0. -1.
         11   -1    0    0    0    0 -0.00000000000E+00 -0.00000000000E+00 -0.45593999997E+02  0.45594000000E+02  0.51100000000E-03 0.  1.
         23    2    1    2    0    0  0.00000000000E+00  0.00000000000E+00  0.00000000000E+00  0.91188000000E+02  0.91188000000E+02 0.  0.
    9900012    2    3    3    0    0  0.20792368146E+02  0.18988470528E+02 -0.33026332519E+02  0.47787271599E+02  0.20000002527E+02 0.  0.
         12    1    3    3    0    0 -0.20792368146E+02 -0.18988470528E+02  0.33026332519E+02  0.43400728401E+02  0.00000000000E+00 0. -1.
         11    1    4    4    0    0  0.18377525178E+02  0.13237305787E+02 -0.14373392059E+02  0.26824505508E+02  0.51100000000E-03 0. -1.
        -11    1    4    4    0    0 -0.81722867645E+00  0.62431099042E+01 -0.12338278473E+02  0.13851981805E+02  0.51100000000E-03 0.  1.
         12    1    4    4    0    0  0.32320716439E+01 -0.49194516324E+00 -0.63146619875E+01  0.71107842866E+01  0.00000000000E+00 0. -1.
</event>
<event>
 8    1  0.6469014E-010  0.9118800E+02  0.7816164E-02  0.1184000E+00
        -11   -1    0    0    0    0  0.00000000000E+00  0.00000000000E+00  0.45593999997E+02  0.45594000000E+02  0.51100000000E-03 0. -1.
         11   -1    0    0    0    0 -0.00000000000E+00 -0.00000000000E+00 -0.45593999997E+02  0.45594000000E+02  0.51100000000E-03 0.  1.
         23    2    1    2    0    0  0.00000000000E+00 -0.17763568394E-14  0.00000000000E+00  0.91188000000E+02  0.91188000000E+02 0.  0.
    9900012    2    3    3    0    0  0.23389726243E+02  0.85838172342E+01  0.35536775736E+02  0.47787266807E+02  0.19999980678E+02 0.  0.
        -12    1    3    3    0    0 -0.23389726243E+02 -0.85838172342E+01 -0.35536775736E+02  0.43400733193E+02  0.00000000000E+00 0.  1.
         11    1    4    4    0    0  0.12172479823E+02 -0.31036931814E+01  0.17046792290E+02  0.21175346610E+02  0.51100000000E-03 0. -1.
        -11    1    4    4    0    0  0.21880908616E+01  0.82479709663E+01  0.46065890903E+01  0.96972898269E+01  0.51100000000E-03 0.  1.
        -12    1    4    4    0    0  0.90291555585E+01  0.34395394494E+01  0.13883394355E+02  0.16914630370E+02  0.00000000000E+00 0.  1.
</event>
<event>
 8    1  0.6469014E-010  0.9118800E+02  0.7816164E-02  0.1184000E+00
        -11   -1    0    0    0    0  0.00000000000E+00  0.00000000000E+00  0.45593999997E+02  0.45594000000E+02  0.51100000000E-03 0. -1.
         11   -1    0    0    0    0 -0.00000000000E+00 -0.00000000000E+00 -0.45593999997E+02  0.45594000000E+02  0.51100000000E-03 0.  1.
         23    2    1    2    0    0  0.00000000000E+00  0.00000000000E+00  0.00000000000E+00  0.91188000000E+02  0.91188000000E+02 0.  0.
    9900012    2    3    3    0    0 -0.99849623912E+01 -0.23692358602E+02 -0.34965644027E+02  0.47787267376E+02  0.19999983274E+02 0.  0.
         12    1    3    3    0    0  0.99849623912E+01  0.23692358602E+02  0.34965644027E+02  0.43400732624E+02  0.00000000000E+00 0. -1.
         11    1    4    4    0    0  0.23383987836E+01 -0.43901052003E+00  0.20507647254E+00  0.23880736439E+01  0.51100000000E-03 0. -1.
        -11    1    4    4    0    0 -0.87992043108E+01 -0.15631432936E+02 -0.31468610977E+02  0.36222108845E+02  0.51100000000E-03 0.  1.
        -12    1    4    4    0    0 -0.35241568640E+01 -0.76219151467E+01 -0.37021095223E+01  0.91770848868E+01  0.00000000000E+00 0.  1.
</event>
<event>
 8    1  0.6469014E-010  0.9118800E+02  0.7816164E-02  0.1184000E+00
        -11   -1    0    0    0    0  0.00000000000E+00  0.00000000000E+00  0.45593999997E+02  0.45594000000E+02  0.51100000000E-03 0. -1.
         11   -1    0    0    0    0 -0.00000000000E+00 -0.00000000000E+00 -0.45593999997E+02  0.45594000000E+02  0.51100000000E-03 0.  1.
         23    2    1    2    0    0  0.17763568394E-14  0.00000000000E+00  0.71054273576E-14  0.91188000000E+02  0.91188000000E+02 0.  0.
    9900012    2    3    3    0    0 -0.10954168209E+02  0.18039804627E+02 -0.37923543635E+02  0.47787268279E+02  0.19999987390E+02 0.  0.
         12    1    3    3    0    0  0.10954168209E+02 -0.18039804627E+02  0.37923543635E+02  0.43400731721E+02  0.00000000000E+00 0. -1.
         11    1    4    4    0    0 -0.81226400421E+01  0.15338036255E+01 -0.11283157111E+02  0.13987117983E+02  0.51100000000E-03 0. -1.
        -11    1    4    4    0    0 -0.11773042702E+00  0.14437730444E+02 -0.26737385290E+02  0.30386669663E+02  0.51100000000E-03 0.  1.
        -12    1    4    4    0    0 -0.27137977397E+01  0.20682705576E+01  0.96998765432E-01  0.34134806330E+01  0.00000000000E+00 0.  1.
</event>
<event>
 8    1  0.6469014E-010  0.9118800E+02  0.7816164E-02  0.1184000E+00
        -11   -1    0    0    0    0  0.00000000000E+00  0.00000000000E+00  0.45593999997E+02  0.45594000000E+02  0.51100000000E-03 0. -1.
         11   -1    0    0    0    0 -0.00000000000E+00 -0.00000000000E+00 -0.45593999997E+02  0.45594000000E+02  0.51100000000E-03 0.  1.
         23    2    1    2    0    0  0.00000000000E+00  0.00000000000E+00  0.00000000000E+00  0.91188000000E+02  0.91188000000E+02 0.  0.
    9900012    2    3    3    0    0  0.13751600329E+02  0.10452974243E+02 -0.39815225610E+02  0.47787269908E+02  0.19999994820E+02 0.  0.
         12    1    3    3    0    0 -0.13751600329E+02 -0.10452974243E+02  0.39815225610E+02  0.43400730092E+02  0.00000000000E+00 0. -1.
         11    1    4    4    0    0  0.83109476092E+01  0.59052445660E+01 -0.30673118494E+02  0.32323118073E+02  0.51100000000E-03 0. -1.
        -11    1    4    4    0    0 -0.56044905549E+00 -0.17824622369E+01 -0.58496209664E+01  0.61407931476E+01  0.51100000000E-03 0.  1.
         12    1    4    4    0    0  0.60011017751E+01  0.63301919137E+01 -0.32924861494E+01  0.93233586879E+01  0.00000000000E+00 0. -1.
</event>
<event>
 8    1  0.6469014E-010  0.9118800E+02  0.7816164E-02  0.1184000E+00
        -11   -1    0    0    0    0  0.00000000000E+00  0.00000000000E+00  0.45593999997E+02  0.45594000000E+02  0.51100000000E-03 0. -1.
         11   -1    0    0    0    0 -0.00000000000E+00 -0.00000000000E+00 -0.45593999997E+02  0.45594000000E+02  0.51100000000E-03 0.  1.
         23    2    1    2    0    0  0.88817841970E-15  0.00000000000E+00  0.00000000000E+00  0.91188000000E+02  0.91188000000E+02 0.  0.
    9900012    2    3    3    0    0  0.47095594874E+01 -0.22271367218E+02 -0.36951706415E+02  0.47787281627E+02  0.20000048249E+02 0.  0.
         12    1    3    3    0    0 -0.47095594874E+01  0.22271367218E+02  0.36951706415E+02  0.43400718373E+02  0.00000000000E+00 0. -1.
         11    1    4    4    0    0  0.18681219701E+01 -0.11411395230E+01 -0.19306934372E+02  0.19430640602E+02  0.51100000000E-03 0. -1.
        -11    1    4    4    0    0 -0.12174822240E+01 -0.10994031100E+02 -0.10862051110E+02  0.15502746123E+02  0.51100000000E-03 0.  1.
         12    1    4    4    0    0  0.40589197412E+01 -0.10136196595E+02 -0.67827209336E+01  0.12853894902E+02  0.00000000000E+00 0. -1.
</event>
<event>
 8    1  0.6469014E-010  0.9118800E+02  0.7816164E-02  0.1184000E+00
        -11   -1    0    0    0    0  0.00000000000E+00  0.00000000000E+00  0.45593999997E+02  0.45594000000E+02  0.51100000000E-03 0.  1.
         11   -1    0    0    0    0 -0.00000000000E+00 -0.00000000000E+00 -0.45593999997E+02  0.45594000000E+02  0.51100000000E-03 0. -1.
         23    2    1    2    0    0  0.00000000000E+00  0.00000000000E+00 -0.35527136788E-14  0.91188000000E+02  0.91188000000E+02 0.  0.
    9900012    2    3    3    0    0  0.57308683396E+01  0.38419929446E+02 -0.19356906884E+02  0.47787266427E+02  0.19999978948E+02 0.  0.
        -12    1    3    3    0    0 -0.57308683396E+01 -0.38419929446E+02  0.19356906884E+02  0.43400733573E+02  0.00000000000E+00 0.  1.
         11    1    4    4    0    0  0.10301962654E+00  0.28538239854E+02 -0.83442672023E+01  0.29733290137E+02  0.51100000000E-03 0. -1.
        -11    1    4    4    0    0  0.20810489142E+01  0.76704720972E+00 -0.72384308182E+01  0.75706014936E+01  0.51100000000E-03 0.  1.
        -12    1    4    4    0    0  0.35467997989E+01  0.91146423823E+01 -0.37742088638E+01  0.10483374796E+02  0.00000000000E+00 0.  1.
</event>
<event>
 8    1  0.6469014E-010  0.9118800E+02  0.7816164E-02  0.1184000E+00
        -11   -1    0    0    0    0  0.00000000000E+00  0.00000000000E+00  0.45593999997E+02  0.45594000000E+02  0.51100000000E-03 0.  1.
         11   -1    0    0    0    0 -0.00000000000E+00 -0.00000000000E+00 -0.45593999997E+02  0.45594000000E+02  0.51100000000E-03 0. -1.
         23    2    1    2    0    0  0.35527136788E-14 -0.71054273576E-14  0.44408920985E-15  0.91188000000E+02  0.91188000000E+02 0.  0.
    9900012    2    3    3    0    0  0.23242913165E+02 -0.36607577769E+02  0.18098601017E+01  0.47787270098E+02  0.19999995683E+02 0.  0.
         12    1    3    3    0    0 -0.23242913165E+02  0.36607577769E+02 -0.18098601017E+01  0.43400729902E+02  0.00000000000E+00 0. -1.
         11    1    4    4    0    0  0.76577789274E+01 -0.24377928003E+02 -0.76656895981E+00  0.25563892114E+02  0.51100000000E-03 0. -1.
        -11    1    4    4    0    0  0.77366382640E+01 -0.98220733769E+01 -0.22445557839E+01  0.12703020427E+02  0.51100000000E-03 0.  1.
         12    1    4    4    0    0  0.78484959733E+01 -0.24075763890E+01  0.48209848454E+01  0.95203575558E+01  0.00000000000E+00 0. -1.
</event>
<event>
 8    1  0.6469014E-010  0.9118800E+02  0.7816164E-02  0.1184000E+00
        -11   -1    0    0    0    0  0.00000000000E+00  0.00000000000E+00  0.45593999997E+02  0.45594000000E+02  0.51100000000E-03 0. -1.
         11   -1    0    0    0    0 -0.00000000000E+00 -0.00000000000E+00 -0.45593999997E+02  0.45594000000E+02  0.51100000000E-03 0.  1.
         23    2    1    2    0    0  0.00000000000E+00  0.00000000000E+00  0.00000000000E+00  0.91188000000E+02  0.91188000000E+02 0.  0.
    9900012    2    3    3    0    0 -0.13277908009E+02  0.40856071785E+02  0.61726691017E+01  0.47787270898E+02  0.19999999330E+02 0.  0.
        -12    1    3    3    0    0  0.13277908009E+02 -0.40856071785E+02 -0.61726691017E+01  0.43400729102E+02  0.00000000000E+00 0.  1.
         11    1    4    4    0    0 -0.12552059715E+02  0.17363121730E+02  0.83699691334E+01  0.23001925633E+02  0.51100000000E-03 0. -1.
        -11    1    4    4    0    0 -0.15988382001E+01  0.12545617962E+02 -0.47514018405E+01  0.13510167777E+02  0.51100000000E-03 0.  1.
         12    1    4    4    0    0  0.87298990558E+00  0.10947332093E+02  0.25541018087E+01  0.11275177487E+02  0.00000000000E+00 0. -1.
</event>
<event>
 8    1  0.6469014E-010  0.9118800E+02  0.7816164E-02  0.1184000E+00
        -11   -1    0    0    0    0  0.00000000000E+00  0.00000000000E+00  0.45593999997E+02  0.45594000000E+02  0.51100000000E-03 0. -1.
         11   -1    0    0    0    0 -0.00000000000E+00 -0.00000000000E+00 -0.45593999997E+02  0.45594000000E+02  0.51100000000E-03 0.  1.
         23    2    1    2    0    0 -0.17763568394E-14 -0.35527136788E-14  0.00000000000E+00  0.91188000000E+02  0.91188000000E+02 0.  0.
    9900012    2    3    3    0    0  0.14855717378E+02  0.20100958279E+02  0.35480726275E+02  0.47787276509E+02  0.20000024916E+02 0.  0.
        -12    1    3    3    0    0 -0.14855717378E+02 -0.20100958279E+02 -0.35480726275E+02  0.43400723491E+02  0.00000000000E+00 0.  1.
         11    1    4    4    0    0  0.14607298413E+02  0.20204141309E+02  0.20498026051E+02  0.32276145451E+02  0.51100000000E-03 0. -1.
        -11    1    4    4    0    0  0.10942961015E+01  0.47526462087E+00  0.14123625593E+02  0.14173925376E+02  0.51100000000E-03 0.  1.
        -12    1    4    4    0    0 -0.84587713625E+00 -0.57844765061E+00  0.85907463027E+00  0.13372056815E+01  0.00000000000E+00 0.  1.
</event>
<event>
 8    1  0.6469014E-010  0.9118800E+02  0.7816164E-02  0.1184000E+00
        -11   -1    0    0    0    0  0.00000000000E+00  0.00000000000E+00  0.45593999997E+02  0.45594000000E+02  0.51100000000E-03 0.  1.
         11   -1    0    0    0    0 -0.00000000000E+00 -0.00000000000E+00 -0.45593999997E+02  0.45594000000E+02  0.51100000000E-03 0. -1.
         23    2    1    2    0    0  0.35527136788E-14  0.00000000000E+00  0.00000000000E+00  0.91188000000E+02  0.91188000000E+02 0.  0.
    9900012    2    3    3    0    0  0.28704607692E+02 -0.13602019572E+02 -0.29574519239E+02  0.47787290013E+02  0.20000086484E+02 0.  0.
         12    1    3    3    0    0 -0.28704607692E+02  0.13602019572E+02  0.29574519239E+02  0.43400709987E+02  0.00000000000E+00 0. -1.
         11    1    4    4    0    0 -0.58629085411E+00  0.10806443286E+01 -0.23759941439E+01  0.26752341138E+01  0.51100000000E-03 0. -1.
        -11    1    4    4    0    0  0.88254421843E+01 -0.55179681898E+01 -0.18167718920E+02  0.20938061365E+02  0.51100000000E-03 0.  1.
        -12    1    4    4    0    0  0.20465456362E+02 -0.91646957104E+01 -0.90308061744E+01  0.24173994534E+02  0.00000000000E+00 0.  1.
</event>
<event>
 8    1  0.7089554E-010  0.9118800E+02  0.7816164E-02  0.1184000E+00
        -11   -1    0    0    0    0  0.00000000000E+00  0.00000000000E+00  0.45593999997E+02  0.45594000000E+02  0.51100000000E-03 0.  1.
         11   -1    0    0    0    0 -0.00000000000E+00 -0.00000000000E+00 -0.45593999997E+02  0.45594000000E+02  0.51100000000E-03 0. -1.
         23    2    1    2    0    0  0.00000000000E+00  0.00000000000E+00  0.00000000000E+00  0.91188000000E+02  0.91188000000E+02 0.  0.
    9900012    2    3    3    0    0 -0.38556672629E+02 -0.14122668112E+02 -0.14055477048E+02  0.47787271966E+02  0.20000004203E+02 0.  0.
         12    1    3    3    0    0  0.38556672629E+02  0.14122668112E+02  0.14055477048E+02  0.43400728034E+02  0.00000000000E+00 0. -1.
         11    1    4    4    0    0 -0.55775502254E+01  0.36465014902E+01 -0.28570745861E+00  0.66699076941E+01  0.51100000000E-03 0. -1.
        -11    1    4    4    0    0 -0.28933576883E+02 -0.11199885727E+02 -0.11212596885E+02  0.32989568665E+02  0.51100000000E-03 0.  1.
         12    1    4    4    0    0 -0.40455455206E+01 -0.65692838753E+01 -0.25571727043E+01  0.81277956072E+01  0.00000000000E+00 0. -1.
</event>
<event>
 8    1  0.6469014E-010  0.9118800E+02  0.7816164E-02  0.1184000E+00
        -11   -1    0    0    0    0  0.00000000000E+00  0.00000000000E+00  0.45593999997E+02  0.45594000000E+02  0.51100000000E-03 0. -1.
         11   -1    0    0    0    0 -0.00000000000E+00 -0.00000000000E+00 -0.45593999997E+02  0.45594000000E+02  0.51100000000E-03 0.  1.
         23    2    1    2    0    0 -0.17763568394E-14 -0.35527136788E-14  0.71054273576E-14  0.91188000000E+02  0.91188000000E+02 0.  0.
    9900012    2    3    3    0    0  0.95157038924E+01  0.23840333839E+02 -0.34995902509E+02  0.47787270391E+02  0.19999997022E+02 0.  0.
         12    1    3    3    0    0 -0.95157038924E+01 -0.23840333839E+02  0.34995902509E+02  0.43400729609E+02  0.00000000000E+00 0. -1.
         11    1    4    4    0    0  0.84658955447E+01  0.74571395470E+01 -0.10542248760E+02  0.15440833098E+02  0.51100000000E-03 0. -1.
        -11    1    4    4    0    0 -0.56323449318E+01  0.11284367112E+02 -0.16559473877E+02  0.20815293077E+02  0.51100000000E-03 0.  1.
        -12    1    4    4    0    0  0.66821532795E+01  0.50988271799E+01 -0.78941798728E+01  0.11531144216E+02  0.00000000000E+00 0.  1.
</event>
<event>
 8    1  0.6469014E-010  0.9118800E+02  0.7816164E-02  0.1184000E+00
        -11   -1    0    0    0    0  0.00000000000E+00  0.00000000000E+00  0.45593999997E+02  0.45594000000E+02  0.51100000000E-03 0. -1.
         11   -1    0    0    0    0 -0.00000000000E+00 -0.00000000000E+00 -0.45593999997E+02  0.45594000000E+02  0.51100000000E-03 0.  1.
         23    2    1    2    0    0  0.00000000000E+00  0.71054273576E-14 -0.35527136788E-14  0.91188000000E+02  0.91188000000E+02 0.  0.
    9900012    2    3    3    0    0 -0.21567770286E+02 -0.20691369023E+02  0.31469377070E+02  0.47787272353E+02  0.20000005965E+02 0.  0.
        -12    1    3    3    0    0  0.21567770286E+02  0.20691369023E+02 -0.31469377070E+02  0.43400727647E+02  0.00000000000E+00 0.  1.
         11    1    4    4    0    0  0.18984979358E+01  0.86696044721E+00  0.73317098343E+00  0.22121154539E+01  0.51100000000E-03 0.  1.
        -11    1    4    4    0    0 -0.24145959970E+02 -0.20809721369E+02  0.31067270276E+02  0.44511202736E+02  0.51100000000E-03 0. -1.
         12    1    4    4    0    0  0.67969174917E+00 -0.74860810116E+00 -0.33106418921E+00  0.10639541627E+01  0.00000000000E+00 0. -1.
</event>
<event>
 8    1  0.6469014E-010  0.9118800E+02  0.7816164E-02  0.1184000E+00
        -11   -1    0    0    0    0  0.00000000000E+00  0.00000000000E+00  0.45593999997E+02  0.45594000000E+02  0.51100000000E-03 0. -1.
         11   -1    0    0    0    0 -0.00000000000E+00 -0.00000000000E+00 -0.45593999997E+02  0.45594000000E+02  0.51100000000E-03 0.  1.
         23    2    1    2    0    0  0.44408920985E-15  0.00000000000E+00  0.71054273576E-14  0.91188000000E+02  0.91188000000E+02 0.  0.
    9900012    2    3    3    0    0  0.24707010312E+01  0.25993282600E+02  0.34667972163E+02  0.47787269617E+02  0.19999993493E+02 0.  0.
        -12    1    3    3    0    0 -0.24707010312E+01 -0.25993282600E+02 -0.34667972163E+02  0.43400730383E+02  0.00000000000E+00 0.  1.
         11    1    4    4    0    0  0.10073305224E+02  0.10473947690E+02  0.16429915323E+02  0.21934383423E+02  0.51100000000E-03 0. -1.
        -11    1    4    4    0    0 -0.63308756044E+01  0.86372504366E+01  0.76494198476E+01  0.13160383934E+02  0.51100000000E-03 0.  1.
         12    1    4    4    0    0 -0.12717285880E+01  0.68820844728E+01  0.10588636992E+02  0.12692502261E+02  0.00000000000E+00 0. -1.
</event>
<event>
 8    1  0.6469014E-010  0.9118800E+02  0.7816164E-02  0.1184000E+00
        -11   -1    0    0    0    0  0.00000000000E+00  0.00000000000E+00  0.45593999997E+02  0.45594000000E+02  0.51100000000E-03 0. -1.
         11   -1    0    0    0    0 -0.00000000000E+00 -0.00000000000E+00 -0.45593999997E+02  0.45594000000E+02  0.51100000000E-03 0.  1.
         23    2    1    2    0    0  0.00000000000E+00 -0.35527136788E-14 -0.35527136788E-14  0.91188000000E+02  0.91188000000E+02 0.  0.
    9900012    2    3    3    0    0  0.21559532920E+02 -0.26078597969E+02 -0.27179347502E+02  0.47787266569E+02  0.19999979593E+02 0.  0.
         12    1    3    3    0    0 -0.21559532920E+02  0.26078597969E+02  0.27179347502E+02  0.43400733431E+02  0.00000000000E+00 0. -1.
         11    1    4    4    0    0  0.17891252551E+02 -0.13267313242E+02 -0.10818828993E+02  0.24762180428E+02  0.51100000000E-03 0. -1.
        -11    1    4    4    0    0  0.62979883268E+01 -0.95324884270E+01 -0.89804970520E+01  0.14532113409E+02  0.51100000000E-03 0.  1.
         12    1    4    4    0    0 -0.26297079579E+01 -0.32787963001E+01 -0.73800214566E+01  0.84929727317E+01  0.00000000000E+00 0. -1.
</event>
<event>
 8    1  0.6469014E-010  0.9118800E+02  0.7816164E-02  0.1184000E+00
        -11   -1    0    0    0    0  0.00000000000E+00  0.00000000000E+00  0.45593999997E+02  0.45594000000E+02  0.51100000000E-03 0. -1.
         11   -1    0    0    0    0 -0.00000000000E+00 -0.00000000000E+00 -0.45593999997E+02  0.45594000000E+02  0.51100000000E-03 0.  1.
         23    2    1    2    0    0  0.00000000000E+00  0.00000000000E+00  0.17763568394E-14  0.91188000000E+02  0.91188000000E+02 0.  0.
    9900012    2    3    3    0    0  0.33206017917E+02  0.24782384012E+02 -0.12915749163E+02  0.47787276969E+02  0.20000027011E+02 0.  0.
         12    1    3    3    0    0 -0.33206017917E+02 -0.24782384012E+02  0.12915749163E+02  0.43400723031E+02  0.00000000000E+00 0. -1.
         11    1    4    4    0    0  0.25513418599E+02  0.12887209862E+02 -0.13532332715E+02  0.31624970128E+02  0.51100000000E-03 0. -1.
        -11    1    4    4    0    0  0.31203569057E+01  0.24334749478E+01 -0.30885556209E+01  0.50197214689E+01  0.51100000000E-03 0.  1.
         12    1    4    4    0    0  0.45722424118E+01  0.94616992021E+01  0.37051391730E+01  0.11142585371E+02  0.00000000000E+00 0. -1.
</event>
<event>
 8    1  0.6469014E-010  0.9118800E+02  0.7816164E-02  0.1184000E+00
        -11   -1    0    0    0    0  0.00000000000E+00  0.00000000000E+00  0.45593999997E+02  0.45594000000E+02  0.51100000000E-03 0. -1.
         11   -1    0    0    0    0 -0.00000000000E+00 -0.00000000000E+00 -0.45593999997E+02  0.45594000000E+02  0.51100000000E-03 0.  1.
         23    2    1    2    0    0 -0.88817841970E-15  0.00000000000E+00  0.00000000000E+00  0.91188000000E+02  0.91188000000E+02 0.  0.
    9900012    2    3    3    0    0  0.69960138421E+01 -0.16843030924E+02 -0.39382627971E+02  0.47787270901E+02  0.19999999347E+02 0.  0.
         12    1    3    3    0    0 -0.69960138421E+01  0.16843030924E+02  0.39382627971E+02  0.43400729099E+02  0.00000000000E+00 0. -1.
         11    1    4    4    0    0  0.75634828143E+00 -0.13277024009E+02 -0.14026754653E+02  0.19328768083E+02  0.51100000000E-03 0. -1.
        -11    1    4    4    0    0  0.75897951045E+01 -0.52466939909E+01 -0.24426209027E+02  0.26110773164E+02  0.51100000000E-03 0.  1.
        -12    1    4    4    0    0 -0.13501295438E+01  0.16806870760E+01 -0.92966429139E+00  0.23477296538E+01  0.00000000000E+00 0.  1.
</event>
<event>
 8    1  0.6469014E-010  0.9118800E+02  0.7816164E-02  0.1184000E+00
        -11   -1    0    0    0    0  0.00000000000E+00  0.00000000000E+00  0.45593999997E+02  0.45594000000E+02  0.51100000000E-03 0.  1.
         11   -1    0    0    0    0 -0.00000000000E+00 -0.00000000000E+00 -0.45593999997E+02  0.45594000000E+02  0.51100000000E-03 0. -1.
         23    2    1    2    0    0  0.00000000000E+00  0.00000000000E+00  0.17763568394E-14  0.91188000000E+02  0.91188000000E+02 0.  0.
    9900012    2    3    3    0    0 -0.33597920233E+02  0.24615760130E+02  0.12201127134E+02  0.47787269659E+02  0.19999993685E+02 0.  0.
        -12    1    3    3    0    0  0.33597920233E+02 -0.24615760130E+02 -0.12201127134E+02  0.43400730341E+02  0.00000000000E+00 0.  1.
         11    1    4    4    0    0 -0.19476755114E+01 -0.23639584422E+01 -0.78063694397E+00  0.31608754663E+01  0.51100000000E-03 0. -1.
        -11    1    4    4    0    0 -0.13353428352E+01  0.49726977694E+01  0.65847323170E+00  0.51908044512E+01  0.51100000000E-03 0.  1.
         12    1    4    4    0    0 -0.30314901887E+02  0.22007020803E+02  0.12323290846E+02  0.39435589742E+02  0.00000000000E+00 0. -1.
</event>
<event>
 8    1  0.6469014E-010  0.9118800E+02  0.7816164E-02  0.1184000E+00
        -11   -1    0    0    0    0  0.00000000000E+00  0.00000000000E+00  0.45593999997E+02  0.45594000000E+02  0.51100000000E-03 0. -1.
         11   -1    0    0    0    0 -0.00000000000E+00 -0.00000000000E+00 -0.45593999997E+02  0.45594000000E+02  0.51100000000E-03 0.  1.
         23    2    1    2    0    0 -0.35527136788E-14  0.00000000000E+00  0.00000000000E+00  0.91188000000E+02  0.91188000000E+02 0.  0.
    9900012    2    3    3    0    0  0.27651502507E+02 -0.16231531188E+02 -0.29249874489E+02  0.47787270130E+02  0.19999995832E+02 0.  0.
         12    1    3    3    0    0 -0.27651502507E+02  0.16231531188E+02  0.29249874489E+02  0.43400729870E+02  0.00000000000E+00 0. -1.
         11    1    4    4    0    0 -0.11870535927E+01  0.19983564688E+01 -0.59830865767E+00  0.24001038142E+01  0.51100000000E-03 0. -1.
        -11    1    4    4    0    0  0.19080533539E+02 -0.11569562346E+02 -0.23773894642E+02  0.32605514867E+02  0.51100000000E-03 0.  1.
        -12    1    4    4    0    0  0.97580225609E+01 -0.66603253105E+01 -0.48776711889E+01  0.12781651449E+02  0.00000000000E+00 0.  1.
</event>
<event>
 8    1  0.6469014E-010  0.9118800E+02  0.7816164E-02  0.1184000E+00
        -11   -1    0    0    0    0  0.00000000000E+00  0.00000000000E+00  0.45593999997E+02  0.45594000000E+02  0.51100000000E-03 0. -1.
         11   -1    0    0    0    0 -0.00000000000E+00 -0.00000000000E+00 -0.45593999997E+02  0.45594000000E+02  0.51100000000E-03 0.  1.
         23    2    1    2    0    0  0.00000000000E+00  0.00000000000E+00  0.00000000000E+00  0.91188000000E+02  0.91188000000E+02 0.  0.
    9900012    2    3    3    0    0  0.37914730524E+02 -0.16412131292E+02 -0.13294293411E+02  0.47787273260E+02  0.20000010100E+02 0.  0.
         12    1    3    3    0    0 -0.37914730524E+02  0.16412131292E+02  0.13294293411E+02  0.43400726740E+02  0.00000000000E+00 0. -1.
         11    1    4    4    0    0  0.21707519099E+02 -0.89422034092E+01 -0.14533115443E+02  0.27611425751E+02  0.51100000000E-03 0. -1.
        -11    1    4    4    0    0  0.71115382051E+00 -0.30673747668E+01 -0.20189567561E+01  0.37404163352E+01  0.51100000000E-03 0.  1.
         12    1    4    4    0    0  0.15496057605E+02 -0.44025531163E+01  0.32577787881E+01  0.16435431174E+02  0.00000000000E+00 0. -1.
</event>
<event>
 8    1  0.6469014E-010  0.9118800E+02  0.7816164E-02  0.1184000E+00
        -11   -1    0    0    0    0  0.00000000000E+00  0.00000000000E+00  0.45593999997E+02  0.45594000000E+02  0.51100000000E-03 0. -1.
         11   -1    0    0    0    0 -0.00000000000E+00 -0.00000000000E+00 -0.45593999997E+02  0.45594000000E+02  0.51100000000E-03 0.  1.
         23    2    1    2    0    0  0.00000000000E+00 -0.44408920985E-15  0.00000000000E+00  0.91188000000E+02  0.91188000000E+02 0.  0.
    9900012    2    3    3    0    0 -0.17842557639E+02  0.24883865881E+01 -0.39485163127E+02  0.47787227679E+02  0.19999802280E+02 0.  0.
         12    1    3    3    0    0  0.17842557639E+02 -0.24883865881E+01  0.39485163127E+02  0.43400772321E+02  0.00000000000E+00 0. -1.
         11    1    4    4    0    0 -0.99459385884E+00  0.44281569062E+01 -0.21378387608E+01  0.50167863576E+01  0.51100000000E-03 0. -1.
        -11    1    4    4    0    0 -0.17364493973E+02 -0.34019388072E+01 -0.26830618174E+02  0.32140020387E+02  0.51100000000E-03 0.  1.
        -12    1    4    4    0    0  0.51653019324E+00  0.14621684891E+01 -0.10516706192E+02  0.10630420935E+02  0.00000000000E+00 0.  1.
</event>
<event>
 8    1  0.6469014E-010  0.9118800E+02  0.7816164E-02  0.1184000E+00
        -11   -1    0    0    0    0  0.00000000000E+00  0.00000000000E+00  0.45593999997E+02  0.45594000000E+02  0.51100000000E-03 0. -1.
         11   -1    0    0    0    0 -0.00000000000E+00 -0.00000000000E+00 -0.45593999997E+02  0.45594000000E+02  0.51100000000E-03 0.  1.
         23    2    1    2    0    0  0.35527136788E-14 -0.35527136788E-14 -0.71054273576E-14  0.91188000000E+02  0.91188000000E+02 0.  0.
    9900012    2    3    3    0    0 -0.19805215942E+02  0.10149233230E+02  0.37260826835E+02  0.47787277309E+02  0.20000028563E+02 0.  0.
        -12    1    3    3    0    0  0.19805215942E+02 -0.10149233230E+02 -0.37260826835E+02  0.43400722691E+02  0.00000000000E+00 0.  1.
         11    1    4    4    0    0 -0.37468168068E+01 -0.63867245890E+00  0.52267975091E+01  0.64626582113E+01  0.51100000000E-03 0. -1.
        -11    1    4    4    0    0 -0.14592540874E+02 -0.35093277255E+00  0.15092828180E+02  0.20996639390E+02  0.51100000000E-03 0.  1.
        -12    1    4    4    0    0 -0.14658582620E+01  0.11138838462E+02  0.16941201146E+02  0.20327979707E+02  0.00000000000E+00 0.  1.
</event>
<event>
 8    1  0.6564034E-010  0.9118800E+02  0.7816164E-02  0.1184000E+00
        -11   -1    0    0    0    0  0.00000000000E+00  0.00000000000E+00  0.45593999997E+02  0.45594000000E+02  0.51100000000E-03 0. -1.
         11   -1    0    0    0    0 -0.00000000000E+00 -0.00000000000E+00 -0.45593999997E+02  0.45594000000E+02  0.51100000000E-03 0.  1.
         23    2    1    2    0    0  0.00000000000E+00  0.35527136788E-14 -0.71054273576E-14  0.91188000000E+02  0.91188000000E+02 0.  0.
    9900012    2    3    3    0    0 -0.10567283895E+02  0.17728707067E+02 -0.38179159921E+02  0.47787276556E+02  0.20000025130E+02 0.  0.
         12    1    3    3    0    0  0.10567283895E+02 -0.17728707067E+02  0.38179159921E+02  0.43400723444E+02  0.00000000000E+00 0. -1.
         11    1    4    4    0    0 -0.11590511420E+02  0.63363756162E+01 -0.24862935887E+02  0.28154132771E+02  0.51100000000E-03 0. -1.
        -11    1    4    4    0    0 -0.17724122070E+01  0.97368629414E+01 -0.13042821252E+02  0.16372633613E+02  0.51100000000E-03 0.  1.
         12    1    4    4    0    0  0.27956397321E+01  0.16554685097E+01 -0.27340278245E+00  0.32605101717E+01  0.00000000000E+00 0. -1.
</event>
<event>
 8    1  0.6469014E-010  0.9118800E+02  0.7816164E-02  0.1184000E+00
        -11   -1    0    0    0    0  0.00000000000E+00  0.00000000000E+00  0.45593999997E+02  0.45594000000E+02  0.51100000000E-03 0.  1.
         11   -1    0    0    0    0 -0.00000000000E+00 -0.00000000000E+00 -0.45593999997E+02  0.45594000000E+02  0.51100000000E-03 0. -1.
         23    2    1    2    0    0 -0.11102230246E-15  0.00000000000E+00 -0.88817841970E-15  0.91188000000E+02  0.91188000000E+02 0.  0.
    9900012    2    3    3    0    0 -0.27089758578E+00  0.43247315442E+02  0.36358816466E+01  0.47787270585E+02  0.19999997905E+02 0.  0.
         12    1    3    3    0    0  0.27089758578E+00 -0.43247315442E+02 -0.36358816466E+01  0.43400729415E+02  0.00000000000E+00 0. -1.
         11    1    4    4    0    0  0.21409945893E+01  0.10633314959E+02 -0.62598324913E+01  0.12523447925E+02  0.51100000000E-03 0. -1.
        -11    1    4    4    0    0  0.26815994785E+01  0.14561884908E+02  0.66358636704E+01  0.16225725092E+02  0.51100000000E-03 0.  1.
         12    1    4    4    0    0 -0.50934916537E+01  0.18052115575E+02  0.32598504674E+01  0.19038097568E+02  0.00000000000E+00 0. -1.
</event>
<event>
 8    1  0.6469014E-010  0.9118800E+02  0.7816164E-02  0.1184000E+00
        -11   -1    0    0    0    0  0.00000000000E+00  0.00000000000E+00  0.45593999997E+02  0.45594000000E+02  0.51100000000E-03 0. -1.
         11   -1    0    0    0    0 -0.00000000000E+00 -0.00000000000E+00 -0.45593999997E+02  0.45594000000E+02  0.51100000000E-03 0.  1.
         23    2    1    2    0    0  0.00000000000E+00 -0.88817841970E-15 -0.35527136788E-14  0.91188000000E+02  0.91188000000E+02 0.  0.
    9900012    2    3    3    0    0  0.29879937926E+02  0.78416711560E+01  0.30484763633E+02  0.47787270620E+02  0.19999998066E+02 0.  0.
        -12    1    3    3    0    0 -0.29879937926E+02 -0.78416711560E+01 -0.30484763633E+02  0.43400729380E+02  0.00000000000E+00 0.  1.
         11    1    4    4    0    0  0.23184020860E+02  0.57029562295E+01  0.19327658309E+02  0.30717762109E+02  0.51100000000E-03 0. -1.
        -11    1    4    4    0    0  0.63539644442E-01 -0.34025177316E+01  0.65001546554E+00  0.34646333958E+01  0.51100000000E-03 0.  1.
        -12    1    4    4    0    0  0.66323774211E+01  0.55412326582E+01  0.10507089858E+02  0.13604875115E+02  0.00000000000E+00 0.  1.
</event>
<event>
 8    1  0.6469014E-010  0.9118800E+02  0.7816164E-02  0.1184000E+00
        -11   -1    0    0    0    0  0.00000000000E+00  0.00000000000E+00  0.45593999997E+02  0.45594000000E+02  0.51100000000E-03 0. -1.
         11   -1    0    0    0    0 -0.00000000000E+00 -0.00000000000E+00 -0.45593999997E+02  0.45594000000E+02  0.51100000000E-03 0.  1.
         23    2    1    2    0    0  0.00000000000E+00  0.00000000000E+00  0.35527136788E-14  0.91188000000E+02  0.91188000000E+02 0.  0.
    9900012    2    3    3    0    0 -0.35174294169E+02  0.16054938548E+02  0.19713749100E+02  0.47787263536E+02  0.19999965765E+02 0.  0.
        -12    1    3    3    0    0  0.35174294169E+02 -0.16054938548E+02 -0.19713749100E+02  0.43400736464E+02  0.00000000000E+00 0.  1.
         11    1    4    4    0    0 -0.23080863473E+01  0.69997984409E+01  0.14383825047E+01  0.75095529355E+01  0.51100000000E-03 0. -1.
        -11    1    4    4    0    0 -0.52919694803E+00  0.17783187352E+01 -0.81614263440E+00  0.20269573243E+01  0.51100000000E-03 0.  1.
         12    1    4    4    0    0 -0.32337010873E+02  0.72768213719E+01  0.19091509230E+02  0.38250753276E+02  0.00000000000E+00 0. -1.
</event>
<event>
 8    1  0.6469014E-010  0.9118800E+02  0.7816164E-02  0.1184000E+00
        -11   -1    0    0    0    0  0.00000000000E+00  0.00000000000E+00  0.45593999997E+02  0.45594000000E+02  0.51100000000E-03 0. -1.
         11   -1    0    0    0    0 -0.00000000000E+00 -0.00000000000E+00 -0.45593999997E+02  0.45594000000E+02  0.51100000000E-03 0.  1.
         23    2    1    2    0    0 -0.35527136788E-14  0.00000000000E+00  0.00000000000E+00  0.91188000000E+02  0.91188000000E+02 0.  0.
    9900012    2    3    3    0    0 -0.27668217539E+02 -0.26666976485E+02  0.20173383998E+02  0.47787270529E+02  0.19999997652E+02 0.  0.
        -12    1    3    3    0    0  0.27668217539E+02  0.26666976485E+02 -0.20173383998E+02  0.43400729471E+02  0.00000000000E+00 0.  1.
         11    1    4    4    0    0 -0.11245000625E+02 -0.18608381432E+02  0.12205762904E+02  0.24933963722E+02  0.51100000000E-03 0. -1.
        -11    1    4    4    0    0 -0.11206630933E+02 -0.48731557708E+00  0.89409545194E+00  0.11252797887E+02  0.51100000000E-03 0.  1.
        -12    1    4    4    0    0 -0.52165859810E+01 -0.75712794753E+01  0.70735256428E+01  0.11600508920E+02  0.00000000000E+00 0.  1.
</event>
<event>
 8    1  0.6469014E-010  0.9118800E+02  0.7816164E-02  0.1184000E+00
        -11   -1    0    0    0    0  0.00000000000E+00  0.00000000000E+00  0.45593999997E+02  0.45594000000E+02  0.51100000000E-03 0. -1.
         11   -1    0    0    0    0 -0.00000000000E+00 -0.00000000000E+00 -0.45593999997E+02  0.45594000000E+02  0.51100000000E-03 0.  1.
         23    2    1    2    0    0  0.00000000000E+00 -0.44408920985E-15  0.00000000000E+00  0.91188000000E+02  0.91188000000E+02 0.  0.
    9900012    2    3    3    0    0  0.51026130232E+01  0.33171160594E+01 -0.42971889629E+02  0.47787271701E+02  0.20000002995E+02 0.  0.
         12    1    3    3    0    0 -0.51026130232E+01 -0.33171160594E+01  0.42971889629E+02  0.43400728299E+02  0.00000000000E+00 0. -1.
         11    1    4    4    0    0 -0.72158864694E+00  0.20883333258E+00  0.16724187349E-01  0.75138638247E+00  0.51100000000E-03 0. -1.
        -11    1    4    4    0    0  0.51731465172E+01  0.91174606529E+01 -0.37265828815E+02  0.38712162575E+02  0.51100000000E-03 0.  1.
        -12    1    4    4    0    0  0.65105515296E+00 -0.60091779261E+01 -0.57227850005E+01  0.83237227441E+01  0.00000000000E+00 0.  1.
</event>
<event>
 8    1  0.6469014E-010  0.9118800E+02  0.7816164E-02  0.1184000E+00
        -11   -1    0    0    0    0  0.00000000000E+00  0.00000000000E+00  0.45593999997E+02  0.45594000000E+02  0.51100000000E-03 0. -1.
         11   -1    0    0    0    0 -0.00000000000E+00 -0.00000000000E+00 -0.45593999997E+02  0.45594000000E+02  0.51100000000E-03 0.  1.
         23    2    1    2    0    0  0.00000000000E+00  0.00000000000E+00 -0.35527136788E-14  0.91188000000E+02  0.91188000000E+02 0.  0.
    9900012    2    3    3    0    0  0.78045820420E+01 -0.33541722962E+02  0.26413251305E+02  0.47787325759E+02  0.20000249465E+02 0.  0.
        -12    1    3    3    0    0 -0.78045820420E+01  0.33541722962E+02 -0.26413251305E+02  0.43400674241E+02  0.00000000000E+00 0.  1.
         11    1    4    4    0    0  0.12575362368E+01  0.83431112816E+00 -0.17296910613E+01  0.22954964330E+01  0.51100000000E-03 0. -1.
        -11    1    4    4    0    0 -0.80784111735E+00 -0.47736220046E+01  0.64374985162E+01  0.80549029616E+01  0.51100000000E-03 0.  1.
         12    1    4    4    0    0  0.73548869226E+01 -0.29602412085E+02  0.21705443850E+02  0.37436926364E+02  0.00000000000E+00 0. -1.
</event>
<event>
 8    1  0.6469014E-010  0.9118800E+02  0.7816164E-02  0.1184000E+00
        -11   -1    0    0    0    0  0.00000000000E+00  0.00000000000E+00  0.45593999997E+02  0.45594000000E+02  0.51100000000E-03 0. -1.
         11   -1    0    0    0    0 -0.00000000000E+00 -0.00000000000E+00 -0.45593999997E+02  0.45594000000E+02  0.51100000000E-03 0.  1.
         23    2    1    2    0    0  0.88817841970E-15  0.88817841970E-15 -0.71054273576E-14  0.91188000000E+02  0.91188000000E+02 0.  0.
    9900012    2    3    3    0    0 -0.47728864397E+01  0.14043085904E+01  0.43114631913E+02  0.47787262534E+02  0.19999961198E+02 0.  0.
        -12    1    3    3    0    0  0.47728864397E+01 -0.14043085904E+01 -0.43114631913E+02  0.43400737466E+02  0.00000000000E+00 0.  1.
         11    1    4    4    0    0  0.29542672804E+01 -0.70078915993E+00  0.93215531191E+01  0.98035786029E+01  0.51100000000E-03 0. -1.
        -11    1    4    4    0    0 -0.34021129667E+01  0.80267245394E+01  0.25316303980E+02  0.26775323097E+02  0.51100000000E-03 0.  1.
        -12    1    4    4    0    0 -0.43250407534E+01 -0.59216267890E+01  0.84767748142E+01  0.11208360835E+02  0.00000000000E+00 0.  1.
</event>
<event>
 8    1  0.6469014E-010  0.9118800E+02  0.7816164E-02  0.1184000E+00
        -11   -1    0    0    0    0  0.00000000000E+00  0.00000000000E+00  0.45593999997E+02  0.45594000000E+02  0.51100000000E-03 0. -1.
         11   -1    0    0    0    0 -0.00000000000E+00 -0.00000000000E+00 -0.45593999997E+02  0.45594000000E+02  0.51100000000E-03 0.  1.
         23    2    1    2    0    0  0.00000000000E+00  0.35527136788E-14  0.00000000000E+00  0.91188000000E+02  0.91188000000E+02 0.  0.
    9900012    2    3    3    0    0  0.17131265455E+02 -0.18998035019E+02 -0.35060202523E+02  0.47787269688E+02  0.19999993814E+02 0.  0.
         12    1    3    3    0    0 -0.17131265455E+02  0.18998035019E+02  0.35060202523E+02  0.43400730312E+02  0.00000000000E+00 0. -1.
         11    1    4    4    0    0  0.91375307179E+00 -0.50469537204E+01 -0.54465656770E+01  0.74814279698E+01  0.51100000000E-03 0. -1.
        -11    1    4    4    0    0 -0.35238811208E+01 -0.90432244494E+00 -0.32273972122E+01  0.48632941782E+01  0.51100000000E-03 0.  1.
        -12    1    4    4    0    0  0.19741393504E+02 -0.13046758854E+02 -0.26386239634E+02  0.35442547540E+02  0.00000000000E+00 0.  1.
</event>
<event>
 8    1  0.6469014E-010  0.9118800E+02  0.7816164E-02  0.1184000E+00
        -11   -1    0    0    0    0  0.00000000000E+00  0.00000000000E+00  0.45593999997E+02  0.45594000000E+02  0.51100000000E-03 0. -1.
         11   -1    0    0    0    0 -0.00000000000E+00 -0.00000000000E+00 -0.45593999997E+02  0.45594000000E+02  0.51100000000E-03 0.  1.
         23    2    1    2    0    0  0.17763568394E-14 -0.35527136788E-14  0.00000000000E+00  0.91188000000E+02  0.91188000000E+02 0.  0.
    9900012    2    3    3    0    0 -0.14240143128E+02  0.13464345809E+02 -0.38724063640E+02  0.47787269716E+02  0.19999993944E+02 0.  0.
         12    1    3    3    0    0  0.14240143128E+02 -0.13464345809E+02  0.38724063640E+02  0.43400730284E+02  0.00000000000E+00 0. -1.
         11    1    4    4    0    0  0.25298358845E+00  0.58234438783E+01 -0.28565965120E+01  0.64912743890E+01  0.51100000000E-03 0. -1.
        -11    1    4    4    0    0 -0.42170095742E+01 -0.29530817657E+01 -0.13975274984E+02  0.14893360024E+02  0.51100000000E-03 0.  1.
        -12    1    4    4    0    0 -0.10276117142E+02  0.10593983696E+02 -0.21892192144E+02  0.26402635303E+02  0.00000000000E+00 0.  1.
</event>
<event>
 8    1  0.6469014E-010  0.9118800E+02  0.7816164E-02  0.1184000E+00
        -11   -1    0    0    0    0  0.00000000000E+00  0.00000000000E+00  0.45593999997E+02  0.45594000000E+02  0.51100000000E-03 0. -1.
         11   -1    0    0    0    0 -0.00000000000E+00 -0.00000000000E+00 -0.45593999997E+02  0.45594000000E+02  0.51100000000E-03 0.  1.
         23    2    1    2    0    0  0.00000000000E+00  0.00000000000E+00  0.00000000000E+00  0.91188000000E+02  0.91188000000E+02 0.  0.
    9900012    2    3    3    0    0  0.29134201699E+02 -0.33629702196E+01 -0.31992374675E+02  0.47787270574E+02  0.19999997855E+02 0.  0.
         12    1    3    3    0    0 -0.29134201699E+02  0.33629702196E+01  0.31992374675E+02  0.43400729426E+02  0.00000000000E+00 0. -1.
         11    1    4    4    0    0  0.22557994198E+02  0.38328010696E+01 -0.18721921018E+02  0.29564569896E+02  0.51100000000E-03 0. -1.
        -11    1    4    4    0    0  0.60053040865E+01 -0.71287562610E+01 -0.14284733610E+02  0.17056859546E+02  0.51100000000E-03 0.  1.
        -12    1    4    4    0    0  0.57090341421E+00 -0.67015028283E-01  0.10142799526E+01  0.11658411318E+01  0.00000000000E+00 0.  1.
</event>
<event>
 8    1  0.6469014E-010  0.9118800E+02  0.7816164E-02  0.1184000E+00
        -11   -1    0    0    0    0  0.00000000000E+00  0.00000000000E+00  0.45593999997E+02  0.45594000000E+02  0.51100000000E-03 0. -1.
         11   -1    0    0    0    0 -0.00000000000E+00 -0.00000000000E+00 -0.45593999997E+02  0.45594000000E+02  0.51100000000E-03 0.  1.
         23    2    1    2    0    0  0.00000000000E+00  0.00000000000E+00  0.00000000000E+00  0.91188000000E+02  0.91188000000E+02 0.  0.
    9900012    2    3    3    0    0 -0.19032146111E+02 -0.68980343249E+01 -0.38390332746E+02  0.47787272915E+02  0.20000008528E+02 0.  0.
         12    1    3    3    0    0  0.19032146111E+02  0.68980343249E+01  0.38390332746E+02  0.43400727085E+02  0.00000000000E+00 0. -1.
         11    1    4    4    0    0 -0.18218594486E+01 -0.21717413361E+01 -0.21217925098E+01  0.35408524393E+01  0.51100000000E-03 0. -1.
        -11    1    4    4    0    0 -0.16515250442E+02 -0.10201204188E+02 -0.31242312062E+02  0.36781790703E+02  0.51100000000E-03 0.  1.
        -12    1    4    4    0    0 -0.69503622048E+00  0.54749111991E+01 -0.50262281746E+01  0.74646297730E+01  0.00000000000E+00 0.  1.
</event>
<event>
 8    1  0.6469014E-010  0.9118800E+02  0.7816164E-02  0.1184000E+00
        -11   -1    0    0    0    0  0.00000000000E+00  0.00000000000E+00  0.45593999997E+02  0.45594000000E+02  0.51100000000E-03 0. -1.
         11   -1    0    0    0    0 -0.00000000000E+00 -0.00000000000E+00 -0.45593999997E+02  0.45594000000E+02  0.51100000000E-03 0.  1.
         23    2    1    2    0    0 -0.71054273576E-14 -0.11102230246E-15 -0.35527136788E-14  0.91188000000E+02  0.91188000000E+02 0.  0.
    9900012    2    3    3    0    0  0.33800059605E+02  0.18297012929E+00  0.27223995963E+02  0.47787268859E+02  0.19999990037E+02 0.  0.
        -12    1    3    3    0    0 -0.33800059605E+02 -0.18297012929E+00 -0.27223995963E+02  0.43400731141E+02  0.00000000000E+00 0.  1.
         11    1    4    4    0    0  0.22890639340E+02 -0.71235446660E+01  0.10542528152E+02  0.26189141989E+02  0.51100000000E-03 0. -1.
        -11    1    4    4    0    0 -0.27806293633E+00  0.52631271242E+00  0.11219682753E+01  0.12700933587E+01  0.51100000000E-03 0.  1.
         12    1    4    4    0    0  0.11187483201E+02  0.67802020829E+01  0.15559499535E+02  0.20328033512E+02  0.00000000000E+00 0. -1.
</event>
<event>
 8    1  0.6469014E-010  0.9118800E+02  0.7816164E-02  0.1184000E+00
        -11   -1    0    0    0    0  0.00000000000E+00  0.00000000000E+00  0.45593999997E+02  0.45594000000E+02  0.51100000000E-03 0.  1.
         11   -1    0    0    0    0 -0.00000000000E+00 -0.00000000000E+00 -0.45593999997E+02  0.45594000000E+02  0.51100000000E-03 0. -1.
         23    2    1    2    0    0  0.00000000000E+00  0.35527136788E-14  0.00000000000E+00  0.91188000000E+02  0.91188000000E+02 0.  0.
    9900012    2    3    3    0    0 -0.18608930447E+02 -0.31521789201E+02 -0.23317534626E+02  0.47787275261E+02  0.20000019226E+02 0.  0.
         12    1    3    3    0    0  0.18608930447E+02  0.31521789201E+02  0.23317534626E+02  0.43400724739E+02  0.00000000000E+00 0. -1.
         11    1    4    4    0    0 -0.11849524874E+02 -0.58242879710E+01 -0.13825517486E+02  0.19117492098E+02  0.51100000000E-03 0. -1.
        -11    1    4    4    0    0 -0.60396705021E+00 -0.10994426514E+02 -0.51092801344E+01  0.12138654552E+02  0.51100000000E-03 0.  1.
         12    1    4    4    0    0 -0.61554385224E+01 -0.14703074716E+02 -0.43827370062E+01  0.16531128612E+02  0.00000000000E+00 0. -1.
</event>
<event>
 8    1  0.6469014E-010  0.9118800E+02  0.7816164E-02  0.1184000E+00
        -11   -1    0    0    0    0  0.00000000000E+00  0.00000000000E+00  0.45593999997E+02  0.45594000000E+02  0.51100000000E-03 0. -1.
         11   -1    0    0    0    0 -0.00000000000E+00 -0.00000000000E+00 -0.45593999997E+02  0.45594000000E+02  0.51100000000E-03 0.  1.
         23    2    1    2    0    0  0.00000000000E+00  0.13322676296E-14  0.00000000000E+00  0.91188000000E+02  0.91188000000E+02 0.  0.
    9900012    2    3    3    0    0  0.28028139480E+02 -0.12705104211E+01 -0.33112419702E+02  0.47787272610E+02  0.20000007138E+02 0.  0.
         12    1    3    3    0    0 -0.28028139480E+02  0.12705104211E+01  0.33112419702E+02  0.43400727390E+02  0.00000000000E+00 0. -1.
         11    1    4    4    0    0  0.13850747213E+02  0.73888560487E+01 -0.15682578036E+02  0.22189674314E+02  0.51100000000E-03 0. -1.
        -11    1    4    4    0    0 -0.27786116198E+00  0.89480348716E+00 -0.26916162935E+01  0.28500313399E+01  0.51100000000E-03 0.  1.
         12    1    4    4    0    0  0.14455253429E+02 -0.95541699570E+01 -0.14738225373E+02  0.22747566956E+02  0.00000000000E+00 0. -1.
</event>
<event>
 8    1 -0.5945538E-009  0.9118800E+02  0.7816164E-02  0.1184000E+00
        -11   -1    0    0    0    0  0.00000000000E+00  0.00000000000E+00  0.45593999997E+02  0.45594000000E+02  0.51100000000E-03 0.  1.
         11   -1    0    0    0    0 -0.00000000000E+00 -0.00000000000E+00 -0.45593999997E+02  0.45594000000E+02  0.51100000000E-03 0. -1.
         23    2    1    2    0    0  0.00000000000E+00  0.00000000000E+00  0.88817841970E-15  0.91188000000E+02  0.91188000000E+02 0.  0.
    9900012    2    3    3    0    0 -0.18249632275E+02 -0.38688022390E+02 -0.73356944098E+01  0.47787256146E+02  0.19999932070E+02 0.  0.
         12    1    3    3    0    0  0.18249632275E+02  0.38688022390E+02  0.73356944098E+01  0.43400743854E+02  0.00000000000E+00 0. -1.
         11    1    4    4    0    0  0.78748362078E+00  0.22348143446E+00 -0.32810643369E+01  0.33816353808E+01  0.51100000000E-03 0. -1.
        -11    1    4    4    0    0 -0.14014425492E+02 -0.18554428333E+02 -0.20583128843E+01  0.23343255660E+02  0.51100000000E-03 0.  1.
         12    1    4    4    0    0 -0.50226904041E+01 -0.20357075492E+02 -0.19963171885E+01  0.21062365105E+02  0.00000000000E+00 0. -1.
</event>
<event>
 8    1  0.6469014E-010  0.9118800E+02  0.7816164E-02  0.1184000E+00
        -11   -1    0    0    0    0  0.00000000000E+00  0.00000000000E+00  0.45593999997E+02  0.45594000000E+02  0.51100000000E-03 0. -1.
         11   -1    0    0    0    0 -0.00000000000E+00 -0.00000000000E+00 -0.45593999997E+02  0.45594000000E+02  0.51100000000E-03 0.  1.
         23    2    1    2    0    0  0.00000000000E+00  0.00000000000E+00  0.35527136788E-14  0.91188000000E+02  0.91188000000E+02 0.  0.
    9900012    2    3    3    0    0  0.32912218273E+02 -0.81215580757E+01  0.27100730437E+02  0.47787269505E+02  0.19999992983E+02 0.  0.
        -12    1    3    3    0    0 -0.32912218273E+02  0.81215580757E+01 -0.27100730437E+02  0.43400730495E+02  0.00000000000E+00 0.  1.
         11    1    4    4    0    0  0.84995826494E+01 -0.83316026992E+01  0.12330038620E+02  0.17137338224E+02  0.51100000000E-03 0. -1.
        -11    1    4    4    0    0  0.17320590100E+02  0.52913561295E+01  0.10528239150E+02  0.20948630288E+02  0.51100000000E-03 0.  1.
         12    1    4    4    0    0  0.70920455242E+01 -0.50813115060E+01  0.42424526663E+01  0.97013009934E+01  0.00000000000E+00 0. -1.
</event>
<event>
 8    1  0.6469014E-010  0.9118800E+02  0.7816164E-02  0.1184000E+00
        -11   -1    0    0    0    0  0.00000000000E+00  0.00000000000E+00  0.45593999997E+02  0.45594000000E+02  0.51100000000E-03 0. -1.
         11   -1    0    0    0    0 -0.00000000000E+00 -0.00000000000E+00 -0.45593999997E+02  0.45594000000E+02  0.51100000000E-03 0.  1.
         23    2    1    2    0    0  0.35527136788E-14  0.88817841970E-15  0.00000000000E+00  0.91188000000E+02  0.91188000000E+02 0.  0.
    9900012    2    3    3    0    0  0.20654937115E+02 -0.29064588392E+01  0.38059816132E+02  0.47787268045E+02  0.19999986324E+02 0.  0.
        -12    1    3    3    0    0 -0.20654937115E+02  0.29064588392E+01 -0.38059816132E+02  0.43400731955E+02  0.00000000000E+00 0.  1.
         11    1    4    4    0    0  0.79623752624E+01 -0.47829042500E+01  0.23543160211E+02  0.25309207532E+02  0.51100000000E-03 0. -1.
        -11    1    4    4    0    0  0.12197497430E+02  0.53618393306E+01  0.95616086478E+01  0.16399775143E+02  0.51100000000E-03 0.  1.
        -12    1    4    4    0    0  0.49506442311E+00 -0.34853939198E+01  0.49550472732E+01  0.60782853700E+01  0.00000000000E+00 0.  1.
</event>
<event>
 8    1  0.6469014E-010  0.9118800E+02  0.7816164E-02  0.1184000E+00
        -11   -1    0    0    0    0  0.00000000000E+00  0.00000000000E+00  0.45593999997E+02  0.45594000000E+02  0.51100000000E-03 0. -1.
         11   -1    0    0    0    0 -0.00000000000E+00 -0.00000000000E+00 -0.45593999997E+02  0.45594000000E+02  0.51100000000E-03 0.  1.
         23    2    1    2    0    0  0.35527136788E-14  0.00000000000E+00  0.00000000000E+00  0.91188000000E+02  0.91188000000E+02 0.  0.
    9900012    2    3    3    0    0 -0.30097377524E+02  0.25906569279E+02  0.17510592256E+02  0.47787270665E+02  0.19999998272E+02 0.  0.
        -12    1    3    3    0    0  0.30097377524E+02 -0.25906569279E+02 -0.17510592256E+02  0.43400729335E+02  0.00000000000E+00 0.  1.
         11    1    4    4    0    0 -0.42587570204E+01  0.85491498477E+01 -0.15287311844E+01  0.96727448934E+01  0.51100000000E-03 0. -1.
        -11    1    4    4    0    0 -0.23039649397E+02  0.15267677499E+02  0.11753249565E+02  0.30034418526E+02  0.51100000000E-03 0.  1.
        -12    1    4    4    0    0 -0.27989711059E+01  0.20897419320E+01  0.72860738753E+01  0.80801072462E+01  0.00000000000E+00 0.  1.
</event>
<event>
 8    1  0.6469014E-010  0.9118800E+02  0.7816164E-02  0.1184000E+00
        -11   -1    0    0    0    0  0.00000000000E+00  0.00000000000E+00  0.45593999997E+02  0.45594000000E+02  0.51100000000E-03 0. -1.
         11   -1    0    0    0    0 -0.00000000000E+00 -0.00000000000E+00 -0.45593999997E+02  0.45594000000E+02  0.51100000000E-03 0.  1.
         23    2    1    2    0    0  0.88817841970E-15  0.00000000000E+00  0.00000000000E+00  0.91188000000E+02  0.91188000000E+02 0.  0.
    9900012    2    3    3    0    0 -0.46282837298E+01 -0.22103921263E+02  0.37062362310E+02  0.47787273676E+02  0.20000011998E+02 0.  0.
        -12    1    3    3    0    0  0.46282837298E+01  0.22103921263E+02 -0.37062362310E+02  0.43400726324E+02  0.00000000000E+00 0.  1.
         11    1    4    4    0    0 -0.26745506281E+01 -0.65361804166E+01  0.25420064795E+02  0.26382846130E+02  0.51100000000E-03 0. -1.
        -11    1    4    4    0    0 -0.28930082055E+01 -0.10556515642E+02  0.29651630562E+01  0.11340269450E+02  0.51100000000E-03 0.  1.
        -12    1    4    4    0    0  0.93927510375E+00 -0.50112252040E+01  0.86771344589E+01  0.10064158096E+02  0.00000000000E+00 0.  1.
</event>
<event>
 8    1  0.6469014E-010  0.9118800E+02  0.7816164E-02  0.1184000E+00
        -11   -1    0    0    0    0  0.00000000000E+00  0.00000000000E+00  0.45593999997E+02  0.45594000000E+02  0.51100000000E-03 0. -1.
         11   -1    0    0    0    0 -0.00000000000E+00 -0.00000000000E+00 -0.45593999997E+02  0.45594000000E+02  0.51100000000E-03 0.  1.
         23    2    1    2    0    0  0.00000000000E+00  0.00000000000E+00 -0.35527136788E-14  0.91188000000E+02  0.91188000000E+02 0.  0.
    9900012    2    3    3    0    0 -0.16923459696E+02 -0.33872875215E+02  0.21209619596E+02  0.47787272739E+02  0.20000007725E+02 0.  0.
        -12    1    3    3    0    0  0.16923459696E+02  0.33872875215E+02 -0.21209619596E+02  0.43400727261E+02  0.00000000000E+00 0.  1.
         11    1    4    4    0    0 -0.15064834854E+02 -0.97568080777E+01  0.55528313022E+01  0.18787721756E+02  0.51100000000E-03 0. -1.
        -11    1    4    4    0    0 -0.27154780700E+01 -0.19593087352E+02  0.13214756851E+02  0.23788499155E+02  0.51100000000E-03 0.  1.
         12    1    4    4    0    0  0.85685322821E+00 -0.45229797851E+01  0.24420314427E+01  0.52110518284E+01  0.00000000000E+00 0. -1.
</event>
<event>
 8    1  0.6469014E-010  0.9118800E+02  0.7816164E-02  0.1184000E+00
        -11   -1    0    0    0    0  0.00000000000E+00  0.00000000000E+00  0.45593999997E+02  0.45594000000E+02  0.51100000000E-03 0. -1.
         11   -1    0    0    0    0 -0.00000000000E+00 -0.00000000000E+00 -0.45593999997E+02  0.45594000000E+02  0.51100000000E-03 0.  1.
         23    2    1    2    0    0  0.00000000000E+00  0.00000000000E+00 -0.17763568394E-14  0.91188000000E+02  0.91188000000E+02 0.  0.
    9900012    2    3    3    0    0  0.83997465960E+01  0.39806225758E+02  0.15117262940E+02  0.47787274306E+02  0.20000014870E+02 0.  0.
        -12    1    3    3    0    0 -0.83997465960E+01 -0.39806225758E+02 -0.15117262940E+02  0.43400725694E+02  0.00000000000E+00 0.  1.
         11    1    4    4    0    0 -0.33243764444E+00  0.19542169865E+02  0.89764696424E+01  0.21507764304E+02  0.51100000000E-03 0. -1.
        -11    1    4    4    0    0  0.12079462681E+02  0.15237760465E+02  0.38600172375E+01  0.19824290555E+02  0.51100000000E-03 0.  1.
        -12    1    4    4    0    0 -0.33472784404E+01  0.50262954277E+01  0.22807760596E+01  0.64552194477E+01  0.00000000000E+00 0.  1.
</event>
<event>
 8    1  0.6469014E-010  0.9118800E+02  0.7816164E-02  0.1184000E+00
        -11   -1    0    0    0    0  0.00000000000E+00  0.00000000000E+00  0.45593999997E+02  0.45594000000E+02  0.51100000000E-03 0. -1.
         11   -1    0    0    0    0 -0.00000000000E+00 -0.00000000000E+00 -0.45593999997E+02  0.45594000000E+02  0.51100000000E-03 0.  1.
         23    2    1    2    0    0  0.35527136788E-14  0.26645352591E-14  0.00000000000E+00  0.91188000000E+02  0.91188000000E+02 0.  0.
    9900012    2    3    3    0    0  0.24171757546E+02  0.38338656313E+01 -0.35842028339E+02  0.47787269775E+02  0.19999994213E+02 0.  0.
         12    1    3    3    0    0 -0.24171757546E+02 -0.38338656313E+01  0.35842028339E+02  0.43400730225E+02  0.00000000000E+00 0. -1.
         11    1    4    4    0    0  0.13049121959E+02  0.80672036508E+01 -0.18092741171E+02  0.23721438447E+02  0.51100000000E-03 0. -1.
        -11    1    4    4    0    0  0.13091583455E+02 -0.44789135011E+01 -0.13291094434E+02  0.19186021344E+02  0.51100000000E-03 0.  1.
        -12    1    4    4    0    0 -0.19689478678E+01  0.24557548160E+00 -0.44581927348E+01  0.48798099844E+01  0.00000000000E+00 0.  1.
</event>
<event>
 8    1  0.6469014E-010  0.9118800E+02  0.7816164E-02  0.1184000E+00
        -11   -1    0    0    0    0  0.00000000000E+00  0.00000000000E+00  0.45593999997E+02  0.45594000000E+02  0.51100000000E-03 0. -1.
         11   -1    0    0    0    0 -0.00000000000E+00 -0.00000000000E+00 -0.45593999997E+02  0.45594000000E+02  0.51100000000E-03 0.  1.
         23    2    1    2    0    0  0.00000000000E+00  0.00000000000E+00  0.00000000000E+00  0.91188000000E+02  0.91188000000E+02 0.  0.
    9900012    2    3    3    0    0  0.35964424809E+02  0.18814599404E+02  0.15368602861E+02  0.47787274701E+02  0.20000016671E+02 0.  0.
        -12    1    3    3    0    0 -0.35964424809E+02 -0.18814599404E+02 -0.15368602861E+02  0.43400725299E+02  0.00000000000E+00 0.  1.
         11    1    4    4    0    0  0.19774050526E+02  0.56627425734E+01  0.12553211170E+01  0.20607172514E+02  0.51100000000E-03 0.  1.
        -11    1    4    4    0    0  0.10686265465E+02  0.13888991192E+02  0.93430367420E+01  0.19859322288E+02  0.51100000000E-03 0. -1.
         12    1    4    4    0    0  0.55041088184E+01 -0.73713436129E+00  0.47702450019E+01  0.73207798990E+01  0.00000000000E+00 0. -1.
</event>
<event>
 8    1  0.6469014E-010  0.9118800E+02  0.7816164E-02  0.1184000E+00
        -11   -1    0    0    0    0  0.00000000000E+00  0.00000000000E+00  0.45593999997E+02  0.45594000000E+02  0.51100000000E-03 0. -1.
         11   -1    0    0    0    0 -0.00000000000E+00 -0.00000000000E+00 -0.45593999997E+02  0.45594000000E+02  0.51100000000E-03 0.  1.
         23    2    1    2    0    0  0.00000000000E+00 -0.17763568394E-14  0.00000000000E+00  0.91188000000E+02  0.91188000000E+02 0.  0.
    9900012    2    3    3    0    0  0.25413598088E+02 -0.10114796103E+02 -0.33696636994E+02  0.47787269445E+02  0.19999992706E+02 0.  0.
         12    1    3    3    0    0 -0.25413598088E+02  0.10114796103E+02  0.33696636994E+02  0.43400730555E+02  0.00000000000E+00 0. -1.
         11    1    4    4    0    0  0.36686513663E+01  0.47821557666E+01 -0.78379735322E+01  0.98874590253E+01  0.51100000000E-03 0. -1.
        -11    1    4    4    0    0  0.65014981149E+00 -0.27565003532E+01 -0.74757351165E+00  0.29291390187E+01  0.51100000000E-03 0.  1.
         12    1    4    4    0    0  0.21094796911E+02 -0.12140451516E+02 -0.25111089950E+02  0.34970671401E+02  0.00000000000E+00 0. -1.
</event>
<event>
 8    1  0.6469014E-010  0.9118800E+02  0.7816164E-02  0.1184000E+00
        -11   -1    0    0    0    0  0.00000000000E+00  0.00000000000E+00  0.45593999997E+02  0.45594000000E+02  0.51100000000E-03 0. -1.
         11   -1    0    0    0    0 -0.00000000000E+00 -0.00000000000E+00 -0.45593999997E+02  0.45594000000E+02  0.51100000000E-03 0.  1.
         23    2    1    2    0    0  0.00000000000E+00  0.00000000000E+00  0.00000000000E+00  0.91188000000E+02  0.91188000000E+02 0.  0.
    9900012    2    3    3    0    0  0.12133633716E+02 -0.10874303622E+02  0.40226207151E+02  0.47787270880E+02  0.19999999250E+02 0.  0.
        -12    1    3    3    0    0 -0.12133633716E+02  0.10874303622E+02 -0.40226207151E+02  0.43400729120E+02  0.00000000000E+00 0.  1.
         11    1    4    4    0    0  0.77686064163E+01 -0.14898932761E+01  0.16633497739E+02  0.18418585041E+02  0.51100000000E-03 0. -1.
        -11    1    4    4    0    0 -0.24797876151E+01 -0.59130455609E+01  0.24294625115E+01  0.68568026643E+01  0.51100000000E-03 0.  1.
        -12    1    4    4    0    0  0.68448149151E+01 -0.34713647846E+01  0.21163246901E+02  0.22511883175E+02  0.00000000000E+00 0.  1.
</event>
<event>
 8    1  0.6469014E-010  0.9118800E+02  0.7816164E-02  0.1184000E+00
        -11   -1    0    0    0    0  0.00000000000E+00  0.00000000000E+00  0.45593999997E+02  0.45594000000E+02  0.51100000000E-03 0. -1.
         11   -1    0    0    0    0 -0.00000000000E+00 -0.00000000000E+00 -0.45593999997E+02  0.45594000000E+02  0.51100000000E-03 0.  1.
         23    2    1    2    0    0 -0.33306690739E-15  0.00000000000E+00  0.00000000000E+00  0.91188000000E+02  0.91188000000E+02 0.  0.
    9900012    2    3    3    0    0 -0.47855009401E+00  0.11350261456E+02 -0.41887539497E+02  0.47787269472E+02  0.19999992829E+02 0.  0.
         12    1    3    3    0    0  0.47855009401E+00 -0.11350261456E+02  0.41887539497E+02  0.43400730528E+02  0.00000000000E+00 0. -1.
         11    1    4    4    0    0 -0.26934723274E+01  0.14009588821E+02 -0.29040941374E+02  0.32355828660E+02  0.51100000000E-03 0. -1.
        -11    1    4    4    0    0 -0.10068634367E+01  0.56670550964E+00 -0.99782505507E+01  0.10044919782E+02  0.51100000000E-03 0.  1.
         12    1    4    4    0    0  0.32217856701E+01 -0.32260328744E+01 -0.28683475718E+01  0.53865210297E+01  0.00000000000E+00 0. -1.
</event>
<event>
 8    1  0.6469014E-010  0.9118800E+02  0.7816164E-02  0.1184000E+00
        -11   -1    0    0    0    0  0.00000000000E+00  0.00000000000E+00  0.45593999997E+02  0.45594000000E+02  0.51100000000E-03 0. -1.
         11   -1    0    0    0    0 -0.00000000000E+00 -0.00000000000E+00 -0.45593999997E+02  0.45594000000E+02  0.51100000000E-03 0.  1.
         23    2    1    2    0    0  0.00000000000E+00  0.00000000000E+00  0.00000000000E+00  0.91188000000E+02  0.91188000000E+02 0.  0.
    9900012    2    3    3    0    0  0.17852334423E+02  0.97519558285E+01 -0.38338190229E+02  0.47787270549E+02  0.19999997742E+02 0.  0.
         12    1    3    3    0    0 -0.17852334423E+02 -0.97519558285E+01  0.38338190229E+02  0.43400729451E+02  0.00000000000E+00 0. -1.
         11    1    4    4    0    0  0.86642796394E+01  0.11698335527E+01 -0.89499640399E+01  0.12511598970E+02  0.51100000000E-03 0. -1.
        -11    1    4    4    0    0  0.72938359919E+01  0.51954081049E+01 -0.30035113305E+02  0.31341670988E+02  0.51100000000E-03 0.  1.
        -12    1    4    4    0    0  0.18942187921E+01  0.33867141709E+01  0.64688711572E+00  0.39340005908E+01  0.00000000000E+00 0.  1.
</event>
<event>
 8    1  0.6469014E-010  0.9118800E+02  0.7816164E-02  0.1184000E+00
        -11   -1    0    0    0    0  0.00000000000E+00  0.00000000000E+00  0.45593999997E+02  0.45594000000E+02  0.51100000000E-03 0. -1.
         11   -1    0    0    0    0 -0.00000000000E+00 -0.00000000000E+00 -0.45593999997E+02  0.45594000000E+02  0.51100000000E-03 0.  1.
         23    2    1    2    0    0  0.00000000000E+00 -0.35527136788E-14  0.35527136788E-14  0.91188000000E+02  0.91188000000E+02 0.  0.
    9900012    2    3    3    0    0 -0.26765158406E+02  0.22218025605E+02 -0.25953979320E+02  0.47787269490E+02  0.19999992913E+02 0.  0.
         12    1    3    3    0    0  0.26765158406E+02 -0.22218025605E+02  0.25953979320E+02  0.43400730510E+02  0.00000000000E+00 0. -1.
         11    1    4    4    0    0 -0.57007631541E+01  0.66657580903E+00 -0.90061641539E+01  0.10679607524E+02  0.51100000000E-03 0. -1.
        -11    1    4    4    0    0 -0.35052933213E+01  0.11268389218E+02 -0.22688752721E+01  0.12017132440E+02  0.51100000000E-03 0.  1.
        -12    1    4    4    0    0 -0.17559101931E+02  0.10283060578E+02 -0.14678939894E+02  0.25090529525E+02  0.00000000000E+00 0.  1.
</event>
<event>
 8    1  0.6469014E-010  0.9118800E+02  0.7816164E-02  0.1184000E+00
        -11   -1    0    0    0    0  0.00000000000E+00  0.00000000000E+00  0.45593999997E+02  0.45594000000E+02  0.51100000000E-03 0. -1.
         11   -1    0    0    0    0 -0.00000000000E+00 -0.00000000000E+00 -0.45593999997E+02  0.45594000000E+02  0.51100000000E-03 0.  1.
         23    2    1    2    0    0  0.00000000000E+00  0.00000000000E+00  0.35527136788E-14  0.91188000000E+02  0.91188000000E+02 0.  0.
    9900012    2    3    3    0    0 -0.26074150962E+02 -0.14331680556E+02  0.31596914140E+02  0.47787269602E+02  0.19999993422E+02 0.  0.
        -12    1    3    3    0    0  0.26074150962E+02  0.14331680556E+02 -0.31596914140E+02  0.43400730398E+02  0.00000000000E+00 0.  1.
         11    1    4    4    0    0 -0.10755591943E+02 -0.50286390909E+01  0.25625325193E+02  0.28242295599E+02  0.51100000000E-03 0. -1.
        -11    1    4    4    0    0 -0.69252655967E+01 -0.29954140528E+01  0.16513840403E+00  0.75471239479E+01  0.51100000000E-03 0.  1.
         12    1    4    4    0    0 -0.83932934223E+01 -0.63076274120E+01  0.58064505423E+01  0.11997850055E+02  0.00000000000E+00 0. -1.
</event>
<event>
 8    1  0.6469014E-010  0.9118800E+02  0.7816164E-02  0.1184000E+00
        -11   -1    0    0    0    0  0.00000000000E+00  0.00000000000E+00  0.45593999997E+02  0.45594000000E+02  0.51100000000E-03 0. -1.
         11   -1    0    0    0    0 -0.00000000000E+00 -0.00000000000E+00 -0.45593999997E+02  0.45594000000E+02  0.51100000000E-03 0.  1.
         23    2    1    2    0    0 -0.17763568394E-14  0.00000000000E+00  0.71054273576E-14  0.91188000000E+02  0.91188000000E+02 0.  0.
    9900012    2    3    3    0    0  0.49118330461E+01 -0.51264256337E+01  0.42816082252E+02  0.47787271399E+02  0.20000001618E+02 0.  0.
        -12    1    3    3    0    0 -0.49118330461E+01  0.51264256337E+01 -0.42816082252E+02  0.43400728601E+02  0.00000000000E+00 0.  1.
         11    1    4    4    0    0  0.93056394413E+01 -0.58350567957E+01  0.30641730462E+02  0.32550859577E+02  0.51100000000E-03 0. -1.
        -11    1    4    4    0    0 -0.58707980373E+01 -0.17183255297E+01  0.67248853828E+01  0.90908193192E+01  0.51100000000E-03 0.  1.
         12    1    4    4    0    0  0.14769916422E+01  0.24269566917E+01  0.54494664073E+01  0.61455925035E+01  0.00000000000E+00 0. -1.
</event>
<event>
 8    1  0.6469014E-010  0.9118800E+02  0.7816164E-02  0.1184000E+00
        -11   -1    0    0    0    0  0.00000000000E+00  0.00000000000E+00  0.45593999997E+02  0.45594000000E+02  0.51100000000E-03 0. -1.
         11   -1    0    0    0    0 -0.00000000000E+00 -0.00000000000E+00 -0.45593999997E+02  0.45594000000E+02  0.51100000000E-03 0.  1.
         23    2    1    2    0    0 -0.35527136788E-14 -0.23592239273E-15  0.00000000000E+00  0.91188000000E+02  0.91188000000E+02 0.  0.
    9900012    2    3    3    0    0  0.23815113432E+02 -0.56507097655E-01 -0.36283064790E+02  0.47787267156E+02  0.19999982271E+02 0.  0.
         12    1    3    3    0    0 -0.23815113432E+02  0.56507097655E-01  0.36283064790E+02  0.43400732844E+02  0.00000000000E+00 0. -1.
         11    1    4    4    0    0  0.52420603373E+00 -0.52620686057E+01 -0.54040289940E+01  0.75609316625E+01  0.51100000000E-03 0. -1.
        -11    1    4    4    0    0  0.22826344894E+02  0.31223201001E+01 -0.30203855176E+02  0.37987679210E+02  0.51100000000E-03 0.  1.
        -12    1    4    4    0    0  0.46456250491E+00  0.20832414079E+01 -0.67518061963E+00  0.22386562830E+01  0.00000000000E+00 0.  1.
</event>
<event>
 8    1  0.6469014E-010  0.9118800E+02  0.7816164E-02  0.1184000E+00
        -11   -1    0    0    0    0  0.00000000000E+00  0.00000000000E+00  0.45593999997E+02  0.45594000000E+02  0.51100000000E-03 0. -1.
         11   -1    0    0    0    0 -0.00000000000E+00 -0.00000000000E+00 -0.45593999997E+02  0.45594000000E+02  0.51100000000E-03 0.  1.
         23    2    1    2    0    0  0.00000000000E+00 -0.71054273576E-14  0.17763568394E-14  0.91188000000E+02  0.91188000000E+02 0.  0.
    9900012    2    3    3    0    0 -0.22815085027E+02  0.35827436371E+02  0.89157802724E+01  0.47787257615E+02  0.19999938769E+02 0.  0.
        -12    1    3    3    0    0  0.22815085027E+02 -0.35827436371E+02 -0.89157802724E+01  0.43400742385E+02  0.00000000000E+00 0.  1.
         11    1    4    4    0    0 -0.14008132131E+02  0.10887739606E+02  0.63218524029E+01  0.18834448694E+02  0.51100000000E-03 0. -1.
        -11    1    4    4    0    0 -0.36082437380E+01  0.19755120238E+02 -0.21726785556E+01  0.20199126983E+02  0.51100000000E-03 0.  1.
        -12    1    4    4    0    0 -0.51987091580E+01  0.51845765267E+01  0.47666064251E+01  0.87536819387E+01  0.00000000000E+00 0.  1.
</event>
<event>
 8    1  0.6469014E-010  0.9118800E+02  0.7816164E-02  0.1184000E+00
        -11   -1    0    0    0    0  0.00000000000E+00  0.00000000000E+00  0.45593999997E+02  0.45594000000E+02  0.51100000000E-03 0. -1.
         11   -1    0    0    0    0 -0.00000000000E+00 -0.00000000000E+00 -0.45593999997E+02  0.45594000000E+02  0.51100000000E-03 0.  1.
         23    2    1    2    0    0  0.00000000000E+00 -0.17763568394E-14  0.17763568394E-14  0.91188000000E+02  0.91188000000E+02 0.  0.
    9900012    2    3    3    0    0 -0.39777704981E+02  0.12205901009E+02 -0.12343995407E+02  0.47787262038E+02  0.19999958937E+02 0.  0.
         12    1    3    3    0    0  0.39777704981E+02 -0.12205901009E+02  0.12343995407E+02  0.43400737962E+02  0.00000000000E+00 0. -1.
         11    1    4    4    0    0 -0.44179427792E+01 -0.27294109224E+01 -0.14557468565E+00  0.51951029474E+01  0.51100000000E-03 0. -1.
        -11    1    4    4    0    0 -0.11989518450E+02  0.12236773982E+02 -0.69546646621E+01  0.18489309100E+02  0.51100000000E-03 0.  1.
        -12    1    4    4    0    0 -0.23370243752E+02  0.26985379488E+01 -0.52437560593E+01  0.24102849991E+02  0.00000000000E+00 0.  1.
</event>
<event>
 8    1  0.6469014E-010  0.9118800E+02  0.7816164E-02  0.1184000E+00
        -11   -1    0    0    0    0  0.00000000000E+00  0.00000000000E+00  0.45593999997E+02  0.45594000000E+02  0.51100000000E-03 0.  1.
         11   -1    0    0    0    0 -0.00000000000E+00 -0.00000000000E+00 -0.45593999997E+02  0.45594000000E+02  0.51100000000E-03 0. -1.
         23    2    1    2    0    0  0.17763568394E-14  0.00000000000E+00  0.00000000000E+00  0.91188000000E+02  0.91188000000E+02 0.  0.
    9900012    2    3    3    0    0  0.91553008631E+01  0.34939883255E+02 -0.24062612416E+02  0.47787259314E+02  0.19999946518E+02 0.  0.
         12    1    3    3    0    0 -0.91553008631E+01 -0.34939883255E+02  0.24062612416E+02  0.43400740686E+02  0.00000000000E+00 0. -1.
         11    1    4    4    0    0 -0.10253136745E+01  0.31867837687E+01 -0.85905588892E+00  0.34561302349E+01  0.51100000000E-03 0. -1.
        -11    1    4    4    0    0 -0.39741852379E+01  0.14550839338E+01 -0.36761439272E+01  0.56058408820E+01  0.51100000000E-03 0.  1.
        -12    1    4    4    0    0  0.14154799776E+02  0.30298015553E+02 -0.19527412600E+02  0.38725288197E+02  0.00000000000E+00 0.  1.
</event>
<event>
 8    1  0.6469014E-010  0.9118800E+02  0.7816164E-02  0.1184000E+00
        -11   -1    0    0    0    0  0.00000000000E+00  0.00000000000E+00  0.45593999997E+02  0.45594000000E+02  0.51100000000E-03 0. -1.
         11   -1    0    0    0    0 -0.00000000000E+00 -0.00000000000E+00 -0.45593999997E+02  0.45594000000E+02  0.51100000000E-03 0.  1.
         23    2    1    2    0    0  0.00000000000E+00  0.00000000000E+00  0.00000000000E+00  0.91188000000E+02  0.91188000000E+02 0.  0.
    9900012    2    3    3    0    0 -0.10817853522E+02  0.30907846557E+02 -0.28483283115E+02  0.47787327763E+02  0.20000258602E+02 0.  0.
         12    1    3    3    0    0  0.10817853522E+02 -0.30907846557E+02  0.28483283115E+02  0.43400672237E+02  0.00000000000E+00 0. -1.
         11    1    4    4    0    0 -0.65202058795E+01  0.18575142708E+01 -0.69610898380E+01  0.97170065334E+01  0.51100000000E-03 0. -1.
        -11    1    4    4    0    0 -0.52434643495E+00  0.16962571269E+02 -0.59145399746E+01  0.17971798647E+02  0.51100000000E-03 0.  1.
        -12    1    4    4    0    0 -0.37733012074E+01  0.12087761017E+02 -0.15607653302E+02  0.20098522583E+02  0.00000000000E+00 0.  1.
</event>
<event>
 8    1  0.6469014E-010  0.9118800E+02  0.7816164E-02  0.1184000E+00
        -11   -1    0    0    0    0  0.00000000000E+00  0.00000000000E+00  0.45593999997E+02  0.45594000000E+02  0.51100000000E-03 0. -1.
         11   -1    0    0    0    0 -0.00000000000E+00 -0.00000000000E+00 -0.45593999997E+02  0.45594000000E+02  0.51100000000E-03 0.  1.
         23    2    1    2    0    0  0.00000000000E+00  0.00000000000E+00  0.00000000000E+00  0.91188000000E+02  0.91188000000E+02 0.  0.
    9900012    2    3    3    0    0  0.21507004802E+02  0.21852252856E+02  0.30717276301E+02  0.47787271046E+02  0.20000000005E+02 0.  0.
        -12    1    3    3    0    0 -0.21507004802E+02 -0.21852252856E+02 -0.30717276301E+02  0.43400728954E+02  0.00000000000E+00 0.  1.
         11    1    4    4    0    0  0.34986599593E+01 -0.63132155274E+00  0.28193681323E+01  0.45374029290E+01  0.51100000000E-03 0. -1.
        -11    1    4    4    0    0  0.17195297830E+02  0.87591149363E+01  0.15997676065E+02  0.25066431770E+02  0.51100000000E-03 0.  1.
        -12    1    4    4    0    0  0.81304701269E+00  0.13724459473E+02  0.11900232103E+02  0.18183436347E+02  0.00000000000E+00 0.  1.
</event>
<event>
 8    1  0.6469014E-010  0.9118800E+02  0.7816164E-02  0.1184000E+00
        -11   -1    0    0    0    0  0.00000000000E+00  0.00000000000E+00  0.45593999997E+02  0.45594000000E+02  0.51100000000E-03 0. -1.
         11   -1    0    0    0    0 -0.00000000000E+00 -0.00000000000E+00 -0.45593999997E+02  0.45594000000E+02  0.51100000000E-03 0.  1.
         23    2    1    2    0    0  0.00000000000E+00  0.00000000000E+00 -0.71054273576E-14  0.91188000000E+02  0.91188000000E+02 0.  0.
    9900012    2    3    3    0    0  0.12712140085E+02 -0.16277276083E+02  0.38171652580E+02  0.47787270941E+02  0.19999999527E+02 0.  0.
        -12    1    3    3    0    0 -0.12712140085E+02  0.16277276083E+02 -0.38171652580E+02  0.43400729059E+02  0.00000000000E+00 0.  1.
         11    1    4    4    0    0  0.59919835238E+01 -0.15984961142E+02  0.16733814764E+02  0.23904882474E+02  0.51100000000E-03 0. -1.
        -11    1    4    4    0    0  0.56835766157E+01 -0.22670070948E+01  0.20617031187E+02  0.21505914059E+02  0.51100000000E-03 0.  1.
        -12    1    4    4    0    0  0.10365799451E+01  0.19746921543E+01  0.82080662927E+00  0.23764744075E+01  0.00000000000E+00 0.  1.
</event>
<event>
 8    1  0.6469014E-010  0.9118800E+02  0.7816164E-02  0.1184000E+00
        -11   -1    0    0    0    0  0.00000000000E+00  0.00000000000E+00  0.45593999997E+02  0.45594000000E+02  0.51100000000E-03 0. -1.
         11   -1    0    0    0    0 -0.00000000000E+00 -0.00000000000E+00 -0.45593999997E+02  0.45594000000E+02  0.51100000000E-03 0.  1.
         23    2    1    2    0    0 -0.88817841970E-15 -0.35527136788E-14  0.00000000000E+00  0.91188000000E+02  0.91188000000E+02 0.  0.
    9900012    2    3    3    0    0 -0.62701806431E+01 -0.24229748927E+02 -0.35457398560E+02  0.47787274073E+02  0.20000013808E+02 0.  0.
         12    1    3    3    0    0  0.62701806431E+01  0.24229748927E+02  0.35457398560E+02  0.43400725927E+02  0.00000000000E+00 0. -1.
         11    1    4    4    0    0  0.13073581396E+01  0.14787942956E+01 -0.42113148828E+01  0.46509344413E+01  0.51100000000E-03 0. -1.
        -11    1    4    4    0    0 -0.13236417088E+01 -0.19794324246E+02 -0.15441182066E+02  0.25139558540E+02  0.51100000000E-03 0.  1.
        -12    1    4    4    0    0 -0.62538970739E+01 -0.59142189766E+01 -0.15804901611E+02  0.17996781092E+02  0.00000000000E+00 0.  1.
</event>
<event>
 8    1  0.6469014E-010  0.9118800E+02  0.7816164E-02  0.1184000E+00
        -11   -1    0    0    0    0  0.00000000000E+00  0.00000000000E+00  0.45593999997E+02  0.45594000000E+02  0.51100000000E-03 0. -1.
         11   -1    0    0    0    0 -0.00000000000E+00 -0.00000000000E+00 -0.45593999997E+02  0.45594000000E+02  0.51100000000E-03 0.  1.
         23    2    1    2    0    0 -0.88817841970E-15  0.00000000000E+00  0.00000000000E+00  0.91188000000E+02  0.91188000000E+02 0.  0.
    9900012    2    3    3    0    0  0.51650138162E+01 -0.17090665496E+02 -0.39558248241E+02  0.47787271680E+02  0.20000002896E+02 0.  0.
         12    1    3    3    0    0 -0.51650138162E+01  0.17090665496E+02  0.39558248241E+02  0.43400728320E+02  0.00000000000E+00 0. -1.
         11    1    4    4    0    0  0.83297389447E+01 -0.14478676624E+02 -0.32087405217E+02  0.36174828285E+02  0.51100000000E-03 0. -1.
        -11    1    4    4    0    0 -0.38245512991E+01 -0.47036028130E+01 -0.71847794238E+01  0.94006450678E+01  0.51100000000E-03 0.  1.
         12    1    4    4    0    0  0.65982617061E+00  0.20916139410E+01 -0.28606360100E+00  0.22117983266E+01  0.00000000000E+00 0. -1.
</event>
<event>
 8    1  0.6469014E-010  0.9118800E+02  0.7816164E-02  0.1184000E+00
        -11   -1    0    0    0    0  0.00000000000E+00  0.00000000000E+00  0.45593999997E+02  0.45594000000E+02  0.51100000000E-03 0. -1.
         11   -1    0    0    0    0 -0.00000000000E+00 -0.00000000000E+00 -0.45593999997E+02  0.45594000000E+02  0.51100000000E-03 0.  1.
         23    2    1    2    0    0  0.00000000000E+00  0.00000000000E+00  0.35527136788E-14  0.91188000000E+02  0.91188000000E+02 0.  0.
    9900012    2    3    3    0    0  0.24444441670E+02 -0.29241308320E+02 -0.20761461052E+02  0.47787272980E+02  0.20000008827E+02 0.  0.
         12    1    3    3    0    0 -0.24444441670E+02  0.29241308320E+02  0.20761461052E+02  0.43400727020E+02  0.00000000000E+00 0. -1.
         11    1    4    4    0    0  0.36344899680E+01 -0.15803276715E+02 -0.13554403660E+02  0.21134685498E+02  0.51100000000E-03 0. -1.
        -11    1    4    4    0    0  0.14561662871E+02 -0.11191921289E+02 -0.78677565975E+01  0.19980058104E+02  0.51100000000E-03 0.  1.
         12    1    4    4    0    0  0.62482888314E+01 -0.22461103156E+01  0.66069920501E+00  0.66725293787E+01  0.00000000000E+00 0. -1.
</event>
<event>
 8    1  0.6469014E-010  0.9118800E+02  0.7816164E-02  0.1184000E+00
        -11   -1    0    0    0    0  0.00000000000E+00  0.00000000000E+00  0.45593999997E+02  0.45594000000E+02  0.51100000000E-03 0. -1.
         11   -1    0    0    0    0 -0.00000000000E+00 -0.00000000000E+00 -0.45593999997E+02  0.45594000000E+02  0.51100000000E-03 0.  1.
         23    2    1    2    0    0  0.00000000000E+00  0.00000000000E+00  0.00000000000E+00  0.91188000000E+02  0.91188000000E+02 0.  0.
    9900012    2    3    3    0    0  0.21922228019E+02  0.14988098912E+01  0.37427162561E+02  0.47787274087E+02  0.20000013872E+02 0.  0.
        -12    1    3    3    0    0 -0.21922228019E+02 -0.14988098912E+01 -0.37427162561E+02  0.43400725913E+02  0.00000000000E+00 0.  1.
         11    1    4    4    0    0  0.18147788129E+02 -0.94216579192E+00  0.15714220628E+02  0.24024292300E+02  0.51100000000E-03 0. -1.
        -11    1    4    4    0    0 -0.16944702719E+01  0.50290681977E+00  0.14000959319E+02  0.14112087262E+02  0.51100000000E-03 0.  1.
         12    1    4    4    0    0  0.54689101618E+01  0.19380688633E+01  0.77119826145E+01  0.96508945245E+01  0.00000000000E+00 0. -1.
</event>
<event>
 8    1  0.6469014E-010  0.9118800E+02  0.7816164E-02  0.1184000E+00
        -11   -1    0    0    0    0  0.00000000000E+00  0.00000000000E+00  0.45593999997E+02  0.45594000000E+02  0.51100000000E-03 0. -1.
         11   -1    0    0    0    0 -0.00000000000E+00 -0.00000000000E+00 -0.45593999997E+02  0.45594000000E+02  0.51100000000E-03 0.  1.
         23    2    1    2    0    0  0.00000000000E+00  0.00000000000E+00  0.00000000000E+00  0.91188000000E+02  0.91188000000E+02 0.  0.
    9900012    2    3    3    0    0  0.37812831247E+02  0.13217706603E+02 -0.16706463274E+02  0.47787263947E+02  0.19999967642E+02 0.  0.
         12    1    3    3    0    0 -0.37812831247E+02 -0.13217706603E+02  0.16706463274E+02  0.43400736053E+02  0.00000000000E+00 0. -1.
         11    1    4    4    0    0  0.25730597095E+02  0.11026785792E+02 -0.32079463649E+01  0.28177021701E+02  0.51100000000E-03 0. -1.
        -11    1    4    4    0    0  0.99845277976E+01 -0.13387186492E+01 -0.88626817195E+01  0.13417529224E+02  0.51100000000E-03 0.  1.
         12    1    4    4    0    0  0.20977063542E+01  0.35296394600E+01 -0.46358351901E+01  0.61927130222E+01  0.00000000000E+00 0. -1.
</event>
<event>
 8    1  0.6469014E-010  0.9118800E+02  0.7816164E-02  0.1184000E+00
        -11   -1    0    0    0    0  0.00000000000E+00  0.00000000000E+00  0.45593999997E+02  0.45594000000E+02  0.51100000000E-03 0. -1.
         11   -1    0    0    0    0 -0.00000000000E+00 -0.00000000000E+00 -0.45593999997E+02  0.45594000000E+02  0.51100000000E-03 0.  1.
         23    2    1    2    0    0 -0.44408920985E-15  0.00000000000E+00  0.00000000000E+00  0.91188000000E+02  0.91188000000E+02 0.  0.
    9900012    2    3    3    0    0 -0.16409331597E+01 -0.13432704694E+02 -0.41237030022E+02  0.47787275789E+02  0.20000021631E+02 0.  0.
         12    1    3    3    0    0  0.16409331597E+01  0.13432704694E+02  0.41237030022E+02  0.43400724211E+02  0.00000000000E+00 0. -1.
         11    1    4    4    0    0 -0.15788908266E+01 -0.10720992418E+01 -0.24480009940E+01  0.31040299861E+01  0.51100000000E-03 0. -1.
        -11    1    4    4    0    0  0.52511547723E+01 -0.13608169267E+02 -0.17886441944E+02  0.23079898243E+02  0.51100000000E-03 0.  1.
        -12    1    4    4    0    0 -0.53131971054E+01  0.12475638151E+01 -0.20902587084E+02  0.21603347559E+02  0.00000000000E+00 0.  1.
</event>
<event>
 8    1  0.6469014E-010  0.9118800E+02  0.7816164E-02  0.1184000E+00
        -11   -1    0    0    0    0  0.00000000000E+00  0.00000000000E+00  0.45593999997E+02  0.45594000000E+02  0.51100000000E-03 0. -1.
         11   -1    0    0    0    0 -0.00000000000E+00 -0.00000000000E+00 -0.45593999997E+02  0.45594000000E+02  0.51100000000E-03 0.  1.
         23    2    1    2    0    0  0.00000000000E+00  0.00000000000E+00  0.71054273576E-14  0.91188000000E+02  0.91188000000E+02 0.  0.
    9900012    2    3    3    0    0  0.77570213115E+01 -0.23071967282E+02  0.35932383999E+02  0.47787271046E+02  0.20000000007E+02 0.  0.
        -12    1    3    3    0    0 -0.77570213115E+01  0.23071967282E+02 -0.35932383999E+02  0.43400728954E+02  0.00000000000E+00 0.  1.
         11    1    4    4    0    0  0.77881286192E+01 -0.99969772119E+01  0.26201127838E+02  0.29104872461E+02  0.51100000000E-03 0. -1.
        -11    1    4    4    0    0  0.22973556184E+00  0.95068870058E+00  0.29369742993E+01  0.30955461117E+01  0.51100000000E-03 0.  1.
         12    1    4    4    0    0 -0.26084286962E+00 -0.14025678771E+02  0.67942818620E+01  0.15586852473E+02  0.00000000000E+00 0. -1.
</event>
<event>
 8    1  0.6469014E-010  0.9118800E+02  0.7816164E-02  0.1184000E+00
        -11   -1    0    0    0    0  0.00000000000E+00  0.00000000000E+00  0.45593999997E+02  0.45594000000E+02  0.51100000000E-03 0. -1.
         11   -1    0    0    0    0 -0.00000000000E+00 -0.00000000000E+00 -0.45593999997E+02  0.45594000000E+02  0.51100000000E-03 0.  1.
         23    2    1    2    0    0  0.00000000000E+00 -0.35527136788E-14  0.71054273576E-14  0.91188000000E+02  0.91188000000E+02 0.  0.
    9900012    2    3    3    0    0  0.85596402024E+01  0.13617635653E+02 -0.40310243814E+02  0.47787271924E+02  0.20000004010E+02 0.  0.
         12    1    3    3    0    0 -0.85596402024E+01 -0.13617635653E+02  0.40310243814E+02  0.43400728076E+02  0.00000000000E+00 0. -1.
         11    1    4    4    0    0  0.79100944516E-01 -0.30454569686E+01 -0.45653245688E+01  0.54884655221E+01  0.51100000000E-03 0. -1.
        -11    1    4    4    0    0  0.41058407008E+01  0.14457256679E+02 -0.33866942131E+02  0.37051855124E+02  0.51100000000E-03 0.  1.
        -12    1    4    4    0    0  0.43746985570E+01  0.22058359431E+01 -0.18779771141E+01  0.52469512780E+01  0.00000000000E+00 0.  1.
</event>
<event>
 8    1  0.6469014E-010  0.9118800E+02  0.7816164E-02  0.1184000E+00
        -11   -1    0    0    0    0  0.00000000000E+00  0.00000000000E+00  0.45593999997E+02  0.45594000000E+02  0.51100000000E-03 0. -1.
         11   -1    0    0    0    0 -0.00000000000E+00 -0.00000000000E+00 -0.45593999997E+02  0.45594000000E+02  0.51100000000E-03 0.  1.
         23    2    1    2    0    0  0.00000000000E+00  0.35527136788E-14  0.00000000000E+00  0.91188000000E+02  0.91188000000E+02 0.  0.
    9900012    2    3    3    0    0  0.37174036794E+02 -0.17652156244E+02  0.13788237214E+02  0.47787272851E+02  0.20000008236E+02 0.  0.
        -12    1    3    3    0    0 -0.37174036794E+02  0.17652156244E+02 -0.13788237214E+02  0.43400727149E+02  0.00000000000E+00 0.  1.
         11    1    4    4    0    0  0.14030140788E+02 -0.37158694894E+01  0.12846266615E+02  0.19382443159E+02  0.51100000000E-03 0. -1.
        -11    1    4    4    0    0 -0.49167719249E+00 -0.12478731494E+01 -0.72945693985E+00  0.15267748841E+01  0.51100000000E-03 0.  1.
         12    1    4    4    0    0  0.23635573198E+02 -0.12688413605E+02  0.16714275388E+01  0.26878054808E+02  0.00000000000E+00 0. -1.
</event>
<event>
 8    1  0.6469014E-010  0.9118800E+02  0.7816164E-02  0.1184000E+00
        -11   -1    0    0    0    0  0.00000000000E+00  0.00000000000E+00  0.45593999997E+02  0.45594000000E+02  0.51100000000E-03 0. -1.
         11   -1    0    0    0    0 -0.00000000000E+00 -0.00000000000E+00 -0.45593999997E+02  0.45594000000E+02  0.51100000000E-03 0.  1.
         23    2    1    2    0    0  0.35527136788E-14  0.44408920985E-15 -0.71054273576E-14  0.91188000000E+02  0.91188000000E+02 0.  0.
    9900012    2    3    3    0    0  0.19396728978E+02  0.13267278374E+01 -0.38802446702E+02  0.47787272220E+02  0.20000005358E+02 0.  0.
         12    1    3    3    0    0 -0.19396728978E+02 -0.13267278374E+01  0.38802446702E+02  0.43400727780E+02  0.00000000000E+00 0. -1.
         11    1    4    4    0    0 -0.22030119603E+01  0.33827275944E+01 -0.39193560076E+01  0.56264961966E+01  0.51100000000E-03 0. -1.
        -11    1    4    4    0    0  0.56574599310E+01  0.29973770447E+01 -0.59412355618E+01  0.87343804750E+01  0.51100000000E-03 0.  1.
         12    1    4    4    0    0  0.15942281007E+02 -0.50533768017E+01 -0.28941855133E+02  0.33426395548E+02  0.00000000000E+00 0. -1.
</event>
<event>
 8    1  0.6469014E-010  0.9118800E+02  0.7816164E-02  0.1184000E+00
        -11   -1    0    0    0    0  0.00000000000E+00  0.00000000000E+00  0.45593999997E+02  0.45594000000E+02  0.51100000000E-03 0. -1.
         11   -1    0    0    0    0 -0.00000000000E+00 -0.00000000000E+00 -0.45593999997E+02  0.45594000000E+02  0.51100000000E-03 0.  1.
         23    2    1    2    0    0  0.35527136788E-14  0.35527136788E-14 -0.35527136788E-14  0.91188000000E+02  0.91188000000E+02 0.  0.
    9900012    2    3    3    0    0 -0.28082369752E+02 -0.17768712204E+02  0.27915525040E+02  0.47787272328E+02  0.20000005851E+02 0.  0.
        -12    1    3    3    0    0  0.28082369752E+02  0.17768712204E+02 -0.27915525040E+02  0.43400727672E+02  0.00000000000E+00 0.  1.
         11    1    4    4    0    0  0.17605548374E+01 -0.31014309401E+01  0.79465843053E+01  0.87101452108E+01  0.51100000000E-03 0. -1.
        -11    1    4    4    0    0 -0.35658805054E+01 -0.31618215496E+01  0.16599653973E+01  0.50465933729E+01  0.51100000000E-03 0.  1.
         12    1    4    4    0    0 -0.26277044084E+02 -0.11505459714E+02  0.18308975337E+02  0.34030533744E+02  0.00000000000E+00 0. -1.
</event>
<event>
 8    1  0.6469014E-010  0.9118800E+02  0.7816164E-02  0.1184000E+00
        -11   -1    0    0    0    0  0.00000000000E+00  0.00000000000E+00  0.45593999997E+02  0.45594000000E+02  0.51100000000E-03 0. -1.
         11   -1    0    0    0    0 -0.00000000000E+00 -0.00000000000E+00 -0.45593999997E+02  0.45594000000E+02  0.51100000000E-03 0.  1.
         23    2    1    2    0    0  0.00000000000E+00 -0.71054273576E-14  0.71054273576E-14  0.91188000000E+02  0.91188000000E+02 0.  0.
    9900012    2    3    3    0    0 -0.23701663400E+01 -0.21001719101E+02 -0.37906895516E+02  0.47787278562E+02  0.20000034274E+02 0.  0.
         12    1    3    3    0    0  0.23701663400E+01  0.21001719101E+02  0.37906895516E+02  0.43400721438E+02  0.00000000000E+00 0. -1.
         11    1    4    4    0    0  0.48547585270E+00 -0.20524885744E+02 -0.36040953968E+02  0.41478391781E+02  0.51100000000E-03 0.  1.
        -11    1    4    4    0    0 -0.25413486453E+01  0.20883327542E+01 -0.33797685957E+00  0.33066320098E+01  0.51100000000E-03 0. -1.
        -12    1    4    4    0    0 -0.31429354736E+00 -0.25651661120E+01 -0.15279646887E+01  0.30022547703E+01  0.00000000000E+00 0.  1.
</event>
<event>
 8    1  0.6469014E-010  0.9118800E+02  0.7816164E-02  0.1184000E+00
        -11   -1    0    0    0    0  0.00000000000E+00  0.00000000000E+00  0.45593999997E+02  0.45594000000E+02  0.51100000000E-03 0. -1.
         11   -1    0    0    0    0 -0.00000000000E+00 -0.00000000000E+00 -0.45593999997E+02  0.45594000000E+02  0.51100000000E-03 0.  1.
         23    2    1    2    0    0  0.00000000000E+00  0.00000000000E+00  0.35527136788E-14  0.91188000000E+02  0.91188000000E+02 0.  0.
    9900012    2    3    3    0    0 -0.36080417141E+02  0.80694469319E+01 -0.22731271010E+02  0.47787272395E+02  0.20000006160E+02 0.  0.
         12    1    3    3    0    0  0.36080417141E+02 -0.80694469319E+01  0.22731271010E+02  0.43400727605E+02  0.00000000000E+00 0. -1.
         11    1    4    4    0    0 -0.95026201361E+01 -0.11126369868E+01 -0.37126628170E+00  0.95747370423E+01  0.51100000000E-03 0. -1.
        -11    1    4    4    0    0 -0.18278658306E+02  0.39289070139E+01 -0.21287717339E+02  0.28332182577E+02  0.51100000000E-03 0.  1.
        -12    1    4    4    0    0 -0.82991386989E+01  0.52531769048E+01 -0.10722873892E+01  0.98803527762E+01  0.00000000000E+00 0.  1.
</event>
<event>
 8    1  0.6469014E-010  0.9118800E+02  0.7816164E-02  0.1184000E+00
        -11   -1    0    0    0    0  0.00000000000E+00  0.00000000000E+00  0.45593999997E+02  0.45594000000E+02  0.51100000000E-03 0.  1.
         11   -1    0    0    0    0 -0.00000000000E+00 -0.00000000000E+00 -0.45593999997E+02  0.45594000000E+02  0.51100000000E-03 0. -1.
         23    2    1    2    0    0  0.17763568394E-14  0.71054273576E-14  0.00000000000E+00  0.91188000000E+02  0.91188000000E+02 0.  0.
    9900012    2    3    3    0    0 -0.15428310822E+02  0.39391482067E+02  0.96903275170E+01  0.47787261739E+02  0.19999957571E+02 0.  0.
        -12    1    3    3    0    0  0.15428310822E+02 -0.39391482067E+02 -0.96903275170E+01  0.43400738261E+02  0.00000000000E+00 0.  1.
         11    1    4    4    0    0  0.12088617397E+01  0.15100297818E+02  0.54045248448E+01  0.16083818886E+02  0.51100000000E-03 0. -1.
        -11    1    4    4    0    0 -0.62806742333E+01  0.28446925067E+01  0.38208175042E+01  0.78827527516E+01  0.51100000000E-03 0.  1.
        -12    1    4    4    0    0 -0.10356498329E+02  0.21446491742E+02  0.46498516803E+00  0.23820690101E+02  0.00000000000E+00 0.  1.
</event>
<event>
 8    1  0.6469014E-010  0.9118800E+02  0.7816164E-02  0.1184000E+00
        -11   -1    0    0    0    0  0.00000000000E+00  0.00000000000E+00  0.45593999997E+02  0.45594000000E+02  0.51100000000E-03 0. -1.
         11   -1    0    0    0    0 -0.00000000000E+00 -0.00000000000E+00 -0.45593999997E+02  0.45594000000E+02  0.51100000000E-03 0.  1.
         23    2    1    2    0    0  0.00000000000E+00  0.11796119637E-15  0.00000000000E+00  0.91188000000E+02  0.91188000000E+02 0.  0.
    9900012    2    3    3    0    0 -0.42136158255E+02  0.59376168082E-01 -0.10400193740E+02  0.47787269731E+02  0.19999994013E+02 0.  0.
         12    1    3    3    0    0  0.42136158255E+02 -0.59376168082E-01  0.10400193740E+02  0.43400730269E+02  0.00000000000E+00 0. -1.
         11    1    4    4    0    0 -0.18733071673E+02  0.14584468643E+01  0.33819997127E+01  0.19091698822E+02  0.51100000000E-03 0. -1.
        -11    1    4    4    0    0 -0.19118603251E+01 -0.13163525387E+01  0.10857019506E+01  0.25625656861E+01  0.51100000000E-03 0.  1.
         12    1    4    4    0    0 -0.21491226257E+02 -0.82718157529E-01 -0.14867895403E+02  0.26133005224E+02  0.00000000000E+00 0. -1.
</event>
<event>
 8    1  0.6469014E-010  0.9118800E+02  0.7816164E-02  0.1184000E+00
        -11   -1    0    0    0    0  0.00000000000E+00  0.00000000000E+00  0.45593999997E+02  0.45594000000E+02  0.51100000000E-03 0. -1.
         11   -1    0    0    0    0 -0.00000000000E+00 -0.00000000000E+00 -0.45593999997E+02  0.45594000000E+02  0.51100000000E-03 0.  1.
         23    2    1    2    0    0 -0.58286708793E-15 -0.17763568394E-14  0.00000000000E+00  0.91188000000E+02  0.91188000000E+02 0.  0.
    9900012    2    3    3    0    0  0.20907646793E+00  0.13575717025E+02 -0.41222318477E+02  0.47787270210E+02  0.19999996195E+02 0.  0.
         12    1    3    3    0    0 -0.20907646793E+00 -0.13575717025E+02  0.41222318477E+02  0.43400729790E+02  0.00000000000E+00 0. -1.
         11    1    4    4    0    0 -0.17582933859E+01  0.46311141857E+00 -0.17588930534E+02  0.17682662282E+02  0.51100000000E-03 0. -1.
        -11    1    4    4    0    0  0.51336757965E+01  0.13042456492E+02 -0.22907466219E+02  0.26855396243E+02  0.51100000000E-03 0.  1.
        -12    1    4    4    0    0 -0.31663059427E+01  0.70149114286E-01 -0.72592172388E+00  0.32492116844E+01  0.00000000000E+00 0.  1.
</event>
<event>
 8    1  0.6469014E-010  0.9118800E+02  0.7816164E-02  0.1184000E+00
        -11   -1    0    0    0    0  0.00000000000E+00  0.00000000000E+00  0.45593999997E+02  0.45594000000E+02  0.51100000000E-03 0. -1.
         11   -1    0    0    0    0 -0.00000000000E+00 -0.00000000000E+00 -0.45593999997E+02  0.45594000000E+02  0.51100000000E-03 0.  1.
         23    2    1    2    0    0  0.00000000000E+00 -0.88817841970E-15  0.00000000000E+00  0.91188000000E+02  0.91188000000E+02 0.  0.
    9900012    2    3    3    0    0  0.14840738352E+02 -0.23660996028E+01  0.40715813538E+02  0.47787269428E+02  0.19999992628E+02 0.  0.
        -12    1    3    3    0    0 -0.14840738352E+02  0.23660996028E+01 -0.40715813538E+02  0.43400730572E+02  0.00000000000E+00 0.  1.
         11    1    4    4    0    0  0.35853027529E+01 -0.54984233316E+01  0.24867150204E+02  0.25718907723E+02  0.51100000000E-03 0. -1.
        -11    1    4    4    0    0  0.90918634388E+01  0.63923728021E+01  0.13570088406E+02  0.17540573265E+02  0.51100000000E-03 0.  1.
         12    1    4    4    0    0  0.21635721605E+01 -0.32600490733E+01  0.22785749276E+01  0.45277884397E+01  0.00000000000E+00 0. -1.
</event>
<event>
 8    1  0.6469014E-010  0.9118800E+02  0.7816164E-02  0.1184000E+00
        -11   -1    0    0    0    0  0.00000000000E+00  0.00000000000E+00  0.45593999997E+02  0.45594000000E+02  0.51100000000E-03 0.  1.
         11   -1    0    0    0    0 -0.00000000000E+00 -0.00000000000E+00 -0.45593999997E+02  0.45594000000E+02  0.51100000000E-03 0. -1.
         23    2    1    2    0    0  0.00000000000E+00  0.00000000000E+00  0.00000000000E+00  0.91188000000E+02  0.91188000000E+02 0.  0.
    9900012    2    3    3    0    0  0.39964668767E+02 -0.21628404048E+01  0.16786027887E+02  0.47787270046E+02  0.19999995449E+02 0.  0.
        -12    1    3    3    0    0 -0.39964668767E+02  0.21628404048E+01 -0.16786027887E+02  0.43400729954E+02  0.00000000000E+00 0.  1.
         11    1    4    4    0    0  0.65970563236E+01 -0.83857822913E+00 -0.37611079322E+01  0.76400457278E+01  0.51100000000E-03 0. -1.
        -11    1    4    4    0    0  0.19740465957E+02  0.24710778834E+01  0.87751024359E+01  0.21743841545E+02  0.51100000000E-03 0.  1.
         12    1    4    4    0    0  0.13627146487E+02 -0.37953400591E+01  0.11772033384E+02  0.18403382774E+02  0.00000000000E+00 0. -1.
</event>
<event>
 8    1  0.6469014E-010  0.9118800E+02  0.7816164E-02  0.1184000E+00
        -11   -1    0    0    0    0  0.00000000000E+00  0.00000000000E+00  0.45593999997E+02  0.45594000000E+02  0.51100000000E-03 0. -1.
         11   -1    0    0    0    0 -0.00000000000E+00 -0.00000000000E+00 -0.45593999997E+02  0.45594000000E+02  0.51100000000E-03 0.  1.
         23    2    1    2    0    0  0.35527136788E-14  0.17763568394E-14  0.00000000000E+00  0.91188000000E+02  0.91188000000E+02 0.  0.
    9900012    2    3    3    0    0 -0.31419951713E+02 -0.11413699482E+02  0.27679191134E+02  0.47787268170E+02  0.19999986897E+02 0.  0.
        -12    1    3    3    0    0  0.31419951713E+02  0.11413699482E+02 -0.27679191134E+02  0.43400731830E+02  0.00000000000E+00 0.  1.
         11    1    4    4    0    0 -0.24535983992E+02 -0.15303995043E+02  0.24052841615E+02  0.37613374812E+02  0.51100000000E-03 0. -1.
        -11    1    4    4    0    0 -0.16310495247E+01  0.19665322650E+01 -0.11653514192E+01  0.28081338808E+01  0.51100000000E-03 0.  1.
         12    1    4    4    0    0 -0.52529181965E+01  0.19237632967E+01  0.47917009388E+01  0.73657594780E+01  0.00000000000E+00 0. -1.
</event>
<event>
 8    1  0.6469014E-010  0.9118800E+02  0.7816164E-02  0.1184000E+00
        -11   -1    0    0    0    0  0.00000000000E+00  0.00000000000E+00  0.45593999997E+02  0.45594000000E+02  0.51100000000E-03 0. -1.
         11   -1    0    0    0    0 -0.00000000000E+00 -0.00000000000E+00 -0.45593999997E+02  0.45594000000E+02  0.51100000000E-03 0.  1.
         23    2    1    2    0    0  0.00000000000E+00  0.88817841970E-15  0.00000000000E+00  0.91188000000E+02  0.91188000000E+02 0.  0.
    9900012    2    3    3    0    0  0.30136211582E+02 -0.58899918839E+01  0.30671483463E+02  0.47787272463E+02  0.20000006469E+02 0.  0.
        -12    1    3    3    0    0 -0.30136211582E+02  0.58899918839E+01 -0.30671483463E+02  0.43400727537E+02  0.00000000000E+00 0.  1.
         11    1    4    4    0    0  0.31816077872E+01  0.51778234812E+00  0.23378437465E+01  0.39819894922E+01  0.51100000000E-03 0.  1.
        -11    1    4    4    0    0  0.28242095859E+02 -0.28631615437E+01  0.20201521981E+02  0.34841285326E+02  0.51100000000E-03 0. -1.
        -12    1    4    4    0    0 -0.12874920643E+01 -0.35446126883E+01  0.81321177350E+01  0.89639976451E+01  0.00000000000E+00 0.  1.
</event>
<event>
 8    1  0.6469014E-010  0.9118800E+02  0.7816164E-02  0.1184000E+00
        -11   -1    0    0    0    0  0.00000000000E+00  0.00000000000E+00  0.45593999997E+02  0.45594000000E+02  0.51100000000E-03 0. -1.
         11   -1    0    0    0    0 -0.00000000000E+00 -0.00000000000E+00 -0.45593999997E+02  0.45594000000E+02  0.51100000000E-03 0.  1.
         23    2    1    2    0    0  0.35527136788E-14  0.00000000000E+00  0.71054273576E-14  0.91188000000E+02  0.91188000000E+02 0.  0.
    9900012    2    3    3    0    0 -0.26157770875E+02 -0.17220913799E+02  0.30047192007E+02  0.47787278846E+02  0.20000035569E+02 0.  0.
        -12    1    3    3    0    0  0.26157770875E+02  0.17220913799E+02 -0.30047192007E+02  0.43400721154E+02  0.00000000000E+00 0.  1.
         11    1    4    4    0    0 -0.63453846443E+01 -0.23387676491E+01  0.17394461217E+02  0.18662824590E+02  0.51100000000E-03 0. -1.
        -11    1    4    4    0    0 -0.19436959144E+02 -0.12266513782E+02  0.13083794612E+02  0.26447087228E+02  0.51100000000E-03 0.  1.
         12    1    4    4    0    0 -0.37542708683E+00 -0.26156323676E+01 -0.43106382230E+00  0.26773670273E+01  0.00000000000E+00 0. -1.
</event>
<event>
 8    1  0.6469014E-010  0.9118800E+02  0.7816164E-02  0.1184000E+00
        -11   -1    0    0    0    0  0.00000000000E+00  0.00000000000E+00  0.45593999997E+02  0.45594000000E+02  0.51100000000E-03 0. -1.
         11   -1    0    0    0    0 -0.00000000000E+00 -0.00000000000E+00 -0.45593999997E+02  0.45594000000E+02  0.51100000000E-03 0.  1.
         23    2    1    2    0    0  0.16653345369E-15  0.88817841970E-15  0.00000000000E+00  0.91188000000E+02  0.91188000000E+02 0.  0.
    9900012    2    3    3    0    0  0.39190767224E+00 -0.40182992365E+01  0.43212532556E+02  0.47787270855E+02  0.19999999138E+02 0.  0.
        -12    1    3    3    0    0 -0.39190767224E+00  0.40182992365E+01 -0.43212532556E+02  0.43400729145E+02  0.00000000000E+00 0.  1.
         11    1    4    4    0    0 -0.59756860045E+00  0.45129366608E+01  0.34246327197E+01  0.56966477039E+01  0.51100000000E-03 0.  1.
        -11    1    4    4    0    0  0.27774256732E+01 -0.10218809321E+02  0.25806278418E+02  0.27894482669E+02  0.51100000000E-03 0. -1.
        -12    1    4    4    0    0 -0.17879494005E+01  0.16875734236E+01  0.13981621418E+02  0.14196140483E+02  0.00000000000E+00 0.  1.
</event>
<event>
 8    1  0.6469014E-010  0.9118800E+02  0.7816164E-02  0.1184000E+00
        -11   -1    0    0    0    0  0.00000000000E+00  0.00000000000E+00  0.45593999997E+02  0.45594000000E+02  0.51100000000E-03 0.  1.
         11   -1    0    0    0    0 -0.00000000000E+00 -0.00000000000E+00 -0.45593999997E+02  0.45594000000E+02  0.51100000000E-03 0. -1.
         23    2    1    2    0    0  0.00000000000E+00  0.12490009027E-15  0.00000000000E+00  0.91188000000E+02  0.91188000000E+02 0.  0.
    9900012    2    3    3    0    0  0.42793943988E+02 -0.95061864401E-01  0.72313561104E+01  0.47787272011E+02  0.20000004407E+02 0.  0.
         12    1    3    3    0    0 -0.42793943988E+02  0.95061864401E-01 -0.72313561104E+01  0.43400727989E+02  0.00000000000E+00 0. -1.
         11    1    4    4    0    0  0.16342070272E+02 -0.63521765992E+01  0.73897715346E+01  0.19026879196E+02  0.51100000000E-03 0. -1.
        -11    1    4    4    0    0  0.14980747860E+02  0.23226627102E+00  0.33169836424E+01  0.15345329414E+02  0.51100000000E-03 0.  1.
         12    1    4    4    0    0  0.11471125855E+02  0.60248484638E+01 -0.34753990666E+01  0.13415063401E+02  0.00000000000E+00 0. -1.
</event>
<event>
 8    1  0.6469014E-010  0.9118800E+02  0.7816164E-02  0.1184000E+00
        -11   -1    0    0    0    0  0.00000000000E+00  0.00000000000E+00  0.45593999997E+02  0.45594000000E+02  0.51100000000E-03 0.  1.
         11   -1    0    0    0    0 -0.00000000000E+00 -0.00000000000E+00 -0.45593999997E+02  0.45594000000E+02  0.51100000000E-03 0. -1.
         23    2    1    2    0    0 -0.71054273576E-14  0.88817841970E-15  0.00000000000E+00  0.91188000000E+02  0.91188000000E+02 0.  0.
    9900012    2    3    3    0    0  0.36570761814E+02 -0.70894182385E+01 -0.22269762754E+02  0.47787276461E+02  0.20000024696E+02 0.  0.
         12    1    3    3    0    0 -0.36570761814E+02  0.70894182385E+01  0.22269762754E+02  0.43400723539E+02  0.00000000000E+00 0. -1.
         11    1    4    4    0    0  0.10071562232E+02 -0.38455836645E+01 -0.17430169565E+02  0.20494772280E+02  0.51100000000E-03 0. -1.
        -11    1    4    4    0    0  0.11318959911E+02 -0.76821514344E+00 -0.34050421087E+01  0.11844970240E+02  0.51100000000E-03 0.  1.
         12    1    4    4    0    0  0.15180239671E+02 -0.24756194306E+01 -0.14345510810E+01  0.15447533940E+02  0.00000000000E+00 0. -1.
</event>
<event>
 8    1  0.6469014E-010  0.9118800E+02  0.7816164E-02  0.1184000E+00
        -11   -1    0    0    0    0  0.00000000000E+00  0.00000000000E+00  0.45593999997E+02  0.45594000000E+02  0.51100000000E-03 0. -1.
         11   -1    0    0    0    0 -0.00000000000E+00 -0.00000000000E+00 -0.45593999997E+02  0.45594000000E+02  0.51100000000E-03 0.  1.
         23    2    1    2    0    0  0.00000000000E+00  0.00000000000E+00 -0.35527136788E-14  0.91188000000E+02  0.91188000000E+02 0.  0.
    9900012    2    3    3    0    0 -0.30060596966E+02  0.57062218506E+01  0.30780233710E+02  0.47787271377E+02  0.20000001518E+02 0.  0.
        -12    1    3    3    0    0  0.30060596966E+02 -0.57062218506E+01 -0.30780233710E+02  0.43400728623E+02  0.00000000000E+00 0.  1.
         11    1    4    4    0    0 -0.14914713465E+02  0.28722759289E+01  0.12835009872E+02  0.19885575814E+02  0.51100000000E-03 0. -1.
        -11    1    4    4    0    0 -0.48146134604E+01  0.19927144857E+01  0.16661202717E+02  0.17457006904E+02  0.51100000000E-03 0.  1.
        -12    1    4    4    0    0 -0.10331270040E+02  0.84123143596E+00  0.12840211206E+01  0.10444688660E+02  0.00000000000E+00 0.  1.
</event>
<event>
 8    1  0.6469014E-010  0.9118800E+02  0.7816164E-02  0.1184000E+00
        -11   -1    0    0    0    0  0.00000000000E+00  0.00000000000E+00  0.45593999997E+02  0.45594000000E+02  0.51100000000E-03 0. -1.
         11   -1    0    0    0    0 -0.00000000000E+00 -0.00000000000E+00 -0.45593999997E+02  0.45594000000E+02  0.51100000000E-03 0.  1.
         23    2    1    2    0    0  0.00000000000E+00  0.00000000000E+00  0.00000000000E+00  0.91188000000E+02  0.91188000000E+02 0.  0.
    9900012    2    3    3    0    0  0.18514059821E+02  0.23814249260E+02 -0.31204732529E+02  0.47787260247E+02  0.19999950770E+02 0.  0.
         12    1    3    3    0    0 -0.18514059821E+02 -0.23814249260E+02  0.31204732529E+02  0.43400739753E+02  0.00000000000E+00 0. -1.
         11    1    4    4    0    0  0.13026433339E+02  0.24910021727E+02 -0.29253889202E+02  0.40570767576E+02  0.51100000000E-03 0. -1.
        -11    1    4    4    0    0  0.45752566368E+01 -0.70595520962E+00 -0.31952098393E+01  0.56250077537E+01  0.51100000000E-03 0.  1.
         12    1    4    4    0    0  0.91236984462E+00 -0.38981725716E+00  0.12443665118E+01  0.15914849176E+01  0.00000000000E+00 0. -1.
</event>
<event>
 8    1  0.6469014E-010  0.9118800E+02  0.7816164E-02  0.1184000E+00
        -11   -1    0    0    0    0  0.00000000000E+00  0.00000000000E+00  0.45593999997E+02  0.45594000000E+02  0.51100000000E-03 0. -1.
         11   -1    0    0    0    0 -0.00000000000E+00 -0.00000000000E+00 -0.45593999997E+02  0.45594000000E+02  0.51100000000E-03 0.  1.
         23    2    1    2    0    0  0.13322676296E-14  0.00000000000E+00  0.00000000000E+00  0.91188000000E+02  0.91188000000E+02 0.  0.
    9900012    2    3    3    0    0  0.33244767131E+01  0.15856674664E+02  0.40263346882E+02  0.47787269834E+02  0.19999994482E+02 0.  0.
        -12    1    3    3    0    0 -0.33244767131E+01 -0.15856674664E+02 -0.40263346882E+02  0.43400730166E+02  0.00000000000E+00 0.  1.
         11    1    4    4    0    0 -0.39218594619E+01  0.13648276706E+02  0.16826449319E+02  0.22017852656E+02  0.51100000000E-03 0. -1.
        -11    1    4    4    0    0  0.15160107088E+01 -0.27019828045E+01  0.55592574842E+01  0.63643022855E+01  0.51100000000E-03 0.  1.
         12    1    4    4    0    0  0.57303254662E+01  0.49103807631E+01  0.17877640079E+02  0.19405114892E+02  0.00000000000E+00 0. -1.
</event>
<event>
 8    1  0.6469014E-010  0.9118800E+02  0.7816164E-02  0.1184000E+00
        -11   -1    0    0    0    0  0.00000000000E+00  0.00000000000E+00  0.45593999997E+02  0.45594000000E+02  0.51100000000E-03 0.  1.
         11   -1    0    0    0    0 -0.00000000000E+00 -0.00000000000E+00 -0.45593999997E+02  0.45594000000E+02  0.51100000000E-03 0. -1.
         23    2    1    2    0    0  0.00000000000E+00 -0.35527136788E-14  0.17763568394E-14  0.91188000000E+02  0.91188000000E+02 0.  0.
    9900012    2    3    3    0    0 -0.35449533047E+02  0.22329353673E+02  0.11329339524E+02  0.47787270020E+02  0.19999995330E+02 0.  0.
        -12    1    3    3    0    0  0.35449533047E+02 -0.22329353673E+02 -0.11329339524E+02  0.43400729980E+02  0.00000000000E+00 0.  1.
         11    1    4    4    0    0 -0.26508540612E+02  0.15109286109E+02  0.12081787377E+02  0.32817111978E+02  0.51100000000E-03 0. -1.
        -11    1    4    4    0    0 -0.60268740241E+01  0.53430380942E+01 -0.50058985519E+01  0.94831580790E+01  0.51100000000E-03 0.  1.
        -12    1    4    4    0    0 -0.29141184115E+01  0.18770294696E+01  0.42534506993E+01  0.54869999633E+01  0.00000000000E+00 0.  1.
</event>
<event>
 8    1  0.6469014E-010  0.9118800E+02  0.7816164E-02  0.1184000E+00
        -11   -1    0    0    0    0  0.00000000000E+00  0.00000000000E+00  0.45593999997E+02  0.45594000000E+02  0.51100000000E-03 0. -1.
         11   -1    0    0    0    0 -0.00000000000E+00 -0.00000000000E+00 -0.45593999997E+02  0.45594000000E+02  0.51100000000E-03 0.  1.
         23    2    1    2    0    0  0.00000000000E+00 -0.35527136788E-14  0.00000000000E+00  0.91188000000E+02  0.91188000000E+02 0.  0.
    9900012    2    3    3    0    0  0.18023281723E+02 -0.30491585420E+02 -0.25080805211E+02  0.47787282776E+02  0.20000053490E+02 0.  0.
         12    1    3    3    0    0 -0.18023281723E+02  0.30491585420E+02  0.25080805211E+02  0.43400717224E+02  0.00000000000E+00 0. -1.
         11    1    4    4    0    0  0.60884577810E+01 -0.16535991123E+01 -0.41494928633E+01  0.75512912445E+01  0.51100000000E-03 0. -1.
        -11    1    4    4    0    0  0.34547828302E+01 -0.24149978732E+02 -0.12602166191E+02  0.27458543117E+02  0.51100000000E-03 0.  1.
        -12    1    4    4    0    0  0.84800411113E+01 -0.46880075760E+01 -0.83291461570E+01  0.12777448415E+02  0.00000000000E+00 0.  1.
</event>
<event>
 8    1  0.6469014E-010  0.9118800E+02  0.7816164E-02  0.1184000E+00
        -11   -1    0    0    0    0  0.00000000000E+00  0.00000000000E+00  0.45593999997E+02  0.45594000000E+02  0.51100000000E-03 0. -1.
         11   -1    0    0    0    0 -0.00000000000E+00 -0.00000000000E+00 -0.45593999997E+02  0.45594000000E+02  0.51100000000E-03 0.  1.
         23    2    1    2    0    0  0.44408920985E-15 -0.71054273576E-14  0.00000000000E+00  0.91188000000E+02  0.91188000000E+02 0.  0.
    9900012    2    3    3    0    0 -0.25081051468E+01 -0.38086244691E+02 -0.20658433072E+02  0.47787268635E+02  0.19999989012E+02 0.  0.
         12    1    3    3    0    0  0.25081051468E+01  0.38086244691E+02  0.20658433072E+02  0.43400731365E+02  0.00000000000E+00 0. -1.
         11    1    4    4    0    0 -0.20742498355E+01 -0.30667212198E+01 -0.84599740250E-02  0.37023456419E+01  0.51100000000E-03 0. -1.
        -11    1    4    4    0    0 -0.66621628712E+01 -0.11213497418E+02 -0.12752131373E+02  0.18241266219E+02  0.51100000000E-03 0.  1.
        -12    1    4    4    0    0  0.62283075600E+01 -0.23806026053E+02 -0.78978417247E+01  0.25843656774E+02  0.00000000000E+00 0.  1.
</event>
<event>
 8    1  0.6469014E-010  0.9118800E+02  0.7816164E-02  0.1184000E+00
        -11   -1    0    0    0    0  0.00000000000E+00  0.00000000000E+00  0.45593999997E+02  0.45594000000E+02  0.51100000000E-03 0. -1.
         11   -1    0    0    0    0 -0.00000000000E+00 -0.00000000000E+00 -0.45593999997E+02  0.45594000000E+02  0.51100000000E-03 0.  1.
         23    2    1    2    0    0  0.00000000000E+00 -0.88817841970E-15  0.71054273576E-14  0.91188000000E+02  0.91188000000E+02 0.  0.
    9900012    2    3    3    0    0 -0.45504815063E+01  0.64614102915E+01 -0.42675120078E+02  0.47787279055E+02  0.20000036522E+02 0.  0.
         12    1    3    3    0    0  0.45504815063E+01 -0.64614102915E+01  0.42675120078E+02  0.43400720945E+02  0.00000000000E+00 0. -1.
         11    1    4    4    0    0  0.10118147182E+01 -0.28967001468E+01 -0.27987681150E+00  0.30810667074E+01  0.51100000000E-03 0. -1.
        -11    1    4    4    0    0 -0.35173901325E+01  0.69938268289E+01 -0.40024618854E+02  0.40783032767E+02  0.51100000000E-03 0.  1.
         12    1    4    4    0    0 -0.20449060919E+01  0.23642836095E+01 -0.23706244127E+01  0.39231795800E+01  0.00000000000E+00 0. -1.
</event>
<event>
 8    1  0.6469014E-010  0.9118800E+02  0.7816164E-02  0.1184000E+00
        -11   -1    0    0    0    0  0.00000000000E+00  0.00000000000E+00  0.45593999997E+02  0.45594000000E+02  0.51100000000E-03 0. -1.
         11   -1    0    0    0    0 -0.00000000000E+00 -0.00000000000E+00 -0.45593999997E+02  0.45594000000E+02  0.51100000000E-03 0.  1.
         23    2    1    2    0    0  0.00000000000E+00  0.44408920985E-15 -0.71054273576E-14  0.91188000000E+02  0.91188000000E+02 0.  0.
    9900012    2    3    3    0    0  0.15274805924E+02 -0.34604056031E+01  0.40476299723E+02  0.47787251824E+02  0.19999912366E+02 0.  0.
        -12    1    3    3    0    0 -0.15274805924E+02  0.34604056031E+01 -0.40476299723E+02  0.43400748176E+02  0.00000000000E+00 0.  1.
         11    1    4    4    0    0  0.78214336855E+01  0.22061072839E+01  0.10707285939E+02  0.13442012747E+02  0.51100000000E-03 0. -1.
        -11    1    4    4    0    0  0.34738598218E+00 -0.37678936478E+01  0.10752526189E+00  0.37854011023E+01  0.51100000000E-03 0.  1.
        -12    1    4    4    0    0  0.71059862559E+01 -0.18986192392E+01  0.29661488523E+02  0.30559837975E+02  0.00000000000E+00 0.  1.
</event>
<event>
 8    1  0.6469014E-010  0.9118800E+02  0.7816164E-02  0.1184000E+00
        -11   -1    0    0    0    0  0.00000000000E+00  0.00000000000E+00  0.45593999997E+02  0.45594000000E+02  0.51100000000E-03 0. -1.
         11   -1    0    0    0    0 -0.00000000000E+00 -0.00000000000E+00 -0.45593999997E+02  0.45594000000E+02  0.51100000000E-03 0.  1.
         23    2    1    2    0    0  0.00000000000E+00  0.00000000000E+00  0.71054273576E-14  0.91188000000E+02  0.91188000000E+02 0.  0.
    9900012    2    3    3    0    0  0.19152480823E+02 -0.53053024859E+01 -0.38583102290E+02  0.47787314079E+02  0.20000196209E+02 0.  0.
         12    1    3    3    0    0 -0.19152480823E+02  0.53053024859E+01  0.38583102290E+02  0.43400685921E+02  0.00000000000E+00 0. -1.
         11    1    4    4    0    0  0.29630849339E+01 -0.49515312691E+01 -0.36877643709E+01  0.68481486951E+01  0.51100000000E-03 0. -1.
        -11    1    4    4    0    0  0.12988319025E+02  0.30044227812E+01 -0.33560749954E+02  0.36111589900E+02  0.51100000000E-03 0.  1.
        -12    1    4    4    0    0  0.32010768633E+01 -0.33581939980E+01 -0.13345879647E+01  0.48275754835E+01  0.00000000000E+00 0.  1.
</event>
<event>
 8    1  0.6469014E-010  0.9118800E+02  0.7816164E-02  0.1184000E+00
        -11   -1    0    0    0    0  0.00000000000E+00  0.00000000000E+00  0.45593999997E+02  0.45594000000E+02  0.51100000000E-03 0. -1.
         11   -1    0    0    0    0 -0.00000000000E+00 -0.00000000000E+00 -0.45593999997E+02  0.45594000000E+02  0.51100000000E-03 0.  1.
         23    2    1    2    0    0  0.00000000000E+00  0.35527136788E-14  0.00000000000E+00  0.91188000000E+02  0.91188000000E+02 0.  0.
    9900012    2    3    3    0    0 -0.16428899886E+02 -0.23550845806E+02  0.32543387781E+02  0.47787272150E+02  0.20000005039E+02 0.  0.
        -12    1    3    3    0    0  0.16428899886E+02  0.23550845806E+02 -0.32543387781E+02  0.43400727850E+02  0.00000000000E+00 0.  1.
         11    1    4    4    0    0  0.45621014314E+01 -0.49439308955E+01  0.74828656432E+01  0.10062231396E+02  0.51100000000E-03 0. -1.
        -11    1    4    4    0    0 -0.12172526382E+02 -0.88695458310E+01  0.13448772427E+02  0.20191798381E+02  0.51100000000E-03 0.  1.
         12    1    4    4    0    0 -0.88184749350E+01 -0.97373690798E+01  0.11611749711E+02  0.17533242373E+02  0.00000000000E+00 0. -1.
</event>
<event>
 8    1  0.6469014E-010  0.9118800E+02  0.7816164E-02  0.1184000E+00
        -11   -1    0    0    0    0  0.00000000000E+00  0.00000000000E+00  0.45593999997E+02  0.45594000000E+02  0.51100000000E-03 0. -1.
         11   -1    0    0    0    0 -0.00000000000E+00 -0.00000000000E+00 -0.45593999997E+02  0.45594000000E+02  0.51100000000E-03 0.  1.
         23    2    1    2    0    0  0.00000000000E+00  0.00000000000E+00 -0.17763568394E-14  0.91188000000E+02  0.91188000000E+02 0.  0.
    9900012    2    3    3    0    0 -0.39270484244E+02  0.16636502042E+02  0.80423311092E+01  0.47787271635E+02  0.20000002691E+02 0.  0.
        -12    1    3    3    0    0  0.39270484244E+02 -0.16636502042E+02 -0.80423311092E+01  0.43400728365E+02  0.00000000000E+00 0.  1.
         11    1    4    4    0    0 -0.14913581056E+02  0.64321587413E+01  0.12311257382E+02  0.20380250847E+02  0.51100000000E-03 0. -1.
        -11    1    4    4    0    0 -0.22953095988E+02  0.82735560222E+01 -0.26936610229E+01  0.24546937786E+02  0.51100000000E-03 0.  1.
         12    1    4    4    0    0 -0.14038072007E+01  0.19307872784E+01 -0.15752652503E+01  0.28600830022E+01  0.00000000000E+00 0. -1.
</event>
<event>
 8    1  0.6469014E-010  0.9118800E+02  0.7816164E-02  0.1184000E+00
        -11   -1    0    0    0    0  0.00000000000E+00  0.00000000000E+00  0.45593999997E+02  0.45594000000E+02  0.51100000000E-03 0.  1.
         11   -1    0    0    0    0 -0.00000000000E+00 -0.00000000000E+00 -0.45593999997E+02  0.45594000000E+02  0.51100000000E-03 0. -1.
         23    2    1    2    0    0  0.00000000000E+00 -0.35527136788E-14  0.00000000000E+00  0.91188000000E+02  0.91188000000E+02 0.  0.
    9900012    2    3    3    0    0 -0.25787868326E+02  0.20287396192E+02  0.28408284696E+02  0.47787271476E+02  0.20000001966E+02 0.  0.
        -12    1    3    3    0    0  0.25787868326E+02 -0.20287396192E+02 -0.28408284696E+02  0.43400728524E+02  0.00000000000E+00 0.  1.
         11    1    4    4    0    0 -0.19459148889E+01  0.14791971782E+01 -0.13585592404E+01  0.27964785924E+01  0.51100000000E-03 0. -1.
        -11    1    4    4    0    0 -0.14318842516E+02  0.23974708697E+01  0.15608746092E+02  0.21316896406E+02  0.51100000000E-03 0.  1.
        -12    1    4    4    0    0 -0.95231109216E+01  0.16410728144E+02  0.14158097845E+02  0.23673896477E+02  0.00000000000E+00 0.  1.
</event>
<event>
 8    1  0.6469014E-010  0.9118800E+02  0.7816164E-02  0.1184000E+00
        -11   -1    0    0    0    0  0.00000000000E+00  0.00000000000E+00  0.45593999997E+02  0.45594000000E+02  0.51100000000E-03 0. -1.
         11   -1    0    0    0    0 -0.00000000000E+00 -0.00000000000E+00 -0.45593999997E+02  0.45594000000E+02  0.51100000000E-03 0.  1.
         23    2    1    2    0    0  0.00000000000E+00 -0.35527136788E-14  0.00000000000E+00  0.91188000000E+02  0.91188000000E+02 0.  0.
    9900012    2    3    3    0    0  0.23357751361E+02  0.26329051284E+02 -0.25393302556E+02  0.47787270688E+02  0.19999998373E+02 0.  0.
         12    1    3    3    0    0 -0.23357751361E+02 -0.26329051284E+02  0.25393302556E+02  0.43400729312E+02  0.00000000000E+00 0. -1.
         11    1    4    4    0    0  0.16327511816E+02  0.88372863815E+01 -0.18187174470E+02  0.25989586148E+02  0.51100000000E-03 0. -1.
        -11    1    4    4    0    0  0.51232163406E+01  0.31420165804E+01 -0.30349766983E+01  0.67328075633E+01  0.51100000000E-03 0.  1.
         12    1    4    4    0    0  0.19070232044E+01  0.14349748322E+02 -0.41711513881E+01  0.15064876976E+02  0.00000000000E+00 0. -1.
</event>
<event>
 8    1  0.6469014E-010  0.9118800E+02  0.7816164E-02  0.1184000E+00
        -11   -1    0    0    0    0  0.00000000000E+00  0.00000000000E+00  0.45593999997E+02  0.45594000000E+02  0.51100000000E-03 0. -1.
         11   -1    0    0    0    0 -0.00000000000E+00 -0.00000000000E+00 -0.45593999997E+02  0.45594000000E+02  0.51100000000E-03 0.  1.
         23    2    1    2    0    0  0.00000000000E+00  0.00000000000E+00  0.00000000000E+00  0.91188000000E+02  0.91188000000E+02 0.  0.
    9900012    2    3    3    0    0 -0.17193304898E+01  0.42308684158E+02  0.95206291907E+01  0.47787271519E+02  0.20000002162E+02 0.  0.
        -12    1    3    3    0    0  0.17193304898E+01 -0.42308684158E+02 -0.95206291907E+01  0.43400728481E+02  0.00000000000E+00 0.  1.
         11    1    4    4    0    0  0.11384303571E+01  0.12293845534E+02  0.78402383052E+01  0.14625457211E+02  0.51100000000E-03 0. -1.
        -11    1    4    4    0    0  0.17709035864E+00  0.14117431427E+02 -0.58855422112E+01  0.15296170713E+02  0.51100000000E-03 0.  1.
        -12    1    4    4    0    0 -0.30348512055E+01  0.15897407197E+02  0.75659330966E+01  0.17865643595E+02  0.00000000000E+00 0.  1.
</event>
<event>
 8    1  0.6469014E-010  0.9118800E+02  0.7816164E-02  0.1184000E+00
        -11   -1    0    0    0    0  0.00000000000E+00  0.00000000000E+00  0.45593999997E+02  0.45594000000E+02  0.51100000000E-03 0. -1.
         11   -1    0    0    0    0 -0.00000000000E+00 -0.00000000000E+00 -0.45593999997E+02  0.45594000000E+02  0.51100000000E-03 0.  1.
         23    2    1    2    0    0  0.00000000000E+00  0.00000000000E+00 -0.35527136788E-14  0.91188000000E+02  0.91188000000E+02 0.  0.
    9900012    2    3    3    0    0  0.29622848699E+02 -0.24654098295E+02  0.19957078861E+02  0.47787277374E+02  0.20000028860E+02 0.  0.
        -12    1    3    3    0    0 -0.29622848699E+02  0.24654098295E+02 -0.19957078861E+02  0.43400722626E+02  0.00000000000E+00 0.  1.
         11    1    4    4    0    0  0.47465527201E+01 -0.20346807985E+01  0.46486692613E+01  0.69483677824E+01  0.51100000000E-03 0. -1.
        -11    1    4    4    0    0  0.19503326195E+02 -0.15867163071E+02  0.18938636372E+02  0.31477270283E+02  0.51100000000E-03 0.  1.
        -12    1    4    4    0    0  0.53729697835E+01 -0.67522544262E+01 -0.36302267726E+01  0.93616393089E+01  0.00000000000E+00 0.  1.
</event>
<event>
 8    1  0.6469014E-010  0.9118800E+02  0.7816164E-02  0.1184000E+00
        -11   -1    0    0    0    0  0.00000000000E+00  0.00000000000E+00  0.45593999997E+02  0.45594000000E+02  0.51100000000E-03 0. -1.
         11   -1    0    0    0    0 -0.00000000000E+00 -0.00000000000E+00 -0.45593999997E+02  0.45594000000E+02  0.51100000000E-03 0.  1.
         23    2    1    2    0    0  0.88817841970E-15  0.00000000000E+00 -0.44408920985E-15  0.91188000000E+02  0.91188000000E+02 0.  0.
    9900012    2    3    3    0    0 -0.52308691844E+01 -0.42980182827E+02  0.29944373653E+01  0.47787253885E+02  0.19999921761E+02 0.  0.
        -12    1    3    3    0    0  0.52308691844E+01  0.42980182827E+02 -0.29944373653E+01  0.43400746115E+02  0.00000000000E+00 0.  1.
         11    1    4    4    0    0 -0.42724122248E+01 -0.18411295437E+01  0.35387542737E+01  0.58451729047E+01  0.51100000000E-03 0. -1.
        -11    1    4    4    0    0 -0.13996925474E+01 -0.21537213864E+02 -0.42262946645E+01  0.21992550718E+02  0.51100000000E-03 0.  1.
         12    1    4    4    0    0  0.44123558782E+00 -0.19601839419E+02  0.36819777562E+01  0.19949530261E+02  0.00000000000E+00 0. -1.
</event>
<event>
 8    1  0.6469014E-010  0.9118800E+02  0.7816164E-02  0.1184000E+00
        -11   -1    0    0    0    0  0.00000000000E+00  0.00000000000E+00  0.45593999997E+02  0.45594000000E+02  0.51100000000E-03 0. -1.
         11   -1    0    0    0    0 -0.00000000000E+00 -0.00000000000E+00 -0.45593999997E+02  0.45594000000E+02  0.51100000000E-03 0.  1.
         23    2    1    2    0    0  0.00000000000E+00 -0.44408920985E-15  0.00000000000E+00  0.91188000000E+02  0.91188000000E+02 0.  0.
    9900012    2    3    3    0    0  0.28339537027E+02  0.20258887803E+01 -0.32808376282E+02  0.47787272604E+02  0.20000007109E+02 0.  0.
         12    1    3    3    0    0 -0.28339537027E+02 -0.20258887803E+01  0.32808376282E+02  0.43400727396E+02  0.00000000000E+00 0. -1.
         11    1    4    4    0    0  0.21924861161E+02  0.27579431522E+01 -0.15535858089E+02  0.27012380017E+02  0.51100000000E-03 0. -1.
        -11    1    4    4    0    0  0.29754854099E+01 -0.34400917352E+01 -0.15321559870E+02  0.15982426026E+02  0.51100000000E-03 0.  1.
        -12    1    4    4    0    0  0.34391904564E+01  0.27080373634E+01 -0.19509583235E+01  0.47924665609E+01  0.00000000000E+00 0.  1.
</event>
<event>
 8    1  0.6469014E-010  0.9118800E+02  0.7816164E-02  0.1184000E+00
        -11   -1    0    0    0    0  0.00000000000E+00  0.00000000000E+00  0.45593999997E+02  0.45594000000E+02  0.51100000000E-03 0. -1.
         11   -1    0    0    0    0 -0.00000000000E+00 -0.00000000000E+00 -0.45593999997E+02  0.45594000000E+02  0.51100000000E-03 0.  1.
         23    2    1    2    0    0  0.00000000000E+00  0.71054273576E-14 -0.35527136788E-14  0.91188000000E+02  0.91188000000E+02 0.  0.
    9900012    2    3    3    0    0 -0.18800382601E+02  0.32223626532E+02  0.22176729246E+02  0.47787264834E+02  0.19999971686E+02 0.  0.
        -12    1    3    3    0    0  0.18800382601E+02 -0.32223626532E+02 -0.22176729246E+02  0.43400735166E+02  0.00000000000E+00 0.  1.
         11    1    4    4    0    0 -0.15630612734E+02  0.22341590833E+02  0.72310554951E+01  0.28209057042E+02  0.51100000000E-03 0. -1.
        -11    1    4    4    0    0  0.69938354556E+00 -0.75923785755E+00  0.27465007276E+01  0.29340834984E+01  0.51100000000E-03 0.  1.
         12    1    4    4    0    0 -0.38691534131E+01  0.10641273557E+02  0.12199173024E+02  0.16644124294E+02  0.00000000000E+00 0. -1.
</event>
<event>
 8    1  0.6469014E-010  0.9118800E+02  0.7816164E-02  0.1184000E+00
        -11   -1    0    0    0    0  0.00000000000E+00  0.00000000000E+00  0.45593999997E+02  0.45594000000E+02  0.51100000000E-03 0. -1.
         11   -1    0    0    0    0 -0.00000000000E+00 -0.00000000000E+00 -0.45593999997E+02  0.45594000000E+02  0.51100000000E-03 0.  1.
         23    2    1    2    0    0  0.00000000000E+00  0.17763568394E-14  0.00000000000E+00  0.91188000000E+02  0.91188000000E+02 0.  0.
    9900012    2    3    3    0    0 -0.35302528841E+01 -0.13598344551E+02 -0.41063916447E+02  0.47787275421E+02  0.20000019957E+02 0.  0.
         12    1    3    3    0    0  0.35302528841E+01  0.13598344551E+02  0.41063916447E+02  0.43400724579E+02  0.00000000000E+00 0. -1.
         11    1    4    4    0    0 -0.61515311517E+01 -0.76987195279E+01 -0.93808282110E+01  0.13605570773E+02  0.51100000000E-03 0. -1.
        -11    1    4    4    0    0  0.54024396911E+01  0.90403871637E+00 -0.13339329360E+02  0.14420171589E+02  0.51100000000E-03 0.  1.
        -12    1    4    4    0    0 -0.27811614235E+01 -0.68036637399E+01 -0.18343758876E+02  0.19761533059E+02  0.00000000000E+00 0.  1.
</event>
<event>
 8    1  0.6469014E-010  0.9118800E+02  0.7816164E-02  0.1184000E+00
        -11   -1    0    0    0    0  0.00000000000E+00  0.00000000000E+00  0.45593999997E+02  0.45594000000E+02  0.51100000000E-03 0. -1.
         11   -1    0    0    0    0 -0.00000000000E+00 -0.00000000000E+00 -0.45593999997E+02  0.45594000000E+02  0.51100000000E-03 0.  1.
         23    2    1    2    0    0  0.88817841970E-15  0.00000000000E+00  0.00000000000E+00  0.91188000000E+02  0.91188000000E+02 0.  0.
    9900012    2    3    3    0    0 -0.64012816991E+01  0.29268031036E+02 -0.31401101071E+02  0.47787271935E+02  0.20000004060E+02 0.  0.
         12    1    3    3    0    0  0.64012816991E+01 -0.29268031036E+02  0.31401101071E+02  0.43400728065E+02  0.00000000000E+00 0. -1.
         11    1    4    4    0    0 -0.38668817777E+01  0.28913328281E+01 -0.12738393143E+02  0.13622747166E+02  0.51100000000E-03 0. -1.
        -11    1    4    4    0    0  0.45643934140E+00  0.20096619767E+02 -0.18324281245E+02  0.27200399746E+02  0.51100000000E-03 0.  1.
        -12    1    4    4    0    0 -0.29908392628E+01  0.62800784410E+01 -0.33842668269E+00  0.69641250233E+01  0.00000000000E+00 0.  1.
</event>
<event>
 8    1  0.6469014E-010  0.9118800E+02  0.7816164E-02  0.1184000E+00
        -11   -1    0    0    0    0  0.00000000000E+00  0.00000000000E+00  0.45593999997E+02  0.45594000000E+02  0.51100000000E-03 0. -1.
         11   -1    0    0    0    0 -0.00000000000E+00 -0.00000000000E+00 -0.45593999997E+02  0.45594000000E+02  0.51100000000E-03 0.  1.
         23    2    1    2    0    0  0.00000000000E+00  0.26645352591E-14  0.00000000000E+00  0.91188000000E+02  0.91188000000E+02 0.  0.
    9900012    2    3    3    0    0 -0.24745401606E+02  0.24364950829E+01  0.35571768098E+02  0.47787284631E+02  0.20000061945E+02 0.  0.
        -12    1    3    3    0    0  0.24745401606E+02 -0.24364950829E+01 -0.35571768098E+02  0.43400715369E+02  0.00000000000E+00 0.  1.
         11    1    4    4    0    0 -0.96620006271E+01  0.59338652068E+01  0.18768813771E+02  0.21927913330E+02  0.51100000000E-03 0. -1.
        -11    1    4    4    0    0 -0.13925736045E+02 -0.69175113041E+01  0.15668926023E+02  0.22074721516E+02  0.51100000000E-03 0.  1.
        -12    1    4    4    0    0 -0.11576649342E+01  0.34201411802E+01  0.11340283044E+01  0.37846497840E+01  0.00000000000E+00 0.  1.
</event>
<event>
 8    1  0.6469014E-010  0.9118800E+02  0.7816164E-02  0.1184000E+00
        -11   -1    0    0    0    0  0.00000000000E+00  0.00000000000E+00  0.45593999997E+02  0.45594000000E+02  0.51100000000E-03 0. -1.
         11   -1    0    0    0    0 -0.00000000000E+00 -0.00000000000E+00 -0.45593999997E+02  0.45594000000E+02  0.51100000000E-03 0.  1.
         23    2    1    2    0    0  0.00000000000E+00  0.00000000000E+00  0.00000000000E+00  0.91188000000E+02  0.91188000000E+02 0.  0.
    9900012    2    3    3    0    0  0.25892382413E+02 -0.21373941078E+02  0.27502048035E+02  0.47787268781E+02  0.19999989678E+02 0.  0.
        -12    1    3    3    0    0 -0.25892382413E+02  0.21373941078E+02 -0.27502048035E+02  0.43400731219E+02  0.00000000000E+00 0.  1.
         11    1    4    4    0    0  0.40956471767E+01 -0.12917155404E+02  0.30866521528E+01  0.13898008897E+02  0.51100000000E-03 0.  1.
        -11    1    4    4    0    0  0.19521973895E+02 -0.77305976684E+01  0.20790199092E+02  0.29548299166E+02  0.51100000000E-03 0. -1.
        -12    1    4    4    0    0  0.22747613416E+01 -0.72618800583E+00  0.36251967911E+01  0.43409607180E+01  0.00000000000E+00 0.  1.
</event>
<event>
 8    1  0.6469014E-010  0.9118800E+02  0.7816164E-02  0.1184000E+00
        -11   -1    0    0    0    0  0.00000000000E+00  0.00000000000E+00  0.45593999997E+02  0.45594000000E+02  0.51100000000E-03 0. -1.
         11   -1    0    0    0    0 -0.00000000000E+00 -0.00000000000E+00 -0.45593999997E+02  0.45594000000E+02  0.51100000000E-03 0.  1.
         23    2    1    2    0    0  0.00000000000E+00  0.00000000000E+00  0.00000000000E+00  0.91188000000E+02  0.91188000000E+02 0.  0.
    9900012    2    3    3    0    0  0.24787923271E+02  0.33375447417E+02 -0.12460402072E+02  0.47787271318E+02  0.20000001245E+02 0.  0.
         12    1    3    3    0    0 -0.24787923271E+02 -0.33375447417E+02  0.12460402072E+02  0.43400728682E+02  0.00000000000E+00 0. -1.
         11    1    4    4    0    0  0.18889043271E+02  0.18675234521E+02 -0.28716110267E+01  0.26717157227E+02  0.51100000000E-03 0. -1.
        -11    1    4    4    0    0  0.26785841765E+01  0.14395081779E+02 -0.50335761844E+01  0.15483219370E+02  0.51100000000E-03 0.  1.
         12    1    4    4    0    0  0.32202958233E+01  0.30513111690E+00 -0.45552148608E+01  0.55868947204E+01  0.00000000000E+00 0. -1.
</event>
<event>
 8    1  0.6469014E-010  0.9118800E+02  0.7816164E-02  0.1184000E+00
        -11   -1    0    0    0    0  0.00000000000E+00  0.00000000000E+00  0.45593999997E+02  0.45594000000E+02  0.51100000000E-03 0. -1.
         11   -1    0    0    0    0 -0.00000000000E+00 -0.00000000000E+00 -0.45593999997E+02  0.45594000000E+02  0.51100000000E-03 0.  1.
         23    2    1    2    0    0 -0.88817841970E-15  0.00000000000E+00  0.00000000000E+00  0.91188000000E+02  0.91188000000E+02 0.  0.
    9900012    2    3    3    0    0 -0.51587016956E+01 -0.54970058928E+01 -0.42741022162E+02  0.47787259771E+02  0.19999948601E+02 0.  0.
         12    1    3    3    0    0  0.51587016956E+01  0.54970058928E+01  0.42741022162E+02  0.43400740229E+02  0.00000000000E+00 0. -1.
         11    1    4    4    0    0 -0.51056510926E+01 -0.39045259471E+01 -0.11223705072E+02  0.12933852935E+02  0.51100000000E-03 0. -1.
        -11    1    4    4    0    0 -0.13144198022E+01 -0.52152066953E+01 -0.31602419009E+01  0.62380453208E+01  0.51100000000E-03 0.  1.
        -12    1    4    4    0    0  0.12613691992E+01  0.36227267497E+01 -0.28357075189E+02  0.28615361515E+02  0.00000000000E+00 0.  1.
</event>
<event>
 8    1  0.6469014E-010  0.9118800E+02  0.7816164E-02  0.1184000E+00
        -11   -1    0    0    0    0  0.00000000000E+00  0.00000000000E+00  0.45593999997E+02  0.45594000000E+02  0.51100000000E-03 0. -1.
         11   -1    0    0    0    0 -0.00000000000E+00 -0.00000000000E+00 -0.45593999997E+02  0.45594000000E+02  0.51100000000E-03 0.  1.
         23    2    1    2    0    0  0.00000000000E+00  0.11102230246E-14  0.71054273576E-14  0.91188000000E+02  0.91188000000E+02 0.  0.
    9900012    2    3    3    0    0  0.20872009989E+02  0.13935976801E+01  0.38026837740E+02  0.47787270698E+02  0.19999998420E+02 0.  0.
        -12    1    3    3    0    0 -0.20872009989E+02 -0.13935976801E+01 -0.38026837740E+02  0.43400729302E+02  0.00000000000E+00 0.  1.
         11    1    4    4    0    0  0.25757594506E+01  0.73333108556E+01  0.19549627164E+02  0.21038058545E+02  0.51100000000E-03 0. -1.
        -11    1    4    4    0    0  0.80004674850E+01 -0.34759055281E+01  0.75773918634E+01  0.11554491202E+02  0.51100000000E-03 0.  1.
         12    1    4    4    0    0  0.10295783054E+02 -0.24638076473E+01  0.10899818712E+02  0.15194720951E+02  0.00000000000E+00 0. -1.
</event>
<event>
 8    1  0.6469014E-010  0.9118800E+02  0.7816164E-02  0.1184000E+00
        -11   -1    0    0    0    0  0.00000000000E+00  0.00000000000E+00  0.45593999997E+02  0.45594000000E+02  0.51100000000E-03 0. -1.
         11   -1    0    0    0    0 -0.00000000000E+00 -0.00000000000E+00 -0.45593999997E+02  0.45594000000E+02  0.51100000000E-03 0.  1.
         23    2    1    2    0    0  0.00000000000E+00  0.17763568394E-14  0.00000000000E+00  0.91188000000E+02  0.91188000000E+02 0.  0.
    9900012    2    3    3    0    0 -0.34895585463E+02 -0.15371922680E+02  0.20727409072E+02  0.47787269839E+02  0.19999994503E+02 0.  0.
        -12    1    3    3    0    0  0.34895585463E+02  0.15371922680E+02 -0.20727409072E+02  0.43400730161E+02  0.00000000000E+00 0.  1.
         11    1    4    4    0    0 -0.15988569077E+02 -0.15868865326E+02  0.10185867932E+02  0.24722603698E+02  0.51100000000E-03 0. -1.
        -11    1    4    4    0    0 -0.73628872549E+01  0.14521327324E+01  0.84364769488E+01  0.11291365806E+02  0.51100000000E-03 0.  1.
         12    1    4    4    0    0 -0.11544129132E+02 -0.95519008657E+00  0.21050641914E+01  0.11773300334E+02  0.00000000000E+00 0. -1.
</event>
<event>
 8    1  0.6469014E-010  0.9118800E+02  0.7816164E-02  0.1184000E+00
        -11   -1    0    0    0    0  0.00000000000E+00  0.00000000000E+00  0.45593999997E+02  0.45594000000E+02  0.51100000000E-03 0. -1.
         11   -1    0    0    0    0 -0.00000000000E+00 -0.00000000000E+00 -0.45593999997E+02  0.45594000000E+02  0.51100000000E-03 0.  1.
         23    2    1    2    0    0 -0.35527136788E-14  0.17763568394E-14  0.00000000000E+00  0.91188000000E+02  0.91188000000E+02 0.  0.
    9900012    2    3    3    0    0  0.21020143258E+02  0.10245270950E+02  0.36562427584E+02  0.47787272929E+02  0.20000008593E+02 0.  0.
        -12    1    3    3    0    0 -0.21020143258E+02 -0.10245270950E+02 -0.36562427584E+02  0.43400727071E+02  0.00000000000E+00 0.  1.
         11    1    4    4    0    0  0.20152562470E+02  0.10949690545E+02  0.28633129625E+02  0.36686204621E+02  0.51100000000E-03 0. -1.
        -11    1    4    4    0    0 -0.94938346458E+00 -0.39410355167E+01  0.39691942883E+01  0.56734110961E+01  0.51100000000E-03 0.  1.
        -12    1    4    4    0    0  0.18169642521E+01  0.32366159221E+01  0.39601036712E+01  0.54276572116E+01  0.00000000000E+00 0.  1.
</event>
<event>
 8    1  0.6469014E-010  0.9118800E+02  0.7816164E-02  0.1184000E+00
        -11   -1    0    0    0    0  0.00000000000E+00  0.00000000000E+00  0.45593999997E+02  0.45594000000E+02  0.51100000000E-03 0. -1.
         11   -1    0    0    0    0 -0.00000000000E+00 -0.00000000000E+00 -0.45593999997E+02  0.45594000000E+02  0.51100000000E-03 0.  1.
         23    2    1    2    0    0 -0.35527136788E-14 -0.35527136788E-14 -0.17763568394E-14  0.91188000000E+02  0.91188000000E+02 0.  0.
    9900012    2    3    3    0    0  0.30470434049E+02  0.29669412311E+02  0.86545755165E+01  0.47787273562E+02  0.20000011478E+02 0.  0.
        -12    1    3    3    0    0 -0.30470434049E+02 -0.29669412311E+02 -0.86545755165E+01  0.43400726438E+02  0.00000000000E+00 0.  1.
         11    1    4    4    0    0  0.10531528500E+02  0.14483795457E+02 -0.39199426822E+01  0.18331922274E+02  0.51100000000E-03 0. -1.
        -11    1    4    4    0    0  0.31447943951E+01  0.58776207604E+01  0.65145408680E+01  0.93206974295E+01  0.51100000000E-03 0.  1.
         12    1    4    4    0    0  0.16794111154E+02  0.93079960931E+01  0.60599773307E+01  0.20134653858E+02  0.00000000000E+00 0. -1.
</event>
<event>
 8    1  0.6469014E-010  0.9118800E+02  0.7816164E-02  0.1184000E+00
        -11   -1    0    0    0    0  0.00000000000E+00  0.00000000000E+00  0.45593999997E+02  0.45594000000E+02  0.51100000000E-03 0. -1.
         11   -1    0    0    0    0 -0.00000000000E+00 -0.00000000000E+00 -0.45593999997E+02  0.45594000000E+02  0.51100000000E-03 0.  1.
         23    2    1    2    0    0  0.17763568394E-14 -0.35527136788E-14  0.00000000000E+00  0.91188000000E+02  0.91188000000E+02 0.  0.
    9900012    2    3    3    0    0  0.13121188750E+02 -0.23799702078E+02  0.33838327687E+02  0.47787264593E+02  0.19999970587E+02 0.  0.
        -12    1    3    3    0    0 -0.13121188750E+02  0.23799702078E+02 -0.33838327687E+02  0.43400735407E+02  0.00000000000E+00 0.  1.
         11    1    4    4    0    0 -0.25776895174E+01 -0.85856582928E+01  0.12356525371E+02  0.15265704408E+02  0.51100000000E-03 0. -1.
        -11    1    4    4    0    0  0.13573846910E+02 -0.70641303409E+01  0.99920221332E+01  0.18275441554E+02  0.51100000000E-03 0.  1.
        -12    1    4    4    0    0  0.21250313572E+01 -0.81499134440E+01  0.11489780183E+02  0.14246118631E+02  0.00000000000E+00 0.  1.
</event>
<event>
 8    1  0.6469014E-010  0.9118800E+02  0.7816164E-02  0.1184000E+00
        -11   -1    0    0    0    0  0.00000000000E+00  0.00000000000E+00  0.45593999997E+02  0.45594000000E+02  0.51100000000E-03 0. -1.
         11   -1    0    0    0    0 -0.00000000000E+00 -0.00000000000E+00 -0.45593999997E+02  0.45594000000E+02  0.51100000000E-03 0.  1.
         23    2    1    2    0    0  0.00000000000E+00  0.35527136788E-14 -0.71054273576E-14  0.91188000000E+02  0.91188000000E+02 0.  0.
    9900012    2    3    3    0    0  0.20690364639E+02  0.12566975445E+02 -0.36022259648E+02  0.47787271310E+02  0.20000001209E+02 0.  0.
         12    1    3    3    0    0 -0.20690364639E+02 -0.12566975445E+02  0.36022259648E+02  0.43400728690E+02  0.00000000000E+00 0. -1.
         11    1    4    4    0    0  0.96927933785E+01 -0.40179184597E+00 -0.23885679874E+01  0.99908426801E+01  0.51100000000E-03 0. -1.
        -11    1    4    4    0    0  0.71627439208E+01  0.70206549001E+01 -0.22014669309E+02  0.24191737448E+02  0.51100000000E-03 0.  1.
         12    1    4    4    0    0  0.38348273392E+01  0.59481123910E+01 -0.11619022352E+02  0.13604691182E+02  0.00000000000E+00 0. -1.
</event>
<event>
 8    1  0.6469014E-010  0.9118800E+02  0.7816164E-02  0.1184000E+00
        -11   -1    0    0    0    0  0.00000000000E+00  0.00000000000E+00  0.45593999997E+02  0.45594000000E+02  0.51100000000E-03 0. -1.
         11   -1    0    0    0    0 -0.00000000000E+00 -0.00000000000E+00 -0.45593999997E+02  0.45594000000E+02  0.51100000000E-03 0.  1.
         23    2    1    2    0    0  0.00000000000E+00  0.00000000000E+00  0.35527136788E-14  0.91188000000E+02  0.91188000000E+02 0.  0.
    9900012    2    3    3    0    0 -0.24151349876E+02 -0.17657015689E+02  0.31441469661E+02  0.47787263620E+02  0.19999966148E+02 0.  0.
        -12    1    3    3    0    0  0.24151349876E+02  0.17657015689E+02 -0.31441469661E+02  0.43400736380E+02  0.00000000000E+00 0.  1.
         11    1    4    4    0    0 -0.16771205219E+02 -0.93903670716E+01  0.94461517899E+01  0.21416864900E+02  0.51100000000E-03 0. -1.
        -11    1    4    4    0    0 -0.31563901220E+00 -0.26158208042E+01  0.51855300869E-01  0.26353056177E+01  0.51100000000E-03 0.  1.
         12    1    4    4    0    0 -0.70645056451E+01 -0.56508278133E+01  0.21943462570E+02  0.23735093102E+02  0.00000000000E+00 0. -1.
</event>
<event>
 8    1  0.6469014E-010  0.9118800E+02  0.7816164E-02  0.1184000E+00
        -11   -1    0    0    0    0  0.00000000000E+00  0.00000000000E+00  0.45593999997E+02  0.45594000000E+02  0.51100000000E-03 0.  1.
         11   -1    0    0    0    0 -0.00000000000E+00 -0.00000000000E+00 -0.45593999997E+02  0.45594000000E+02  0.51100000000E-03 0. -1.
         23    2    1    2    0    0  0.00000000000E+00  0.00000000000E+00  0.00000000000E+00  0.91188000000E+02  0.91188000000E+02 0.  0.
    9900012    2    3    3    0    0  0.16321069859E+02  0.39357367523E+02  0.82611015801E+01  0.47787245410E+02  0.19999883121E+02 0.  0.
         12    1    3    3    0    0 -0.16321069859E+02 -0.39357367523E+02 -0.82611015801E+01  0.43400754590E+02  0.00000000000E+00 0. -1.
         11    1    4    4    0    0  0.81911054374E+01  0.60459239643E+01 -0.11853003131E+01  0.10249504474E+02  0.51100000000E-03 0. -1.
        -11    1    4    4    0    0  0.11084777103E+02  0.29314216043E+02  0.77330786900E+01  0.32279963630E+02  0.51100000000E-03 0.  1.
        -12    1    4    4    0    0 -0.29548126821E+01  0.39972275156E+01  0.17133232032E+01  0.52577773057E+01  0.00000000000E+00 0.  1.
</event>
<event>
 8    1  0.6469014E-010  0.9118800E+02  0.7816164E-02  0.1184000E+00
        -11   -1    0    0    0    0  0.00000000000E+00  0.00000000000E+00  0.45593999997E+02  0.45594000000E+02  0.51100000000E-03 0. -1.
         11   -1    0    0    0    0 -0.00000000000E+00 -0.00000000000E+00 -0.45593999997E+02  0.45594000000E+02  0.51100000000E-03 0.  1.
         23    2    1    2    0    0  0.88817841970E-15  0.00000000000E+00  0.00000000000E+00  0.91188000000E+02  0.91188000000E+02 0.  0.
    9900012    2    3    3    0    0 -0.42456414938E+01 -0.33405328262E+02  0.27380324844E+02  0.47787267096E+02  0.19999981999E+02 0.  0.
        -12    1    3    3    0    0  0.42456414938E+01  0.33405328262E+02 -0.27380324844E+02  0.43400732904E+02  0.00000000000E+00 0.  1.
         11    1    4    4    0    0  0.25513867772E+01 -0.20352305999E+02  0.11745397560E+02  0.23636418893E+02  0.51100000000E-03 0. -1.
        -11    1    4    4    0    0 -0.80788407774E+01 -0.97356581566E+01  0.62420293130E+01  0.14107219367E+02  0.51100000000E-03 0.  1.
        -12    1    4    4    0    0  0.12818125065E+01 -0.33173641061E+01  0.93928979716E+01  0.10043628837E+02  0.00000000000E+00 0.  1.
</event>
<event>
 8    1  0.6469014E-010  0.9118800E+02  0.7816164E-02  0.1184000E+00
        -11   -1    0    0    0    0  0.00000000000E+00  0.00000000000E+00  0.45593999997E+02  0.45594000000E+02  0.51100000000E-03 0. -1.
         11   -1    0    0    0    0 -0.00000000000E+00 -0.00000000000E+00 -0.45593999997E+02  0.45594000000E+02  0.51100000000E-03 0.  1.
         23    2    1    2    0    0  0.00000000000E+00 -0.17763568394E-14 -0.35527136788E-14  0.91188000000E+02  0.91188000000E+02 0.  0.
    9900012    2    3    3    0    0  0.32527738814E+02 -0.10360532744E+02 -0.26799793656E+02  0.47787269924E+02  0.19999994893E+02 0.  0.
         12    1    3    3    0    0 -0.32527738814E+02  0.10360532744E+02  0.26799793656E+02  0.43400730076E+02  0.00000000000E+00 0. -1.
         11    1    4    4    0    0  0.20963279442E+02 -0.11608119365E+02 -0.11025794577E+02  0.26377559903E+02  0.51100000000E-03 0.  1.
        -11    1    4    4    0    0  0.38239737522E+00  0.19189598518E+01 -0.67411390994E+01  0.70193725705E+01  0.51100000000E-03 0. -1.
         12    1    4    4    0    0  0.11182061997E+02 -0.67137323148E+00 -0.90328599802E+01  0.14390337451E+02  0.00000000000E+00 0. -1.
</event>
<event>
 8    1  0.6469014E-010  0.9118800E+02  0.7816164E-02  0.1184000E+00
        -11   -1    0    0    0    0  0.00000000000E+00  0.00000000000E+00  0.45593999997E+02  0.45594000000E+02  0.51100000000E-03 0. -1.
         11   -1    0    0    0    0 -0.00000000000E+00 -0.00000000000E+00 -0.45593999997E+02  0.45594000000E+02  0.51100000000E-03 0.  1.
         23    2    1    2    0    0  0.00000000000E+00  0.00000000000E+00  0.00000000000E+00  0.91188000000E+02  0.91188000000E+02 0.  0.
    9900012    2    3    3    0    0 -0.33066474046E+02 -0.81465094060E+01 -0.26904762360E+02  0.47787267760E+02  0.19999985025E+02 0.  0.
         12    1    3    3    0    0  0.33066474046E+02  0.81465094060E+01  0.26904762360E+02  0.43400732240E+02  0.00000000000E+00 0. -1.
         11    1    4    4    0    0 -0.93908896105E+01 -0.89628362692E+01 -0.14204856680E+02  0.19243159699E+02  0.51100000000E-03 0. -1.
        -11    1    4    4    0    0 -0.50680774287E+01 -0.32010324799E+01 -0.56705388590E+01  0.82514864705E+01  0.51100000000E-03 0.  1.
         12    1    4    4    0    0 -0.18607507007E+02  0.40173593431E+01 -0.70293668208E+01  0.20292621590E+02  0.00000000000E+00 0. -1.
</event>
<event>
 8    1  0.6469014E-010  0.9118800E+02  0.7816164E-02  0.1184000E+00
        -11   -1    0    0    0    0  0.00000000000E+00  0.00000000000E+00  0.45593999997E+02  0.45594000000E+02  0.51100000000E-03 0. -1.
         11   -1    0    0    0    0 -0.00000000000E+00 -0.00000000000E+00 -0.45593999997E+02  0.45594000000E+02  0.51100000000E-03 0.  1.
         23    2    1    2    0    0 -0.17763568394E-14  0.41633363423E-16 -0.71054273576E-14  0.91188000000E+02  0.91188000000E+02 0.  0.
    9900012    2    3    3    0    0  0.15343470759E+02  0.75552482259E-01  0.40597992334E+02  0.47787253639E+02  0.19999920644E+02 0.  0.
        -12    1    3    3    0    0 -0.15343470759E+02 -0.75552482259E-01 -0.40597992334E+02  0.43400746361E+02  0.00000000000E+00 0.  1.
         11    1    4    4    0    0  0.14350511308E+02  0.47706374322E+01  0.27589784437E+02  0.31462554916E+02  0.51100000000E-03 0. -1.
        -11    1    4    4    0    0 -0.31309053438E+01 -0.85603912878E+00  0.16394002386E+01  0.36363449596E+01  0.51100000000E-03 0.  1.
         12    1    4    4    0    0  0.41238647949E+01 -0.38390458211E+01  0.11368807658E+02  0.12688353764E+02  0.00000000000E+00 0. -1.
</event>
<event>
 8    1  0.6469014E-010  0.9118800E+02  0.7816164E-02  0.1184000E+00
        -11   -1    0    0    0    0  0.00000000000E+00  0.00000000000E+00  0.45593999997E+02  0.45594000000E+02  0.51100000000E-03 0. -1.
         11   -1    0    0    0    0 -0.00000000000E+00 -0.00000000000E+00 -0.45593999997E+02  0.45594000000E+02  0.51100000000E-03 0.  1.
         23    2    1    2    0    0  0.00000000000E+00  0.00000000000E+00  0.00000000000E+00  0.91188000000E+02  0.91188000000E+02 0.  0.
    9900012    2    3    3    0    0  0.12740024434E+02 -0.34057500279E+02 -0.23693917460E+02  0.47787271061E+02  0.20000000075E+02 0.  0.
         12    1    3    3    0    0 -0.12740024434E+02  0.34057500279E+02  0.23693917460E+02  0.43400728939E+02  0.00000000000E+00 0. -1.
         11    1    4    4    0    0  0.30702778001E+01 -0.57240986035E+01 -0.12137938396E+02  0.13766679315E+02  0.51100000000E-03 0. -1.
        -11    1    4    4    0    0  0.81900217095E+01 -0.19586438201E+02 -0.25555382558E+01  0.21383072582E+02  0.51100000000E-03 0.  1.
        -12    1    4    4    0    0  0.14797249245E+01 -0.87469634742E+01 -0.90004408077E+01  0.12637519163E+02  0.00000000000E+00 0.  1.
</event>
<event>
 8    1  0.6469014E-010  0.9118800E+02  0.7816164E-02  0.1184000E+00
        -11   -1    0    0    0    0  0.00000000000E+00  0.00000000000E+00  0.45593999997E+02  0.45594000000E+02  0.51100000000E-03 0. -1.
         11   -1    0    0    0    0 -0.00000000000E+00 -0.00000000000E+00 -0.45593999997E+02  0.45594000000E+02  0.51100000000E-03 0.  1.
         23    2    1    2    0    0  0.71054273576E-14  0.00000000000E+00  0.00000000000E+00  0.91188000000E+02  0.91188000000E+02 0.  0.
    9900012    2    3    3    0    0  0.32439549422E+02 -0.16796978499E+02  0.23434175276E+02  0.47787269312E+02  0.19999992101E+02 0.  0.
        -12    1    3    3    0    0 -0.32439549422E+02  0.16796978499E+02 -0.23434175276E+02  0.43400730688E+02  0.00000000000E+00 0.  1.
         11    1    4    4    0    0  0.11888213949E+02 -0.29735730497E+01 -0.15129935722E+01  0.12347506525E+02  0.51100000000E-03 0. -1.
        -11    1    4    4    0    0  0.17446030077E+02 -0.12700447279E+02  0.19581008564E+02  0.29138998321E+02  0.51100000000E-03 0.  1.
         12    1    4    4    0    0  0.31053053960E+01 -0.11229581706E+01  0.53661602840E+01  0.63007644654E+01  0.00000000000E+00 0. -1.
</event>
<event>
 8    1  0.6469014E-010  0.9118800E+02  0.7816164E-02  0.1184000E+00
        -11   -1    0    0    0    0  0.00000000000E+00  0.00000000000E+00  0.45593999997E+02  0.45594000000E+02  0.51100000000E-03 0. -1.
         11   -1    0    0    0    0 -0.00000000000E+00 -0.00000000000E+00 -0.45593999997E+02  0.45594000000E+02  0.51100000000E-03 0.  1.
         23    2    1    2    0    0  0.00000000000E+00  0.71054273576E-14 -0.71054273576E-14  0.91188000000E+02  0.91188000000E+02 0.  0.
    9900012    2    3    3    0    0 -0.13334150485E+02 -0.18046920952E+02  0.37150134225E+02  0.47787269615E+02  0.19999993482E+02 0.  0.
        -12    1    3    3    0    0  0.13334150485E+02  0.18046920952E+02 -0.37150134225E+02  0.43400730385E+02  0.00000000000E+00 0.  1.
         11    1    4    4    0    0 -0.42539601887E+01 -0.25456891298E+00  0.14894397262E+02  0.15492064184E+02  0.51100000000E-03 0. -1.
        -11    1    4    4    0    0 -0.81284308879E+01 -0.11941155088E+02  0.72531532038E+01  0.16163873459E+02  0.51100000000E-03 0.  1.
         12    1    4    4    0    0 -0.95175940860E+00 -0.58511969509E+01  0.15002583759E+02  0.16131331972E+02  0.00000000000E+00 0. -1.
</event>
<event>
 8    1  0.6469014E-010  0.9118800E+02  0.7816164E-02  0.1184000E+00
        -11   -1    0    0    0    0  0.00000000000E+00  0.00000000000E+00  0.45593999997E+02  0.45594000000E+02  0.51100000000E-03 0. -1.
         11   -1    0    0    0    0 -0.00000000000E+00 -0.00000000000E+00 -0.45593999997E+02  0.45594000000E+02  0.51100000000E-03 0.  1.
         23    2    1    2    0    0 -0.71054273576E-14  0.17763568394E-14  0.00000000000E+00  0.91188000000E+02  0.91188000000E+02 0.  0.
    9900012    2    3    3    0    0  0.40354641554E+02 -0.11141714351E+02  0.11445089370E+02  0.47787251570E+02  0.19999911207E+02 0.  0.
         12    1    3    3    0    0 -0.40354641554E+02  0.11141714351E+02 -0.11445089370E+02  0.43400748430E+02  0.00000000000E+00 0. -1.
         11    1    4    4    0    0  0.16441627261E+02  0.28795595463E+01  0.10624227309E+02  0.19786186503E+02  0.51100000000E-03 0. -1.
        -11    1    4    4    0    0  0.20929876767E+02 -0.10768774729E+02  0.12222650442E+01  0.23569475657E+02  0.51100000000E-03 0.  1.
         12    1    4    4    0    0  0.29831375247E+01 -0.32524991691E+01 -0.40140298253E+00  0.44315894091E+01  0.00000000000E+00 0. -1.
</event>
<event>
 8    1  0.6469014E-010  0.9118800E+02  0.7816164E-02  0.1184000E+00
        -11   -1    0    0    0    0  0.00000000000E+00  0.00000000000E+00  0.45593999997E+02  0.45594000000E+02  0.51100000000E-03 0.  1.
         11   -1    0    0    0    0 -0.00000000000E+00 -0.00000000000E+00 -0.45593999997E+02  0.45594000000E+02  0.51100000000E-03 0. -1.
         23    2    1    2    0    0 -0.35527136788E-14  0.00000000000E+00  0.00000000000E+00  0.91188000000E+02  0.91188000000E+02 0.  0.
    9900012    2    3    3    0    0  0.23620992655E+02 -0.17009598214E+02 -0.32192322648E+02  0.47787270019E+02  0.19999995324E+02 0.  0.
         12    1    3    3    0    0 -0.23620992655E+02  0.17009598214E+02  0.32192322648E+02  0.43400729981E+02  0.00000000000E+00 0. -1.
         11    1    4    4    0    0  0.85501188964E+01 -0.11550440511E+02 -0.17981103743E+02  0.23018195003E+02  0.51100000000E-03 0. -1.
        -11    1    4    4    0    0  0.17287317412E+02 -0.44504398759E+01 -0.12560393488E+02  0.21827075920E+02  0.51100000000E-03 0.  1.
        -12    1    4    4    0    0 -0.22164436528E+01 -0.10087178274E+01 -0.16508254171E+01  0.29419990957E+01  0.00000000000E+00 0.  1.
</event>
<event>
 8    1  0.6469014E-010  0.9118800E+02  0.7816164E-02  0.1184000E+00
        -11   -1    0    0    0    0  0.00000000000E+00  0.00000000000E+00  0.45593999997E+02  0.45594000000E+02  0.51100000000E-03 0. -1.
         11   -1    0    0    0    0 -0.00000000000E+00 -0.00000000000E+00 -0.45593999997E+02  0.45594000000E+02  0.51100000000E-03 0.  1.
         23    2    1    2    0    0  0.00000000000E+00  0.35527136788E-14 -0.35527136788E-14  0.91188000000E+02  0.91188000000E+02 0.  0.
    9900012    2    3    3    0    0 -0.32911953096E+02 -0.16007128387E+02  0.23328068262E+02  0.47787267464E+02  0.19999983676E+02 0.  0.
        -12    1    3    3    0    0  0.32911953096E+02  0.16007128387E+02 -0.23328068262E+02  0.43400732536E+02  0.00000000000E+00 0.  1.
         11    1    4    4    0    0 -0.12696879973E+02 -0.71310640487E+01  0.32001529876E+01  0.14909856301E+02  0.51100000000E-03 0. -1.
        -11    1    4    4    0    0 -0.11645073522E+02 -0.52926046351E+01  0.26186062293E+01  0.13056664965E+02  0.51100000000E-03 0.  1.
         12    1    4    4    0    0 -0.85699996009E+01 -0.35834597033E+01  0.17509309046E+02  0.19820746198E+02  0.00000000000E+00 0. -1.
</event>
<event>
 8    1  0.6469014E-010  0.9118800E+02  0.7816164E-02  0.1184000E+00
        -11   -1    0    0    0    0  0.00000000000E+00  0.00000000000E+00  0.45593999997E+02  0.45594000000E+02  0.51100000000E-03 0. -1.
         11   -1    0    0    0    0 -0.00000000000E+00 -0.00000000000E+00 -0.45593999997E+02  0.45594000000E+02  0.51100000000E-03 0.  1.
         23    2    1    2    0    0  0.88817841970E-15  0.00000000000E+00  0.00000000000E+00  0.91188000000E+02  0.91188000000E+02 0.  0.
    9900012    2    3    3    0    0  0.65608036664E+01 -0.23670862052E+02  0.35780853872E+02  0.47787270065E+02  0.19999995537E+02 0.  0.
        -12    1    3    3    0    0 -0.65608036664E+01  0.23670862052E+02 -0.35780853872E+02  0.43400729935E+02  0.00000000000E+00 0.  1.
         11    1    4    4    0    0  0.11153312932E+02 -0.17964062744E+02  0.25592947553E+02  0.33197935242E+02  0.51100000000E-03 0. -1.
        -11    1    4    4    0    0 -0.14112895562E+01 -0.23559629427E+01 -0.63731372887E+00  0.28193028658E+01  0.51100000000E-03 0.  1.
         12    1    4    4    0    0 -0.31812197099E+01 -0.33508363650E+01  0.10825220048E+02  0.11770031957E+02  0.00000000000E+00 0. -1.
</event>
<event>
 8    1  0.6469014E-010  0.9118800E+02  0.7816164E-02  0.1184000E+00
        -11   -1    0    0    0    0  0.00000000000E+00  0.00000000000E+00  0.45593999997E+02  0.45594000000E+02  0.51100000000E-03 0. -1.
         11   -1    0    0    0    0 -0.00000000000E+00 -0.00000000000E+00 -0.45593999997E+02  0.45594000000E+02  0.51100000000E-03 0.  1.
         23    2    1    2    0    0  0.00000000000E+00  0.35527136788E-14 -0.35527136788E-14  0.91188000000E+02  0.91188000000E+02 0.  0.
    9900012    2    3    3    0    0 -0.29512701854E+02 -0.18868351317E+02  0.25624376753E+02  0.47787274936E+02  0.20000017742E+02 0.  0.
        -12    1    3    3    0    0  0.29512701854E+02  0.18868351317E+02 -0.25624376753E+02  0.43400725064E+02  0.00000000000E+00 0.  1.
         11    1    4    4    0    0 -0.10914614579E+02 -0.14212233022E+02  0.96737957219E+01  0.20364152396E+02  0.51100000000E-03 0. -1.
        -11    1    4    4    0    0 -0.16754258789E+02 -0.44055958363E+01  0.17772538915E+02  0.24818896067E+02  0.51100000000E-03 0.  1.
        -12    1    4    4    0    0 -0.18438284858E+01 -0.25052245827E+00 -0.18219578842E+01  0.26042264723E+01  0.00000000000E+00 0.  1.
</event>
<event>
 8    1  0.6469014E-010  0.9118800E+02  0.7816164E-02  0.1184000E+00
        -11   -1    0    0    0    0  0.00000000000E+00  0.00000000000E+00  0.45593999997E+02  0.45594000000E+02  0.51100000000E-03 0. -1.
         11   -1    0    0    0    0 -0.00000000000E+00 -0.00000000000E+00 -0.45593999997E+02  0.45594000000E+02  0.51100000000E-03 0.  1.
         23    2    1    2    0    0  0.00000000000E+00  0.00000000000E+00  0.00000000000E+00  0.91188000000E+02  0.91188000000E+02 0.  0.
    9900012    2    3    3    0    0 -0.29706687086E+02 -0.89055484395E+01  0.30361605124E+02  0.47787272860E+02  0.20000008276E+02 0.  0.
        -12    1    3    3    0    0  0.29706687086E+02  0.89055484395E+01 -0.30361605124E+02  0.43400727140E+02  0.00000000000E+00 0.  1.
         11    1    4    4    0    0 -0.22613135435E+02 -0.18914908518E+01  0.22689957693E+02  0.32089964354E+02  0.51100000000E-03 0. -1.
        -11    1    4    4    0    0 -0.11467522636E+01 -0.68700926634E+01  0.14985128767E+01  0.71245178827E+01  0.51100000000E-03 0.  1.
        -12    1    4    4    0    0 -0.59467993873E+01 -0.14396492433E+00  0.61731345536E+01  0.85727906232E+01  0.00000000000E+00 0.  1.
</event>
<event>
 8    1  0.6469014E-010  0.9118800E+02  0.7816164E-02  0.1184000E+00
        -11   -1    0    0    0    0  0.00000000000E+00  0.00000000000E+00  0.45593999997E+02  0.45594000000E+02  0.51100000000E-03 0. -1.
         11   -1    0    0    0    0 -0.00000000000E+00 -0.00000000000E+00 -0.45593999997E+02  0.45594000000E+02  0.51100000000E-03 0.  1.
         23    2    1    2    0    0 -0.35527136788E-14  0.00000000000E+00  0.35527136788E-14  0.91188000000E+02  0.91188000000E+02 0.  0.
    9900012    2    3    3    0    0 -0.19808560430E+02  0.32240890473E+02  0.21254868834E+02  0.47787268049E+02  0.19999986341E+02 0.  0.
        -12    1    3    3    0    0  0.19808560430E+02 -0.32240890473E+02 -0.21254868834E+02  0.43400731951E+02  0.00000000000E+00 0.  1.
         11    1    4    4    0    0  0.57700652149E+00  0.19945550690E+01 -0.24645747219E+01  0.32226255243E+01  0.51100000000E-03 0.  1.
        -11    1    4    4    0    0  0.56750761910E+00 -0.32291819610E+00  0.57868031142E+00  0.87247476929E+00  0.51100000000E-03 0. -1.
         12    1    4    4    0    0 -0.20953074570E+02  0.30569253600E+02  0.23140763244E+02  0.43692167755E+02  0.00000000000E+00 0. -1.
</event>
<event>
 8    1  0.6469014E-010  0.9118800E+02  0.7816164E-02  0.1184000E+00
        -11   -1    0    0    0    0  0.00000000000E+00  0.00000000000E+00  0.45593999997E+02  0.45594000000E+02  0.51100000000E-03 0. -1.
         11   -1    0    0    0    0 -0.00000000000E+00 -0.00000000000E+00 -0.45593999997E+02  0.45594000000E+02  0.51100000000E-03 0.  1.
         23    2    1    2    0    0 -0.71054273576E-14 -0.13322676296E-14  0.17763568394E-14  0.91188000000E+02  0.91188000000E+02 0.  0.
    9900012    2    3    3    0    0  0.40993986693E+02  0.31908300522E+01 -0.13890085985E+02  0.47787276157E+02  0.20000023311E+02 0.  0.
         12    1    3    3    0    0 -0.40993986693E+02 -0.31908300522E+01  0.13890085985E+02  0.43400723843E+02  0.00000000000E+00 0. -1.
         11    1    4    4    0    0  0.10141629236E+02 -0.32823496663E+01  0.33266038892E+01  0.11166591091E+02  0.51100000000E-03 0. -1.
        -11    1    4    4    0    0  0.14245506975E+02  0.49841404791E+01 -0.48184181632E+01  0.15842767408E+02  0.51100000000E-03 0.  1.
         12    1    4    4    0    0  0.16606850482E+02  0.14890392395E+01 -0.12398271711E+02  0.20777917658E+02  0.00000000000E+00 0. -1.
</event>
<event>
 8    1  0.6469014E-010  0.9118800E+02  0.7816164E-02  0.1184000E+00
        -11   -1    0    0    0    0  0.00000000000E+00  0.00000000000E+00  0.45593999997E+02  0.45594000000E+02  0.51100000000E-03 0. -1.
         11   -1    0    0    0    0 -0.00000000000E+00 -0.00000000000E+00 -0.45593999997E+02  0.45594000000E+02  0.51100000000E-03 0.  1.
         23    2    1    2    0    0  0.35527136788E-14  0.00000000000E+00  0.00000000000E+00  0.91188000000E+02  0.91188000000E+02 0.  0.
    9900012    2    3    3    0    0  0.17258931456E+02  0.11252728572E+02  0.38198539627E+02  0.47787273681E+02  0.20000012023E+02 0.  0.
        -12    1    3    3    0    0 -0.17258931456E+02 -0.11252728572E+02 -0.38198539627E+02  0.43400726319E+02  0.00000000000E+00 0.  1.
         11    1    4    4    0    0  0.11756674354E+02  0.12194768616E+01  0.27684157828E+02  0.30101812413E+02  0.51100000000E-03 0. -1.
        -11    1    4    4    0    0 -0.14099937345E+01  0.59190297204E+01  0.35435852154E+01  0.70413061006E+01  0.51100000000E-03 0.  1.
        -12    1    4    4    0    0  0.69122508368E+01  0.41142219902E+01  0.69707965842E+01  0.10644155168E+02  0.00000000000E+00 0.  1.
</event>
<event>
 8    1  0.6469014E-010  0.9118800E+02  0.7816164E-02  0.1184000E+00
        -11   -1    0    0    0    0  0.00000000000E+00  0.00000000000E+00  0.45593999997E+02  0.45594000000E+02  0.51100000000E-03 0. -1.
         11   -1    0    0    0    0 -0.00000000000E+00 -0.00000000000E+00 -0.45593999997E+02  0.45594000000E+02  0.51100000000E-03 0.  1.
         23    2    1    2    0    0  0.00000000000E+00 -0.35527136788E-14  0.00000000000E+00  0.91188000000E+02  0.91188000000E+02 0.  0.
    9900012    2    3    3    0    0  0.24012039646E+02 -0.20963250151E+02  0.29454832583E+02  0.47787273423E+02  0.20000010847E+02 0.  0.
        -12    1    3    3    0    0 -0.24012039646E+02  0.20963250151E+02 -0.29454832583E+02  0.43400726577E+02  0.00000000000E+00 0.  1.
         11    1    4    4    0    0  0.13537995961E+02 -0.14525660894E+02  0.24866874756E+02  0.31821904711E+02  0.51100000000E-03 0. -1.
        -11    1    4    4    0    0  0.32713097251E+01 -0.54107078462E+00 -0.25927094080E+01  0.42090815206E+01  0.51100000000E-03 0.  1.
        -12    1    4    4    0    0  0.72027339596E+01 -0.58965184726E+01  0.71806672350E+01  0.11756287192E+02  0.00000000000E+00 0.  1.
</event>
<event>
 8    1  0.6469014E-010  0.9118800E+02  0.7816164E-02  0.1184000E+00
        -11   -1    0    0    0    0  0.00000000000E+00  0.00000000000E+00  0.45593999997E+02  0.45594000000E+02  0.51100000000E-03 0. -1.
         11   -1    0    0    0    0 -0.00000000000E+00 -0.00000000000E+00 -0.45593999997E+02  0.45594000000E+02  0.51100000000E-03 0.  1.
         23    2    1    2    0    0 -0.17763568394E-14  0.00000000000E+00  0.00000000000E+00  0.91188000000E+02  0.91188000000E+02 0.  0.
    9900012    2    3    3    0    0 -0.10540775251E+02  0.17455147244E+02  0.38312313476E+02  0.47787268761E+02  0.19999989590E+02 0.  0.
        -12    1    3    3    0    0  0.10540775251E+02 -0.17455147244E+02 -0.38312313476E+02  0.43400731239E+02  0.00000000000E+00 0.  1.
         11    1    4    4    0    0 -0.34943128403E+01  0.12082134070E+02  0.31780355814E+02  0.34178636629E+02  0.51100000000E-03 0. -1.
        -11    1    4    4    0    0 -0.87670483844E+01  0.51098762423E+01  0.59996760201E+01  0.11788472556E+02  0.51100000000E-03 0.  1.
         12    1    4    4    0    0  0.17205859739E+01  0.26313693196E+00  0.53228164219E+00  0.18201595769E+01  0.00000000000E+00 0. -1.
</event>
<event>
 8    1  0.6469014E-010  0.9118800E+02  0.7816164E-02  0.1184000E+00
        -11   -1    0    0    0    0  0.00000000000E+00  0.00000000000E+00  0.45593999997E+02  0.45594000000E+02  0.51100000000E-03 0. -1.
         11   -1    0    0    0    0 -0.00000000000E+00 -0.00000000000E+00 -0.45593999997E+02  0.45594000000E+02  0.51100000000E-03 0.  1.
         23    2    1    2    0    0  0.35527136788E-14  0.00000000000E+00  0.00000000000E+00  0.91188000000E+02  0.91188000000E+02 0.  0.
    9900012    2    3    3    0    0 -0.21295130498E+02 -0.94109350512E+01 -0.36627532551E+02  0.47787257815E+02  0.19999939680E+02 0.  0.
         12    1    3    3    0    0  0.21295130498E+02  0.94109350512E+01  0.36627532551E+02  0.43400742185E+02  0.00000000000E+00 0. -1.
         11    1    4    4    0    0  0.11988238367E+01  0.38201879516E+01 -0.54418634171E+01  0.67561003758E+01  0.51100000000E-03 0. -1.
        -11    1    4    4    0    0 -0.10687647894E+02 -0.85903570937E+01 -0.13292743111E+02  0.19097567180E+02  0.51100000000E-03 0.  1.
         12    1    4    4    0    0 -0.11806306440E+02 -0.46407659090E+01 -0.17892926023E+02  0.21933590259E+02  0.00000000000E+00 0. -1.
</event>
<event>
 8    1  0.6469014E-010  0.9118800E+02  0.7816164E-02  0.1184000E+00
        -11   -1    0    0    0    0  0.00000000000E+00  0.00000000000E+00  0.45593999997E+02  0.45594000000E+02  0.51100000000E-03 0. -1.
         11   -1    0    0    0    0 -0.00000000000E+00 -0.00000000000E+00 -0.45593999997E+02  0.45594000000E+02  0.51100000000E-03 0.  1.
         23    2    1    2    0    0  0.88817841970E-15  0.35527136788E-14  0.71054273576E-14  0.91188000000E+02  0.91188000000E+02 0.  0.
    9900012    2    3    3    0    0 -0.45668665328E+01 -0.19953621974E+02 -0.38270354371E+02  0.47787270473E+02  0.19999997395E+02 0.  0.
         12    1    3    3    0    0  0.45668665328E+01  0.19953621974E+02  0.38270354371E+02  0.43400729527E+02  0.00000000000E+00 0. -1.
         11    1    4    4    0    0 -0.78062325640E+01 -0.15968364672E+02 -0.31944331189E+02  0.36556343260E+02  0.51100000000E-03 0. -1.
        -11    1    4    4    0    0  0.31444206251E+01  0.55826727590E+00 -0.58456001218E+01  0.66610873334E+01  0.51100000000E-03 0.  1.
         12    1    4    4    0    0  0.94945406152E-01 -0.45435245771E+01 -0.48042306018E+00  0.45698398801E+01  0.00000000000E+00 0. -1.
</event>
<event>
 8    1  0.6469014E-010  0.9118800E+02  0.7816164E-02  0.1184000E+00
        -11   -1    0    0    0    0  0.00000000000E+00  0.00000000000E+00  0.45593999997E+02  0.45594000000E+02  0.51100000000E-03 0. -1.
         11   -1    0    0    0    0 -0.00000000000E+00 -0.00000000000E+00 -0.45593999997E+02  0.45594000000E+02  0.51100000000E-03 0.  1.
         23    2    1    2    0    0  0.00000000000E+00 -0.88817841970E-15 -0.71054273576E-14  0.91188000000E+02  0.91188000000E+02 0.  0.
    9900012    2    3    3    0    0 -0.35836620413E+01 -0.50053634782E+01 -0.42961927787E+02  0.47787268020E+02  0.19999986211E+02 0.  0.
         12    1    3    3    0    0  0.35836620413E+01  0.50053634782E+01  0.42961927787E+02  0.43400731980E+02  0.00000000000E+00 0. -1.
         11    1    4    4    0    0  0.11761982072E+01 -0.31026158326E+01 -0.57900985956E+01  0.66734480769E+01  0.51100000000E-03 0. -1.
        -11    1    4    4    0    0  0.23046479243E+01 -0.19531060277E+01 -0.32509049972E+02  0.32649109568E+02  0.51100000000E-03 0.  1.
        -12    1    4    4    0    0 -0.70645081729E+01  0.50358382005E-01 -0.46627792194E+01  0.84647103754E+01  0.00000000000E+00 0.  1.
</event>
<event>
 8    1  0.6469014E-010  0.9118800E+02  0.7816164E-02  0.1184000E+00
        -11   -1    0    0    0    0  0.00000000000E+00  0.00000000000E+00  0.45593999997E+02  0.45594000000E+02  0.51100000000E-03 0. -1.
         11   -1    0    0    0    0 -0.00000000000E+00 -0.00000000000E+00 -0.45593999997E+02  0.45594000000E+02  0.51100000000E-03 0.  1.
         23    2    1    2    0    0  0.35527136788E-14  0.00000000000E+00  0.00000000000E+00  0.91188000000E+02  0.91188000000E+02 0.  0.
    9900012    2    3    3    0    0 -0.24256015734E+02 -0.16016104895E+02  0.32229685340E+02  0.47787279587E+02  0.20000038947E+02 0.  0.
        -12    1    3    3    0    0  0.24256015734E+02  0.16016104895E+02 -0.32229685340E+02  0.43400720413E+02  0.00000000000E+00 0.  1.
         11    1    4    4    0    0 -0.68688072728E+01  0.23189188942E+01  0.35905402461E+01  0.80901098700E+01  0.51100000000E-03 0. -1.
        -11    1    4    4    0    0 -0.45202930366E+01 -0.11489165430E+01  0.11244957983E+01  0.47976608281E+01  0.51100000000E-03 0.  1.
         12    1    4    4    0    0 -0.12866915425E+02 -0.17186107246E+02  0.27514649296E+02  0.34899508889E+02  0.00000000000E+00 0. -1.
</event>
<event>
 8    1  0.6469014E-010  0.9118800E+02  0.7816164E-02  0.1184000E+00
        -11   -1    0    0    0    0  0.00000000000E+00  0.00000000000E+00  0.45593999997E+02  0.45594000000E+02  0.51100000000E-03 0.  1.
         11   -1    0    0    0    0 -0.00000000000E+00 -0.00000000000E+00 -0.45593999997E+02  0.45594000000E+02  0.51100000000E-03 0. -1.
         23    2    1    2    0    0  0.14210854715E-13  0.35527136788E-14 -0.66613381478E-15  0.91188000000E+02  0.91188000000E+02 0.  0.
    9900012    2    3    3    0    0  0.37852438061E+02  0.21204354637E+02 -0.10918786390E+01  0.47787263581E+02  0.19999965971E+02 0.  0.
         12    1    3    3    0    0 -0.37852438061E+02 -0.21204354637E+02  0.10918786390E+01  0.43400736419E+02  0.00000000000E+00 0. -1.
         11    1    4    4    0    0  0.20626428913E+01 -0.20360606545E+00  0.87900190830E+00  0.22513542020E+01  0.51100000000E-03 0. -1.
        -11    1    4    4    0    0 -0.11078087607E+01  0.17621624826E+00  0.24916114607E+01  0.27324751323E+01  0.51100000000E-03 0.  1.
        -12    1    4    4    0    0  0.36897603931E+02  0.21231744454E+02 -0.44624920080E+01  0.42803434247E+02  0.00000000000E+00 0.  1.
</event>
<event>
 8    1  0.6469014E-010  0.9118800E+02  0.7816164E-02  0.1184000E+00
        -11   -1    0    0    0    0  0.00000000000E+00  0.00000000000E+00  0.45593999997E+02  0.45594000000E+02  0.51100000000E-03 0. -1.
         11   -1    0    0    0    0 -0.00000000000E+00 -0.00000000000E+00 -0.45593999997E+02  0.45594000000E+02  0.51100000000E-03 0.  1.
         23    2    1    2    0    0  0.00000000000E+00  0.00000000000E+00  0.00000000000E+00  0.91188000000E+02  0.91188000000E+02 0.  0.
    9900012    2    3    3    0    0 -0.14508607257E+02  0.20147803032E+02 -0.35597610898E+02  0.47787267827E+02  0.19999985329E+02 0.  0.
         12    1    3    3    0    0  0.14508607257E+02 -0.20147803032E+02  0.35597610898E+02  0.43400732173E+02  0.00000000000E+00 0. -1.
         11    1    4    4    0    0 -0.42712962280E+01 -0.28236818109E+01 -0.23771112951E+01  0.56451579966E+01  0.51100000000E-03 0. -1.
        -11    1    4    4    0    0 -0.10129462598E+02  0.17843858964E+02 -0.28857959833E+02  0.35408913584E+02  0.51100000000E-03 0.  1.
        -12    1    4    4    0    0 -0.10784843074E+00  0.51276258789E+01 -0.43625397705E+01  0.67331962460E+01  0.00000000000E+00 0.  1.
</event>
<event>
 8    1  0.6469014E-010  0.9118800E+02  0.7816164E-02  0.1184000E+00
        -11   -1    0    0    0    0  0.00000000000E+00  0.00000000000E+00  0.45593999997E+02  0.45594000000E+02  0.51100000000E-03 0. -1.
         11   -1    0    0    0    0 -0.00000000000E+00 -0.00000000000E+00 -0.45593999997E+02  0.45594000000E+02  0.51100000000E-03 0.  1.
         23    2    1    2    0    0  0.00000000000E+00  0.00000000000E+00  0.00000000000E+00  0.91188000000E+02  0.91188000000E+02 0.  0.
    9900012    2    3    3    0    0 -0.83231538345E+01  0.29461014640E+02  0.30763569764E+02  0.47787268463E+02  0.19999988229E+02 0.  0.
        -12    1    3    3    0    0  0.83231538345E+01 -0.29461014640E+02 -0.30763569764E+02  0.43400731537E+02  0.00000000000E+00 0.  1.
         11    1    4    4    0    0  0.41674379757E+01  0.66736852659E+01  0.69830049925E+01  0.10519884662E+02  0.51100000000E-03 0. -1.
        -11    1    4    4    0    0 -0.14158031795E+02  0.17668164335E+02  0.15678455743E+02  0.27539569170E+02  0.51100000000E-03 0.  1.
        -12    1    4    4    0    0  0.16674399852E+01  0.51191650387E+01  0.81021090278E+01  0.97278146311E+01  0.00000000000E+00 0.  1.
</event>
<event>
 8    1  0.6469014E-010  0.9118800E+02  0.7816164E-02  0.1184000E+00
        -11   -1    0    0    0    0  0.00000000000E+00  0.00000000000E+00  0.45593999997E+02  0.45594000000E+02  0.51100000000E-03 0. -1.
         11   -1    0    0    0    0 -0.00000000000E+00 -0.00000000000E+00 -0.45593999997E+02  0.45594000000E+02  0.51100000000E-03 0.  1.
         23    2    1    2    0    0 -0.71054273576E-14  0.00000000000E+00  0.00000000000E+00  0.91188000000E+02  0.91188000000E+02 0.  0.
    9900012    2    3    3    0    0  0.37182393269E+02  0.67123622990E+01  0.21355032646E+02  0.47787267332E+02  0.19999983073E+02 0.  0.
        -12    1    3    3    0    0 -0.37182393269E+02 -0.67123622990E+01 -0.21355032646E+02  0.43400732668E+02  0.00000000000E+00 0.  1.
         11    1    4    4    0    0  0.17973639436E+02  0.37029904677E+01  0.16671276945E+02  0.24793049998E+02  0.51100000000E-03 0. -1.
        -11    1    4    4    0    0  0.46396070451E+01 -0.20805554156E+00 -0.36476776014E+01  0.59054883613E+01  0.51100000000E-03 0.  1.
        -12    1    4    4    0    0  0.14569146787E+02  0.32174273729E+01  0.83314333024E+01  0.17088728972E+02  0.00000000000E+00 0.  1.
</event>
<event>
 8    1  0.6469014E-010  0.9118800E+02  0.7816164E-02  0.1184000E+00
        -11   -1    0    0    0    0  0.00000000000E+00  0.00000000000E+00  0.45593999997E+02  0.45594000000E+02  0.51100000000E-03 0.  1.
         11   -1    0    0    0    0 -0.00000000000E+00 -0.00000000000E+00 -0.45593999997E+02  0.45594000000E+02  0.51100000000E-03 0. -1.
         23    2    1    2    0    0  0.00000000000E+00  0.00000000000E+00  0.00000000000E+00  0.91188000000E+02  0.91188000000E+02 0.  0.
    9900012    2    3    3    0    0  0.60045110973E+01  0.23454071532E+02 -0.36020488510E+02  0.47787271694E+02  0.20000002962E+02 0.  0.
         12    1    3    3    0    0 -0.60045110973E+01 -0.23454071532E+02  0.36020488510E+02  0.43400728306E+02  0.00000000000E+00 0. -1.
         11    1    4    4    0    0  0.27377160679E+01  0.54642209763E+00 -0.12419347510E+01  0.30554980878E+01  0.51100000000E-03 0. -1.
        -11    1    4    4    0    0 -0.32675188401E+01  0.17748178943E+01 -0.25170472986E+00  0.37269308365E+01  0.51100000000E-03 0.  1.
        -12    1    4    4    0    0  0.65343138695E+01  0.21132831541E+02 -0.34526849029E+02  0.41004842770E+02  0.00000000000E+00 0.  1.
</event>
<event>
 8    1  0.6469014E-010  0.9118800E+02  0.7816164E-02  0.1184000E+00
        -11   -1    0    0    0    0  0.00000000000E+00  0.00000000000E+00  0.45593999997E+02  0.45594000000E+02  0.51100000000E-03 0. -1.
         11   -1    0    0    0    0 -0.00000000000E+00 -0.00000000000E+00 -0.45593999997E+02  0.45594000000E+02  0.51100000000E-03 0.  1.
         23    2    1    2    0    0  0.00000000000E+00 -0.44408920985E-15  0.00000000000E+00  0.91188000000E+02  0.91188000000E+02 0.  0.
    9900012    2    3    3    0    0 -0.18565243327E+02 -0.38388586744E+01 -0.39041238936E+02  0.47787269207E+02  0.19999991621E+02 0.  0.
         12    1    3    3    0    0  0.18565243327E+02  0.38388586744E+01  0.39041238936E+02  0.43400730793E+02  0.00000000000E+00 0. -1.
         11    1    4    4    0    0 -0.74076938432E+01 -0.39970311541E+01 -0.48057492194E+01  0.96925441419E+01  0.51100000000E-03 0. -1.
        -11    1    4    4    0    0  0.14433094563E+01  0.27220342844E+01 -0.12186808483E+02  0.12570239222E+02  0.51100000000E-03 0.  1.
        -12    1    4    4    0    0 -0.12600858941E+02 -0.25638618047E+01 -0.22048681234E+02  0.25524485843E+02  0.00000000000E+00 0.  1.
</event>
<event>
 8    1  0.6469014E-010  0.9118800E+02  0.7816164E-02  0.1184000E+00
        -11   -1    0    0    0    0  0.00000000000E+00  0.00000000000E+00  0.45593999997E+02  0.45594000000E+02  0.51100000000E-03 0. -1.
         11   -1    0    0    0    0 -0.00000000000E+00 -0.00000000000E+00 -0.45593999997E+02  0.45594000000E+02  0.51100000000E-03 0.  1.
         23    2    1    2    0    0  0.00000000000E+00  0.00000000000E+00  0.00000000000E+00  0.91188000000E+02  0.91188000000E+02 0.  0.
    9900012    2    3    3    0    0 -0.29155390430E+02  0.22798505311E+02 -0.22667479369E+02  0.47787271245E+02  0.20000000914E+02 0.  0.
         12    1    3    3    0    0  0.29155390430E+02 -0.22798505311E+02  0.22667479369E+02  0.43400728755E+02  0.00000000000E+00 0. -1.
         11    1    4    4    0    0 -0.11675592040E+02 -0.17762652243E+01 -0.62049564336E+01  0.13340766553E+02  0.51100000000E-03 0. -1.
        -11    1    4    4    0    0 -0.17003868336E+02  0.24134860874E+02 -0.15674587371E+02  0.33426273159E+02  0.51100000000E-03 0.  1.
        -12    1    4    4    0    0 -0.47593005411E+00  0.43990966126E+00 -0.78793556414E+00  0.10202315324E+01  0.00000000000E+00 0.  1.
</event>
<event>
 8    1  0.6469014E-010  0.9118800E+02  0.7816164E-02  0.1184000E+00
        -11   -1    0    0    0    0  0.00000000000E+00  0.00000000000E+00  0.45593999997E+02  0.45594000000E+02  0.51100000000E-03 0. -1.
         11   -1    0    0    0    0 -0.00000000000E+00 -0.00000000000E+00 -0.45593999997E+02  0.45594000000E+02  0.51100000000E-03 0.  1.
         23    2    1    2    0    0  0.17763568394E-14  0.00000000000E+00  0.00000000000E+00  0.91188000000E+02  0.91188000000E+02 0.  0.
    9900012    2    3    3    0    0 -0.92677570213E+01 -0.39040192332E+02  0.16540718701E+02  0.47787270597E+02  0.19999997960E+02 0.  0.
        -12    1    3    3    0    0  0.92677570213E+01  0.39040192332E+02 -0.16540718701E+02  0.43400729403E+02  0.00000000000E+00 0.  1.
         11    1    4    4    0    0 -0.66674334902E+00 -0.18311359463E+02  0.36644064144E+01  0.18686313352E+02  0.51100000000E-03 0. -1.
        -11    1    4    4    0    0 -0.62033182245E+01 -0.10812830861E+01  0.28193280601E+01  0.68991985824E+01  0.51100000000E-03 0.  1.
        -12    1    4    4    0    0 -0.23976954478E+01 -0.19647549783E+02  0.10056984227E+02  0.22201758662E+02  0.00000000000E+00 0.  1.
</event>
<event>
 8    1  0.6469014E-010  0.9118800E+02  0.7816164E-02  0.1184000E+00
        -11   -1    0    0    0    0  0.00000000000E+00  0.00000000000E+00  0.45593999997E+02  0.45594000000E+02  0.51100000000E-03 0. -1.
         11   -1    0    0    0    0 -0.00000000000E+00 -0.00000000000E+00 -0.45593999997E+02  0.45594000000E+02  0.51100000000E-03 0.  1.
         23    2    1    2    0    0 -0.17763568394E-14 -0.35527136788E-14  0.71054273576E-14  0.91188000000E+02  0.91188000000E+02 0.  0.
    9900012    2    3    3    0    0 -0.87703089581E+01 -0.16294987614E+02  0.39257843688E+02  0.47787271531E+02  0.20000002220E+02 0.  0.
        -12    1    3    3    0    0  0.87703089581E+01  0.16294987614E+02 -0.39257843688E+02  0.43400728469E+02  0.00000000000E+00 0.  1.
         11    1    4    4    0    0  0.33543253529E+01 -0.11423712647E+01  0.15971783980E+02  0.16360146529E+02  0.51100000000E-03 0. -1.
        -11    1    4    4    0    0 -0.52156314654E+01 -0.10008292670E+02  0.78404582853E+01  0.13741962019E+02  0.51100000000E-03 0.  1.
        -12    1    4    4    0    0 -0.69090028457E+01 -0.51443236797E+01  0.15445601423E+02  0.17685162984E+02  0.00000000000E+00 0.  1.
</event>
<event>
 8    1  0.6469014E-010  0.9118800E+02  0.7816164E-02  0.1184000E+00
        -11   -1    0    0    0    0  0.00000000000E+00  0.00000000000E+00  0.45593999997E+02  0.45594000000E+02  0.51100000000E-03 0. -1.
         11   -1    0    0    0    0 -0.00000000000E+00 -0.00000000000E+00 -0.45593999997E+02  0.45594000000E+02  0.51100000000E-03 0.  1.
         23    2    1    2    0    0  0.17763568394E-14  0.00000000000E+00  0.00000000000E+00  0.91188000000E+02  0.91188000000E+02 0.  0.
    9900012    2    3    3    0    0  0.14382384960E+02 -0.39907208244E+02 -0.91752293712E+01  0.47787273037E+02  0.20000009083E+02 0.  0.
        -12    1    3    3    0    0 -0.14382384960E+02  0.39907208244E+02  0.91752293712E+01  0.43400726963E+02  0.00000000000E+00 0.  1.
         11    1    4    4    0    0 -0.21916489549E+01 -0.58302293870E+00 -0.31551312672E+01  0.38856266500E+01  0.51100000000E-03 0.  1.
        -11    1    4    4    0    0  0.23152432539E+01 -0.12759732806E+02  0.79218656496E+00  0.12992255094E+02  0.51100000000E-03 0. -1.
         12    1    4    4    0    0  0.14258790661E+02 -0.26564452499E+02 -0.68122846689E+01  0.30909391293E+02  0.00000000000E+00 0. -1.
</event>
<event>
 8    1  0.6469014E-010  0.9118800E+02  0.7816164E-02  0.1184000E+00
        -11   -1    0    0    0    0  0.00000000000E+00  0.00000000000E+00  0.45593999997E+02  0.45594000000E+02  0.51100000000E-03 0. -1.
         11   -1    0    0    0    0 -0.00000000000E+00 -0.00000000000E+00 -0.45593999997E+02  0.45594000000E+02  0.51100000000E-03 0.  1.
         23    2    1    2    0    0  0.00000000000E+00 -0.35527136788E-14 -0.35527136788E-14  0.91188000000E+02  0.91188000000E+02 0.  0.
    9900012    2    3    3    0    0  0.18740455531E+02  0.24211378617E+02  0.30760812384E+02  0.47787272972E+02  0.20000008787E+02 0.  0.
        -12    1    3    3    0    0 -0.18740455531E+02 -0.24211378617E+02 -0.30760812384E+02  0.43400727028E+02  0.00000000000E+00 0.  1.
         11    1    4    4    0    0  0.16256428176E+02  0.23326295524E+02  0.32198091070E+02  0.42954680638E+02  0.51100000000E-03 0. -1.
        -11    1    4    4    0    0  0.27872851593E+01 -0.21782675456E+00  0.23598551460E+00  0.28057256599E+01  0.51100000000E-03 0.  1.
         12    1    4    4    0    0 -0.30325780351E+00  0.11029098475E+01 -0.16732642007E+01  0.20268666736E+01  0.00000000000E+00 0. -1.
</event>
<event>
 8    1  0.6469014E-010  0.9118800E+02  0.7816164E-02  0.1184000E+00
        -11   -1    0    0    0    0  0.00000000000E+00  0.00000000000E+00  0.45593999997E+02  0.45594000000E+02  0.51100000000E-03 0. -1.
         11   -1    0    0    0    0 -0.00000000000E+00 -0.00000000000E+00 -0.45593999997E+02  0.45594000000E+02  0.51100000000E-03 0.  1.
         23    2    1    2    0    0  0.00000000000E+00  0.17763568394E-14  0.00000000000E+00  0.91188000000E+02  0.91188000000E+02 0.  0.
    9900012    2    3    3    0    0 -0.33160472448E+02  0.11492014134E+02  0.25533112489E+02  0.47787272411E+02  0.20000006231E+02 0.  0.
        -12    1    3    3    0    0  0.33160472448E+02 -0.11492014134E+02 -0.25533112489E+02  0.43400727589E+02  0.00000000000E+00 0.  1.
         11    1    4    4    0    0 -0.83681275482E+01  0.88168324109E+01  0.94687688291E+01  0.15408428727E+02  0.51100000000E-03 0. -1.
        -11    1    4    4    0    0 -0.20845054151E+02 -0.30585287423E+01  0.13128844960E+02  0.24824130415E+02  0.51100000000E-03 0.  1.
        -12    1    4    4    0    0 -0.39472907492E+01  0.57337104654E+01  0.29354987005E+01  0.75547132693E+01  0.00000000000E+00 0.  1.
</event>
<event>
 8    1  0.6469014E-010  0.9118800E+02  0.7816164E-02  0.1184000E+00
        -11   -1    0    0    0    0  0.00000000000E+00  0.00000000000E+00  0.45593999997E+02  0.45594000000E+02  0.51100000000E-03 0.  1.
         11   -1    0    0    0    0 -0.00000000000E+00 -0.00000000000E+00 -0.45593999997E+02  0.45594000000E+02  0.51100000000E-03 0. -1.
         23    2    1    2    0    0  0.00000000000E+00  0.00000000000E+00 -0.35527136788E-14  0.91188000000E+02  0.91188000000E+02 0.  0.
    9900012    2    3    3    0    0 -0.15625096473E+02 -0.32934776076E+02 -0.23553771833E+02  0.47787270945E+02  0.19999999547E+02 0.  0.
         12    1    3    3    0    0  0.15625096473E+02  0.32934776076E+02  0.23553771833E+02  0.43400729055E+02  0.00000000000E+00 0. -1.
         11    1    4    4    0    0 -0.10263389514E+02 -0.41981251691E+01 -0.57213054080E+01  0.12477770437E+02  0.51100000000E-03 0. -1.
        -11    1    4    4    0    0 -0.32457698582E+01 -0.14031812223E+02 -0.38499269421E+01  0.14908008383E+02  0.51100000000E-03 0.  1.
         12    1    4    4    0    0 -0.21159371005E+01 -0.14704838683E+02 -0.13982539483E+02  0.20401492125E+02  0.00000000000E+00 0. -1.
</event>
<event>
 8    1  0.6469014E-010  0.9118800E+02  0.7816164E-02  0.1184000E+00
        -11   -1    0    0    0    0  0.00000000000E+00  0.00000000000E+00  0.45593999997E+02  0.45594000000E+02  0.51100000000E-03 0. -1.
         11   -1    0    0    0    0 -0.00000000000E+00 -0.00000000000E+00 -0.45593999997E+02  0.45594000000E+02  0.51100000000E-03 0.  1.
         23    2    1    2    0    0  0.71054273576E-14 -0.17763568394E-14  0.00000000000E+00  0.91188000000E+02  0.91188000000E+02 0.  0.
    9900012    2    3    3    0    0 -0.41172325156E+02  0.12476359708E+02  0.57274020888E+01  0.47787273681E+02  0.20000012023E+02 0.  0.
        -12    1    3    3    0    0  0.41172325156E+02 -0.12476359708E+02 -0.57274020888E+01  0.43400726319E+02  0.00000000000E+00 0.  1.
         11    1    4    4    0    0 -0.32120256988E+01 -0.14407356066E+00  0.28355104107E+01  0.42869553102E+01  0.51100000000E-03 0. -1.
        -11    1    4    4    0    0 -0.30503453645E+01  0.30323143330E+01 -0.48464645710E+01  0.64797959965E+01  0.51100000000E-03 0.  1.
        -12    1    4    4    0    0 -0.34909954093E+02  0.95881189354E+01  0.77383562492E+01  0.37020522375E+02  0.00000000000E+00 0.  1.
</event>
<event>
 8    1  0.6469014E-010  0.9118800E+02  0.7816164E-02  0.1184000E+00
        -11   -1    0    0    0    0  0.00000000000E+00  0.00000000000E+00  0.45593999997E+02  0.45594000000E+02  0.51100000000E-03 0. -1.
         11   -1    0    0    0    0 -0.00000000000E+00 -0.00000000000E+00 -0.45593999997E+02  0.45594000000E+02  0.51100000000E-03 0.  1.
         23    2    1    2    0    0  0.00000000000E+00  0.31086244690E-14  0.00000000000E+00  0.91188000000E+02  0.91188000000E+02 0.  0.
    9900012    2    3    3    0    0 -0.16383505347E+02  0.26607806046E+01 -0.40101428421E+02  0.47787267722E+02  0.19999984850E+02 0.  0.
         12    1    3    3    0    0  0.16383505347E+02 -0.26607806046E+01  0.40101428421E+02  0.43400732278E+02  0.00000000000E+00 0. -1.
         11    1    4    4    0    0  0.41172939774E+00 -0.16572492702E+01 -0.22743385537E+01  0.28440485858E+01  0.51100000000E-03 0. -1.
        -11    1    4    4    0    0 -0.10425679017E+02 -0.58057307438E+01 -0.22829289074E+02  0.25760002568E+02  0.51100000000E-03 0.  1.
        -12    1    4    4    0    0 -0.63695557274E+01  0.10123760618E+02 -0.14997800794E+02  0.19183216568E+02  0.00000000000E+00 0.  1.
</event>
<event>
 8    1  0.6469014E-010  0.9118800E+02  0.7816164E-02  0.1184000E+00
        -11   -1    0    0    0    0  0.00000000000E+00  0.00000000000E+00  0.45593999997E+02  0.45594000000E+02  0.51100000000E-03 0. -1.
         11   -1    0    0    0    0 -0.00000000000E+00 -0.00000000000E+00 -0.45593999997E+02  0.45594000000E+02  0.51100000000E-03 0.  1.
         23    2    1    2    0    0 -0.88817841970E-15  0.00000000000E+00  0.00000000000E+00  0.91188000000E+02  0.91188000000E+02 0.  0.
    9900012    2    3    3    0    0 -0.65203408793E+01 -0.25654949322E+02 -0.34393698862E+02  0.47787334206E+02  0.20000287979E+02 0.  0.
         12    1    3    3    0    0  0.65203408793E+01  0.25654949322E+02  0.34393698862E+02  0.43400665794E+02  0.00000000000E+00 0. -1.
         11    1    4    4    0    0 -0.56973672518E+01 -0.32979137603E+00 -0.69040351177E+01  0.89573688727E+01  0.51100000000E-03 0. -1.
        -11    1    4    4    0    0 -0.43945973083E+01 -0.18220025901E+02 -0.23097995991E+02  0.29745575275E+02  0.51100000000E-03 0.  1.
         12    1    4    4    0    0  0.35716236808E+01 -0.71051320449E+01 -0.43916677531E+01  0.90843900591E+01  0.00000000000E+00 0. -1.
</event>
<event>
 8    1  0.6469014E-010  0.9118800E+02  0.7816164E-02  0.1184000E+00
        -11   -1    0    0    0    0  0.00000000000E+00  0.00000000000E+00  0.45593999997E+02  0.45594000000E+02  0.51100000000E-03 0. -1.
         11   -1    0    0    0    0 -0.00000000000E+00 -0.00000000000E+00 -0.45593999997E+02  0.45594000000E+02  0.51100000000E-03 0.  1.
         23    2    1    2    0    0 -0.17763568394E-14  0.00000000000E+00 -0.71054273576E-14  0.91188000000E+02  0.91188000000E+02 0.  0.
    9900012    2    3    3    0    0 -0.11561043212E+02 -0.74687231017E+01 -0.41160462365E+02  0.47787271815E+02  0.20000003513E+02 0.  0.
         12    1    3    3    0    0  0.11561043212E+02  0.74687231017E+01  0.41160462365E+02  0.43400728185E+02  0.00000000000E+00 0. -1.
         11    1    4    4    0    0 -0.31834685807E+01 -0.97111615047E+01 -0.10800876247E+02  0.14869433679E+02  0.51100000000E-03 0. -1.
        -11    1    4    4    0    0 -0.39609217276E+01  0.57421865063E+01 -0.14595901620E+02  0.16177204677E+02  0.51100000000E-03 0.  1.
        -12    1    4    4    0    0 -0.44166529038E+01 -0.34997481033E+01 -0.15763684498E+02  0.16740633459E+02  0.00000000000E+00 0.  1.
</event>
<event>
 8    1  0.6469014E-010  0.9118800E+02  0.7816164E-02  0.1184000E+00
        -11   -1    0    0    0    0  0.00000000000E+00  0.00000000000E+00  0.45593999997E+02  0.45594000000E+02  0.51100000000E-03 0. -1.
         11   -1    0    0    0    0 -0.00000000000E+00 -0.00000000000E+00 -0.45593999997E+02  0.45594000000E+02  0.51100000000E-03 0.  1.
         23    2    1    2    0    0  0.17763568394E-14  0.00000000000E+00  0.00000000000E+00  0.91188000000E+02  0.91188000000E+02 0.  0.
    9900012    2    3    3    0    0  0.12676665314E+02 -0.41452939856E+02  0.21398302270E+01  0.47787274896E+02  0.20000017560E+02 0.  0.
         12    1    3    3    0    0 -0.12676665314E+02  0.41452939856E+02 -0.21398302270E+01  0.43400725104E+02  0.00000000000E+00 0. -1.
         11    1    4    4    0    0 -0.29635750087E+01 -0.19093515313E+01 -0.13632918556E+01  0.37798101866E+01  0.51100000000E-03 0. -1.
        -11    1    4    4    0    0  0.15672062210E+02 -0.36020322225E+02  0.59328387779E+01  0.39727518464E+02  0.51100000000E-03 0.  1.
        -12    1    4    4    0    0 -0.31821887045E-01 -0.35232660992E+01 -0.24297166953E+01  0.42799462447E+01  0.00000000000E+00 0.  1.
</event>
<event>
 8    1  0.6469014E-010  0.9118800E+02  0.7816164E-02  0.1184000E+00
        -11   -1    0    0    0    0  0.00000000000E+00  0.00000000000E+00  0.45593999997E+02  0.45594000000E+02  0.51100000000E-03 0. -1.
         11   -1    0    0    0    0 -0.00000000000E+00 -0.00000000000E+00 -0.45593999997E+02  0.45594000000E+02  0.51100000000E-03 0.  1.
         23    2    1    2    0    0 -0.88817841970E-15  0.00000000000E+00  0.00000000000E+00  0.91188000000E+02  0.91188000000E+02 0.  0.
    9900012    2    3    3    0    0  0.63749372148E+01 -0.31055344661E+02  0.29640340508E+02  0.47787262196E+02  0.19999959658E+02 0.  0.
        -12    1    3    3    0    0 -0.63749372148E+01  0.31055344661E+02 -0.29640340508E+02  0.43400737804E+02  0.00000000000E+00 0.  1.
         11    1    4    4    0    0  0.53640365718E+01 -0.23700492353E+02  0.12578574916E+02  0.27362506707E+02  0.51100000000E-03 0. -1.
        -11    1    4    4    0    0 -0.32430004632E+01 -0.48759870837E+01  0.63633433272E+01  0.86477997552E+01  0.51100000000E-03 0.  1.
         12    1    4    4    0    0  0.42539011063E+01 -0.24788652240E+01  0.10698422264E+02  0.11776955734E+02  0.00000000000E+00 0. -1.
</event>
<event>
 8    1  0.6469014E-010  0.9118800E+02  0.7816164E-02  0.1184000E+00
        -11   -1    0    0    0    0  0.00000000000E+00  0.00000000000E+00  0.45593999997E+02  0.45594000000E+02  0.51100000000E-03 0. -1.
         11   -1    0    0    0    0 -0.00000000000E+00 -0.00000000000E+00 -0.45593999997E+02  0.45594000000E+02  0.51100000000E-03 0.  1.
         23    2    1    2    0    0  0.00000000000E+00  0.00000000000E+00  0.00000000000E+00  0.91188000000E+02  0.91188000000E+02 0.  0.
    9900012    2    3    3    0    0  0.35827059831E+02 -0.11058282769E+02  0.21857704107E+02  0.47787273477E+02  0.20000011089E+02 0.  0.
        -12    1    3    3    0    0 -0.35827059831E+02  0.11058282769E+02 -0.21857704107E+02  0.43400726523E+02  0.00000000000E+00 0.  1.
         11    1    4    4    0    0  0.11319562758E+02 -0.11238954326E+02  0.53523763861E+01  0.16825413178E+02  0.51100000000E-03 0. -1.
        -11    1    4    4    0    0  0.50880546473E+01  0.27563123766E+01  0.73054831280E+01  0.93196374396E+01  0.51100000000E-03 0.  1.
        -12    1    4    4    0    0  0.19419442425E+02 -0.25756408200E+01  0.91998445931E+01  0.21642222859E+02  0.00000000000E+00 0.  1.
</event>
<event>
 8    1  0.6469014E-010  0.9118800E+02  0.7816164E-02  0.1184000E+00
        -11   -1    0    0    0    0  0.00000000000E+00  0.00000000000E+00  0.45593999997E+02  0.45594000000E+02  0.51100000000E-03 0. -1.
         11   -1    0    0    0    0 -0.00000000000E+00 -0.00000000000E+00 -0.45593999997E+02  0.45594000000E+02  0.51100000000E-03 0.  1.
         23    2    1    2    0    0  0.00000000000E+00  0.00000000000E+00  0.00000000000E+00  0.91188000000E+02  0.91188000000E+02 0.  0.
    9900012    2    3    3    0    0 -0.12080303668E+02 -0.23526983233E+02 -0.34411780422E+02  0.47787270644E+02  0.19999998175E+02 0.  0.
         12    1    3    3    0    0  0.12080303668E+02  0.23526983233E+02  0.34411780422E+02  0.43400729356E+02  0.00000000000E+00 0. -1.
         11    1    4    4    0    0 -0.10842773327E+01 -0.11772678763E+02 -0.50361617111E+01  0.12850468771E+02  0.51100000000E-03 0.  1.
        -11    1    4    4    0    0 -0.25407372640E+01 -0.29620889530E+01 -0.17437649365E+02  0.17868993604E+02  0.51100000000E-03 0. -1.
        -12    1    4    4    0    0 -0.84552890717E+01 -0.87922155174E+01 -0.11937969347E+02  0.17067808269E+02  0.00000000000E+00 0.  1.
</event>
<event>
 8    1  0.6469014E-010  0.9118800E+02  0.7816164E-02  0.1184000E+00
        -11   -1    0    0    0    0  0.00000000000E+00  0.00000000000E+00  0.45593999997E+02  0.45594000000E+02  0.51100000000E-03 0. -1.
         11   -1    0    0    0    0 -0.00000000000E+00 -0.00000000000E+00 -0.45593999997E+02  0.45594000000E+02  0.51100000000E-03 0.  1.
         23    2    1    2    0    0  0.00000000000E+00  0.00000000000E+00  0.00000000000E+00  0.91188000000E+02  0.91188000000E+02 0.  0.
    9900012    2    3    3    0    0 -0.19101950847E+02 -0.20723198998E+02  0.33004361972E+02  0.47787269452E+02  0.19999992741E+02 0.  0.
        -12    1    3    3    0    0  0.19101950847E+02  0.20723198998E+02 -0.33004361972E+02  0.43400730548E+02  0.00000000000E+00 0.  1.
         11    1    4    4    0    0 -0.95128205772E+01 -0.65915824662E+01  0.18863644694E+02  0.22130969390E+02  0.51100000000E-03 0. -1.
        -11    1    4    4    0    0  0.26456338191E+01 -0.20996720852E+01 -0.66852883074E-01  0.33782348555E+01  0.51100000000E-03 0.  1.
         12    1    4    4    0    0 -0.12234764089E+02 -0.12031944447E+02  0.14207570162E+02  0.22278065207E+02  0.00000000000E+00 0. -1.
</event>
<event>
 8    1  0.6469014E-010  0.9118800E+02  0.7816164E-02  0.1184000E+00
        -11   -1    0    0    0    0  0.00000000000E+00  0.00000000000E+00  0.45593999997E+02  0.45594000000E+02  0.51100000000E-03 0. -1.
         11   -1    0    0    0    0 -0.00000000000E+00 -0.00000000000E+00 -0.45593999997E+02  0.45594000000E+02  0.51100000000E-03 0.  1.
         23    2    1    2    0    0  0.35527136788E-14 -0.17763568394E-14  0.00000000000E+00  0.91188000000E+02  0.91188000000E+02 0.  0.
    9900012    2    3    3    0    0  0.16137809623E+02 -0.54752946318E+01 -0.39915102344E+02  0.47787272519E+02  0.20000006722E+02 0.  0.
         12    1    3    3    0    0 -0.16137809623E+02  0.54752946318E+01  0.39915102344E+02  0.43400727481E+02  0.00000000000E+00 0. -1.
         11    1    4    4    0    0  0.12314397047E+02  0.18925306095E+01 -0.30437208487E+02  0.32888443373E+02  0.51100000000E-03 0. -1.
        -11    1    4    4    0    0 -0.13785147818E+01  0.53334360337E+00 -0.32573047262E+01  0.35769809537E+01  0.51100000000E-03 0.  1.
         12    1    4    4    0    0  0.52019273581E+01 -0.79011688447E+01 -0.62205891307E+01  0.11321848192E+02  0.00000000000E+00 0. -1.
</event>
<event>
 8    1  0.6469014E-010  0.9118800E+02  0.7816164E-02  0.1184000E+00
        -11   -1    0    0    0    0  0.00000000000E+00  0.00000000000E+00  0.45593999997E+02  0.45594000000E+02  0.51100000000E-03 0. -1.
         11   -1    0    0    0    0 -0.00000000000E+00 -0.00000000000E+00 -0.45593999997E+02  0.45594000000E+02  0.51100000000E-03 0.  1.
         23    2    1    2    0    0 -0.71054273576E-14  0.17763568394E-14  0.00000000000E+00  0.91188000000E+02  0.91188000000E+02 0.  0.
    9900012    2    3    3    0    0 -0.33324746082E+02  0.10492119815E+02  0.25748783744E+02  0.47787272542E+02  0.20000006827E+02 0.  0.
        -12    1    3    3    0    0  0.33324746082E+02 -0.10492119815E+02 -0.25748783744E+02  0.43400727458E+02  0.00000000000E+00 0.  1.
         11    1    4    4    0    0 -0.74214115540E+01 -0.99019425137E+00 -0.89807424485E+00  0.75408468834E+01  0.51100000000E-03 0. -1.
        -11    1    4    4    0    0  0.39553172840E+00  0.90109951242E+00  0.35402286068E+01  0.36744583994E+01  0.51100000000E-03 0.  1.
         12    1    4    4    0    0 -0.26298866256E+02  0.10581214554E+02  0.23106629382E+02  0.36571967259E+02  0.00000000000E+00 0. -1.
</event>
<event>
 8    1  0.6469014E-010  0.9118800E+02  0.7816164E-02  0.1184000E+00
        -11   -1    0    0    0    0  0.00000000000E+00  0.00000000000E+00  0.45593999997E+02  0.45594000000E+02  0.51100000000E-03 0. -1.
         11   -1    0    0    0    0 -0.00000000000E+00 -0.00000000000E+00 -0.45593999997E+02  0.45594000000E+02  0.51100000000E-03 0.  1.
         23    2    1    2    0    0  0.00000000000E+00  0.00000000000E+00  0.35527136788E-14  0.91188000000E+02  0.91188000000E+02 0.  0.
    9900012    2    3    3    0    0  0.85052891180E+01 -0.37775230681E+02 -0.19603962313E+02  0.47787270348E+02  0.19999996824E+02 0.  0.
         12    1    3    3    0    0 -0.85052891180E+01  0.37775230681E+02  0.19603962313E+02  0.43400729652E+02  0.00000000000E+00 0. -1.
         11    1    4    4    0    0  0.39819627644E+01 -0.25007299591E+01  0.29055704736E+01  0.55273879747E+01  0.51100000000E-03 0. -1.
        -11    1    4    4    0    0  0.33707351665E+01 -0.19039638859E+02 -0.14169643813E+02  0.23971827412E+02  0.51100000000E-03 0.  1.
         12    1    4    4    0    0  0.11525911872E+01 -0.16234861863E+02 -0.83398889739E+01  0.18288054961E+02  0.00000000000E+00 0. -1.
</event>
<event>
 8    1  0.6469014E-010  0.9118800E+02  0.7816164E-02  0.1184000E+00
        -11   -1    0    0    0    0  0.00000000000E+00  0.00000000000E+00  0.45593999997E+02  0.45594000000E+02  0.51100000000E-03 0.  1.
         11   -1    0    0    0    0 -0.00000000000E+00 -0.00000000000E+00 -0.45593999997E+02  0.45594000000E+02  0.51100000000E-03 0. -1.
         23    2    1    2    0    0  0.35527136788E-14  0.00000000000E+00  0.35527136788E-14  0.91188000000E+02  0.91188000000E+02 0.  0.
    9900012    2    3    3    0    0 -0.23239637420E+02  0.31421065988E+02 -0.18874830167E+02  0.47787270179E+02  0.19999996052E+02 0.  0.
        -12    1    3    3    0    0  0.23239637420E+02 -0.31421065988E+02  0.18874830167E+02  0.43400729821E+02  0.00000000000E+00 0.  1.
         11    1    4    4    0    0 -0.16579554024E+02  0.92428763269E+01 -0.15224306114E+02  0.24332937992E+02  0.51100000000E-03 0. -1.
        -11    1    4    4    0    0 -0.42349412762E+01  0.14816632622E+02 -0.21414255178E+01  0.15558053650E+02  0.51100000000E-03 0.  1.
         12    1    4    4    0    0 -0.24251421196E+01  0.73615570391E+01 -0.15090985353E+01  0.78962785367E+01  0.00000000000E+00 0. -1.
</event>
<event>
 8    1  0.6469014E-010  0.9118800E+02  0.7816164E-02  0.1184000E+00
        -11   -1    0    0    0    0  0.00000000000E+00  0.00000000000E+00  0.45593999997E+02  0.45594000000E+02  0.51100000000E-03 0. -1.
         11   -1    0    0    0    0 -0.00000000000E+00 -0.00000000000E+00 -0.45593999997E+02  0.45594000000E+02  0.51100000000E-03 0.  1.
         23    2    1    2    0    0 -0.26645352591E-14  0.00000000000E+00  0.00000000000E+00  0.91188000000E+02  0.91188000000E+02 0.  0.
    9900012    2    3    3    0    0  0.74948273213E+01  0.67361517236E+01  0.42214626045E+02  0.47787276173E+02  0.20000023383E+02 0.  0.
        -12    1    3    3    0    0 -0.74948273213E+01 -0.67361517236E+01 -0.42214626045E+02  0.43400723827E+02  0.00000000000E+00 0.  1.
         11    1    4    4    0    0 -0.45246861080E+01 -0.31666182366E+01  0.15863759645E+02  0.16797592857E+02  0.51100000000E-03 0. -1.
        -11    1    4    4    0    0  0.11051490337E+02  0.77211676489E+01  0.19272820526E+02  0.23520065472E+02  0.51100000000E-03 0.  1.
         12    1    4    4    0    0  0.96802309209E+00  0.21816023113E+01  0.70780458733E+01  0.74696178440E+01  0.00000000000E+00 0. -1.
</event>
<event>
 8    1  0.6469014E-010  0.9118800E+02  0.7816164E-02  0.1184000E+00
        -11   -1    0    0    0    0  0.00000000000E+00  0.00000000000E+00  0.45593999997E+02  0.45594000000E+02  0.51100000000E-03 0. -1.
         11   -1    0    0    0    0 -0.00000000000E+00 -0.00000000000E+00 -0.45593999997E+02  0.45594000000E+02  0.51100000000E-03 0.  1.
         23    2    1    2    0    0  0.00000000000E+00  0.00000000000E+00  0.00000000000E+00  0.91188000000E+02  0.91188000000E+02 0.  0.
    9900012    2    3    3    0    0 -0.34708768575E+02  0.45741164160E+01 -0.25651551861E+02  0.47787271091E+02  0.20000000211E+02 0.  0.
         12    1    3    3    0    0  0.34708768575E+02 -0.45741164160E+01  0.25651551861E+02  0.43400728909E+02  0.00000000000E+00 0. -1.
         11    1    4    4    0    0 -0.68946323714E+01 -0.19752763915E+01  0.20458108573E+01  0.74580838481E+01  0.51100000000E-03 0. -1.
        -11    1    4    4    0    0 -0.82710385520E+01  0.37307154215E+01 -0.12328937322E+02  0.15307874184E+02  0.51100000000E-03 0.  1.
         12    1    4    4    0    0 -0.19543097651E+02  0.28186773860E+01 -0.15368425397E+02  0.25021313059E+02  0.00000000000E+00 0. -1.
</event>
<event>
 8    1  0.6469014E-010  0.9118800E+02  0.7816164E-02  0.1184000E+00
        -11   -1    0    0    0    0  0.00000000000E+00  0.00000000000E+00  0.45593999997E+02  0.45594000000E+02  0.51100000000E-03 0. -1.
         11   -1    0    0    0    0 -0.00000000000E+00 -0.00000000000E+00 -0.45593999997E+02  0.45594000000E+02  0.51100000000E-03 0.  1.
         23    2    1    2    0    0  0.44408920985E-15  0.00000000000E+00 -0.35527136788E-14  0.91188000000E+02  0.91188000000E+02 0.  0.
    9900012    2    3    3    0    0  0.24235860335E+01  0.36946544852E+02 -0.22642972076E+02  0.47787249659E+02  0.19999902495E+02 0.  0.
         12    1    3    3    0    0 -0.24235860335E+01 -0.36946544852E+02  0.22642972076E+02  0.43400750341E+02  0.00000000000E+00 0. -1.
         11    1    4    4    0    0  0.72273036425E+01  0.82337600862E+01 -0.90562564604E+01  0.14214235978E+02  0.51100000000E-03 0. -1.
        -11    1    4    4    0    0 -0.50249855744E+01  0.22487241644E+02 -0.14576527594E+02  0.27265393336E+02  0.51100000000E-03 0.  1.
         12    1    4    4    0    0  0.22126796539E+00  0.62255431215E+01  0.98981197887E+00  0.63076203455E+01  0.00000000000E+00 0. -1.
</event>
<event>
 8    1  0.6469014E-010  0.9118800E+02  0.7816164E-02  0.1184000E+00
        -11   -1    0    0    0    0  0.00000000000E+00  0.00000000000E+00  0.45593999997E+02  0.45594000000E+02  0.51100000000E-03 0. -1.
         11   -1    0    0    0    0 -0.00000000000E+00 -0.00000000000E+00 -0.45593999997E+02  0.45594000000E+02  0.51100000000E-03 0.  1.
         23    2    1    2    0    0  0.00000000000E+00  0.00000000000E+00  0.00000000000E+00  0.91188000000E+02  0.91188000000E+02 0.  0.
    9900012    2    3    3    0    0 -0.26970168341E+02  0.27679145938E+02  0.19750901985E+02  0.47787271556E+02  0.20000002333E+02 0.  0.
        -12    1    3    3    0    0  0.26970168341E+02 -0.27679145938E+02 -0.19750901985E+02  0.43400728444E+02  0.00000000000E+00 0.  1.
         11    1    4    4    0    0 -0.23460482071E+02  0.15712840251E+02  0.99695500198E+01  0.29944607121E+02  0.51100000000E-03 0. -1.
        -11    1    4    4    0    0  0.80263899693E+00 -0.56778348032E+00  0.25726118537E+01  0.27540768782E+01  0.51100000000E-03 0.  1.
         12    1    4    4    0    0 -0.43123252668E+01  0.12534089167E+02  0.72087401119E+01  0.15088587557E+02  0.00000000000E+00 0. -1.
</event>
<event>
 8    1  0.6469014E-010  0.9118800E+02  0.7816164E-02  0.1184000E+00
        -11   -1    0    0    0    0  0.00000000000E+00  0.00000000000E+00  0.45593999997E+02  0.45594000000E+02  0.51100000000E-03 0. -1.
         11   -1    0    0    0    0 -0.00000000000E+00 -0.00000000000E+00 -0.45593999997E+02  0.45594000000E+02  0.51100000000E-03 0.  1.
         23    2    1    2    0    0  0.00000000000E+00 -0.17763568394E-14  0.00000000000E+00  0.91188000000E+02  0.91188000000E+02 0.  0.
    9900012    2    3    3    0    0  0.16080383032E+02 -0.11302446560E+02 -0.38694911238E+02  0.47787306775E+02  0.20000162911E+02 0.  0.
         12    1    3    3    0    0 -0.16080383032E+02  0.11302446560E+02  0.38694911238E+02  0.43400693225E+02  0.00000000000E+00 0. -1.
         11    1    4    4    0    0  0.18499169101E+01 -0.16588667846E+01 -0.16428989393E+00  0.24901853372E+01  0.51100000000E-03 0. -1.
        -11    1    4    4    0    0  0.22132187209E+01  0.46403700280E+01 -0.78287850923E+01  0.93659621708E+01  0.51100000000E-03 0.  1.
        -12    1    4    4    0    0  0.12017247401E+02 -0.14283949803E+02 -0.30701836251E+02  0.35931159267E+02  0.00000000000E+00 0.  1.
</event>
<event>
 8    1  0.6469014E-010  0.9118800E+02  0.7816164E-02  0.1184000E+00
        -11   -1    0    0    0    0  0.00000000000E+00  0.00000000000E+00  0.45593999997E+02  0.45594000000E+02  0.51100000000E-03 0. -1.
         11   -1    0    0    0    0 -0.00000000000E+00 -0.00000000000E+00 -0.45593999997E+02  0.45594000000E+02  0.51100000000E-03 0.  1.
         23    2    1    2    0    0  0.00000000000E+00  0.00000000000E+00 -0.71054273576E-14  0.91188000000E+02  0.91188000000E+02 0.  0.
    9900012    2    3    3    0    0  0.10084425992E+02 -0.89558793384E+01 -0.41251914392E+02  0.47787264254E+02  0.19999969038E+02 0.  0.
         12    1    3    3    0    0 -0.10084425992E+02  0.89558793384E+01  0.41251914392E+02  0.43400735746E+02  0.00000000000E+00 0. -1.
         11    1    4    4    0    0  0.18679033261E+01 -0.18797781062E+01 -0.18311352935E+01  0.32211310573E+01  0.51100000000E-03 0. -1.
        -11    1    4    4    0    0  0.12391951060E+02  0.20614670370E+00 -0.23485690394E+02  0.26555236792E+02  0.51100000000E-03 0.  1.
        -12    1    4    4    0    0 -0.41754283934E+01 -0.72822479359E+01 -0.15935088704E+02  0.18010896404E+02  0.00000000000E+00 0.  1.
</event>
<event>
 8    1  0.6469014E-010  0.9118800E+02  0.7816164E-02  0.1184000E+00
        -11   -1    0    0    0    0  0.00000000000E+00  0.00000000000E+00  0.45593999997E+02  0.45594000000E+02  0.51100000000E-03 0. -1.
         11   -1    0    0    0    0 -0.00000000000E+00 -0.00000000000E+00 -0.45593999997E+02  0.45594000000E+02  0.51100000000E-03 0.  1.
         23    2    1    2    0    0 -0.35527136788E-14 -0.17763568394E-14  0.00000000000E+00  0.91188000000E+02  0.91188000000E+02 0.  0.
    9900012    2    3    3    0    0  0.30985269175E+02  0.13776190876E+02  0.27087960734E+02  0.47787217085E+02  0.19999753977E+02 0.  0.
        -12    1    3    3    0    0 -0.30985269175E+02 -0.13776190876E+02 -0.27087960734E+02  0.43400782915E+02  0.00000000000E+00 0.  1.
         11    1    4    4    0    0  0.81125481730E+01 -0.20662133574E+01  0.71794984391E+01  0.11028502781E+02  0.51100000000E-03 0. -1.
        -11    1    4    4    0    0  0.14347328286E+02  0.10616308740E+02  0.45281738219E+01  0.18413478722E+02  0.51100000000E-03 0.  1.
        -12    1    4    4    0    0  0.85253927157E+01  0.52260954935E+01  0.15380288473E+02  0.18345235582E+02  0.00000000000E+00 0.  1.
</event>
<event>
 8    1  0.6469014E-010  0.9118800E+02  0.7816164E-02  0.1184000E+00
        -11   -1    0    0    0    0  0.00000000000E+00  0.00000000000E+00  0.45593999997E+02  0.45594000000E+02  0.51100000000E-03 0. -1.
         11   -1    0    0    0    0 -0.00000000000E+00 -0.00000000000E+00 -0.45593999997E+02  0.45594000000E+02  0.51100000000E-03 0.  1.
         23    2    1    2    0    0 -0.35527136788E-14  0.00000000000E+00  0.00000000000E+00  0.91188000000E+02  0.91188000000E+02 0.  0.
    9900012    2    3    3    0    0  0.12787853247E+02 -0.16166902758E+02  0.38193265085E+02  0.47787269208E+02  0.19999991627E+02 0.  0.
        -12    1    3    3    0    0 -0.12787853247E+02  0.16166902758E+02 -0.38193265085E+02  0.43400730792E+02  0.00000000000E+00 0.  1.
         11    1    4    4    0    0  0.11272573540E+02 -0.73680968466E+01  0.27043244773E+02  0.30210873100E+02  0.51100000000E-03 0. -1.
        -11    1    4    4    0    0 -0.32976084034E+01 -0.24424562281E+01  0.30353256811E+00  0.41148445765E+01  0.51100000000E-03 0.  1.
        -12    1    4    4    0    0  0.48128881105E+01 -0.63563496830E+01  0.10846487744E+02  0.13461551532E+02  0.00000000000E+00 0.  1.
</event>
<event>
 8    1  0.6469014E-010  0.9118800E+02  0.7816164E-02  0.1184000E+00
        -11   -1    0    0    0    0  0.00000000000E+00  0.00000000000E+00  0.45593999997E+02  0.45594000000E+02  0.51100000000E-03 0. -1.
         11   -1    0    0    0    0 -0.00000000000E+00 -0.00000000000E+00 -0.45593999997E+02  0.45594000000E+02  0.51100000000E-03 0.  1.
         23    2    1    2    0    0  0.88817841970E-15  0.71054273576E-14 -0.35527136788E-14  0.91188000000E+02  0.91188000000E+02 0.  0.
    9900012    2    3    3    0    0 -0.54806028762E+01  0.31326422455E+02 -0.29533731439E+02  0.47787273688E+02  0.20000012054E+02 0.  0.
         12    1    3    3    0    0  0.54806028762E+01 -0.31326422455E+02  0.29533731439E+02  0.43400726312E+02  0.00000000000E+00 0. -1.
         11    1    4    4    0    0 -0.11875756131E+02  0.16735556094E+02 -0.14743920655E+02  0.25268470828E+02  0.51100000000E-03 0. -1.
        -11    1    4    4    0    0  0.62787735997E+01  0.14963458070E+02 -0.14980013043E+02  0.22084584360E+02  0.51100000000E-03 0.  1.
         12    1    4    4    0    0  0.11637965464E+00 -0.37259170936E+00  0.19020225975E+00  0.43421849973E+00  0.00000000000E+00 0. -1.
</event>
<event>
 8    1  0.6469014E-010  0.9118800E+02  0.7816164E-02  0.1184000E+00
        -11   -1    0    0    0    0  0.00000000000E+00  0.00000000000E+00  0.45593999997E+02  0.45594000000E+02  0.51100000000E-03 0. -1.
         11   -1    0    0    0    0 -0.00000000000E+00 -0.00000000000E+00 -0.45593999997E+02  0.45594000000E+02  0.51100000000E-03 0.  1.
         23    2    1    2    0    0  0.00000000000E+00  0.00000000000E+00  0.00000000000E+00  0.91188000000E+02  0.91188000000E+02 0.  0.
    9900012    2    3    3    0    0  0.17644522799E+02  0.32683382312E+01  0.39517248357E+02  0.47787261098E+02  0.19999954648E+02 0.  0.
        -12    1    3    3    0    0 -0.17644522799E+02 -0.32683382312E+01 -0.39517248357E+02  0.43400738902E+02  0.00000000000E+00 0.  1.
         11    1    4    4    0    0  0.22910431222E+01  0.36318617893E+01  0.88024597744E+01  0.97940082186E+01  0.51100000000E-03 0. -1.
        -11    1    4    4    0    0  0.17675121520E+00  0.20099934702E+01 -0.13576125983E+01  0.24319594919E+01  0.51100000000E-03 0.  1.
        -12    1    4    4    0    0  0.15176728461E+02 -0.23735170283E+01  0.32072401181E+02  0.35561293387E+02  0.00000000000E+00 0.  1.
</event>
<event>
 8    1  0.6469014E-010  0.9118800E+02  0.7816164E-02  0.1184000E+00
        -11   -1    0    0    0    0  0.00000000000E+00  0.00000000000E+00  0.45593999997E+02  0.45594000000E+02  0.51100000000E-03 0. -1.
         11   -1    0    0    0    0 -0.00000000000E+00 -0.00000000000E+00 -0.45593999997E+02  0.45594000000E+02  0.51100000000E-03 0.  1.
         23    2    1    2    0    0  0.00000000000E+00 -0.88817841970E-15  0.00000000000E+00  0.91188000000E+02  0.91188000000E+02 0.  0.
    9900012    2    3    3    0    0 -0.21217601248E+02 -0.61889096185E+01 -0.37351477877E+02  0.47787284516E+02  0.20000061420E+02 0.  0.
         12    1    3    3    0    0  0.21217601248E+02  0.61889096185E+01  0.37351477877E+02  0.43400715484E+02  0.00000000000E+00 0. -1.
         11    1    4    4    0    0 -0.81208043868E+00  0.22104234353E+01 -0.41129984574E+00  0.23905259310E+01  0.51100000000E-03 0. -1.
        -11    1    4    4    0    0 -0.85525395234E+01 -0.34903326639E+01 -0.28697908544E+02  0.30147940385E+02  0.51100000000E-03 0.  1.
        -12    1    4    4    0    0 -0.11852981286E+02 -0.49090003900E+01 -0.82422694873E+01  0.15248818200E+02  0.00000000000E+00 0.  1.
</event>
<event>
 8    1  0.6469014E-010  0.9118800E+02  0.7816164E-02  0.1184000E+00
        -11   -1    0    0    0    0  0.00000000000E+00  0.00000000000E+00  0.45593999997E+02  0.45594000000E+02  0.51100000000E-03 0. -1.
         11   -1    0    0    0    0 -0.00000000000E+00 -0.00000000000E+00 -0.45593999997E+02  0.45594000000E+02  0.51100000000E-03 0.  1.
         23    2    1    2    0    0 -0.17763568394E-14 -0.88817841970E-15 -0.71054273576E-14  0.91188000000E+02  0.91188000000E+02 0.  0.
    9900012    2    3    3    0    0 -0.13156259840E+02 -0.53833765986E+01 -0.41006773661E+02  0.47787269560E+02  0.19999993234E+02 0.  0.
         12    1    3    3    0    0  0.13156259840E+02  0.53833765986E+01  0.41006773661E+02  0.43400730440E+02  0.00000000000E+00 0. -1.
         11    1    4    4    0    0 -0.12539434317E+02  0.67291201417E+00 -0.12259840755E+02  0.17549755530E+02  0.51100000000E-03 0. -1.
        -11    1    4    4    0    0  0.38138474598E+00 -0.60803074815E+01 -0.28583732788E+02  0.29225765580E+02  0.51100000000E-03 0.  1.
        -12    1    4    4    0    0 -0.99821026914E+00  0.24018868817E-01 -0.16320011857E+00  0.10117484501E+01  0.00000000000E+00 0.  1.
</event>
<event>
 8    1  0.6469014E-010  0.9118800E+02  0.7816164E-02  0.1184000E+00
        -11   -1    0    0    0    0  0.00000000000E+00  0.00000000000E+00  0.45593999997E+02  0.45594000000E+02  0.51100000000E-03 0. -1.
         11   -1    0    0    0    0 -0.00000000000E+00 -0.00000000000E+00 -0.45593999997E+02  0.45594000000E+02  0.51100000000E-03 0.  1.
         23    2    1    2    0    0  0.00000000000E+00  0.00000000000E+00  0.00000000000E+00  0.91188000000E+02  0.91188000000E+02 0.  0.
    9900012    2    3    3    0    0 -0.10615344089E+02  0.40909021154E+02  0.98686205851E+01  0.47787271732E+02  0.20000003136E+02 0.  0.
        -12    1    3    3    0    0  0.10615344089E+02 -0.40909021154E+02 -0.98686205851E+01  0.43400728268E+02  0.00000000000E+00 0.  1.
         11    1    4    4    0    0 -0.10654747623E+02  0.30713181025E+02  0.71392570189E+01  0.33283511333E+02  0.51100000000E-03 0. -1.
        -11    1    4    4    0    0  0.98397549299E+00  0.21244235130E+01  0.54518911710E+01  0.59333380685E+01  0.51100000000E-03 0.  1.
         12    1    4    4    0    0 -0.94457195912E+00  0.80714166158E+01 -0.27225276048E+01  0.85704223310E+01  0.00000000000E+00 0. -1.
</event>
<event>
 8    1  0.6469014E-010  0.9118800E+02  0.7816164E-02  0.1184000E+00
        -11   -1    0    0    0    0  0.00000000000E+00  0.00000000000E+00  0.45593999997E+02  0.45594000000E+02  0.51100000000E-03 0. -1.
         11   -1    0    0    0    0 -0.00000000000E+00 -0.00000000000E+00 -0.45593999997E+02  0.45594000000E+02  0.51100000000E-03 0.  1.
         23    2    1    2    0    0 -0.35527136788E-14 -0.44408920985E-15  0.00000000000E+00  0.91188000000E+02  0.91188000000E+02 0.  0.
    9900012    2    3    3    0    0 -0.26212541221E+02 -0.86349766923E+00  0.34580058863E+02  0.47787269401E+02  0.19999992508E+02 0.  0.
        -12    1    3    3    0    0  0.26212541221E+02  0.86349766923E+00 -0.34580058863E+02  0.43400730599E+02  0.00000000000E+00 0.  1.
         11    1    4    4    0    0 -0.79978968454E+01 -0.15355409167E+01  0.94892302330E+01  0.12504788304E+02  0.51100000000E-03 0. -1.
        -11    1    4    4    0    0 -0.16683264479E+02 -0.56706143095E+01  0.21622640513E+02  0.27893113188E+02  0.51100000000E-03 0.  1.
        -12    1    4    4    0    0 -0.15313798969E+01  0.63426575570E+01  0.34681881179E+01  0.73893679090E+01  0.00000000000E+00 0.  1.
</event>
<event>
 8    1  0.6469014E-010  0.9118800E+02  0.7816164E-02  0.1184000E+00
        -11   -1    0    0    0    0  0.00000000000E+00  0.00000000000E+00  0.45593999997E+02  0.45594000000E+02  0.51100000000E-03 0. -1.
         11   -1    0    0    0    0 -0.00000000000E+00 -0.00000000000E+00 -0.45593999997E+02  0.45594000000E+02  0.51100000000E-03 0.  1.
         23    2    1    2    0    0  0.00000000000E+00  0.00000000000E+00  0.00000000000E+00  0.91188000000E+02  0.91188000000E+02 0.  0.
    9900012    2    3    3    0    0  0.62893613065E+01  0.39661352222E+02  0.16463419037E+02  0.47787273138E+02  0.20000009546E+02 0.  0.
        -12    1    3    3    0    0 -0.62893613065E+01 -0.39661352222E+02 -0.16463419037E+02  0.43400726862E+02  0.00000000000E+00 0.  1.
         11    1    4    4    0    0  0.55530740311E+01  0.91023650142E+01  0.91330088973E+01  0.14039285303E+02  0.51100000000E-03 0. -1.
        -11    1    4    4    0    0  0.30525077629E+01  0.27179736030E+02  0.25755478554E+01  0.27471609005E+02  0.51100000000E-03 0.  1.
        -12    1    4    4    0    0 -0.23162204875E+01  0.33792511777E+01  0.47548622845E+01  0.62763788296E+01  0.00000000000E+00 0.  1.
</event>
<event>
 8    1  0.6469014E-010  0.9118800E+02  0.7816164E-02  0.1184000E+00
        -11   -1    0    0    0    0  0.00000000000E+00  0.00000000000E+00  0.45593999997E+02  0.45594000000E+02  0.51100000000E-03 0.  1.
         11   -1    0    0    0    0 -0.00000000000E+00 -0.00000000000E+00 -0.45593999997E+02  0.45594000000E+02  0.51100000000E-03 0. -1.
         23    2    1    2    0    0  0.00000000000E+00  0.00000000000E+00  0.44408920985E-15  0.91188000000E+02  0.91188000000E+02 0.  0.
    9900012    2    3    3    0    0  0.14233011533E+02 -0.40936132483E+02  0.22972563309E+01  0.47787274815E+02  0.20000017191E+02 0.  0.
         12    1    3    3    0    0 -0.14233011533E+02  0.40936132483E+02 -0.22972563309E+01  0.43400725185E+02  0.00000000000E+00 0. -1.
         11    1    4    4    0    0  0.32281146778E+01 -0.10232894978E+02  0.58359012452E+01  0.12214360712E+02  0.51100000000E-03 0. -1.
        -11    1    4    4    0    0  0.80643503709E+01 -0.27878280236E+02 -0.74077854651E+01  0.29951753564E+02  0.51100000000E-03 0.  1.
        -12    1    4    4    0    0  0.29405464848E+01 -0.28249572691E+01  0.38691405508E+01  0.56211605388E+01  0.00000000000E+00 0.  1.
</event>
<event>
 8    1  0.6469014E-010  0.9118800E+02  0.7816164E-02  0.1184000E+00
        -11   -1    0    0    0    0  0.00000000000E+00  0.00000000000E+00  0.45593999997E+02  0.45594000000E+02  0.51100000000E-03 0. -1.
         11   -1    0    0    0    0 -0.00000000000E+00 -0.00000000000E+00 -0.45593999997E+02  0.45594000000E+02  0.51100000000E-03 0.  1.
         23    2    1    2    0    0  0.00000000000E+00  0.00000000000E+00  0.00000000000E+00  0.91188000000E+02  0.91188000000E+02 0.  0.
    9900012    2    3    3    0    0 -0.89082164862E+00  0.24318393641E+02  0.35936687544E+02  0.47787270236E+02  0.19999996313E+02 0.  0.
        -12    1    3    3    0    0  0.89082164862E+00 -0.24318393641E+02 -0.35936687544E+02  0.43400729764E+02  0.00000000000E+00 0.  1.
         11    1    4    4    0    0  0.29179905064E+01  0.93390646124E+01  0.13453443549E+02  0.16635141719E+02  0.51100000000E-03 0. -1.
        -11    1    4    4    0    0 -0.32692653867E+01  0.32597234800E+01  0.18016425055E+02  0.18598533957E+02  0.51100000000E-03 0.  1.
        -12    1    4    4    0    0 -0.53954676833E+00  0.11719605548E+02  0.44668189396E+01  0.12553594559E+02  0.00000000000E+00 0.  1.
</event>
<event>
 8    1  0.6469014E-010  0.9118800E+02  0.7816164E-02  0.1184000E+00
        -11   -1    0    0    0    0  0.00000000000E+00  0.00000000000E+00  0.45593999997E+02  0.45594000000E+02  0.51100000000E-03 0. -1.
         11   -1    0    0    0    0 -0.00000000000E+00 -0.00000000000E+00 -0.45593999997E+02  0.45594000000E+02  0.51100000000E-03 0.  1.
         23    2    1    2    0    0  0.00000000000E+00 -0.35527136788E-14  0.00000000000E+00  0.91188000000E+02  0.91188000000E+02 0.  0.
    9900012    2    3    3    0    0 -0.21237337185E+02  0.31847479351E+02 -0.20453292127E+02  0.47787267396E+02  0.19999983366E+02 0.  0.
         12    1    3    3    0    0  0.21237337185E+02 -0.31847479351E+02  0.20453292127E+02  0.43400732604E+02  0.00000000000E+00 0. -1.
         11    1    4    4    0    0 -0.92820666068E+01  0.14250146905E+02 -0.42522802562E+01  0.17530126495E+02  0.51100000000E-03 0. -1.
        -11    1    4    4    0    0  0.67865824784E+00  0.73885483208E+01 -0.10871584086E+02  0.13162164112E+02  0.51100000000E-03 0.  1.
        -12    1    4    4    0    0 -0.12633928827E+02  0.10208784125E+02 -0.53294277847E+01  0.17094976789E+02  0.00000000000E+00 0.  1.
</event>
<event>
 8    1  0.6469014E-010  0.9118800E+02  0.7816164E-02  0.1184000E+00
        -11   -1    0    0    0    0  0.00000000000E+00  0.00000000000E+00  0.45593999997E+02  0.45594000000E+02  0.51100000000E-03 0. -1.
         11   -1    0    0    0    0 -0.00000000000E+00 -0.00000000000E+00 -0.45593999997E+02  0.45594000000E+02  0.51100000000E-03 0.  1.
         23    2    1    2    0    0  0.35527136788E-14  0.35527136788E-14  0.00000000000E+00  0.91188000000E+02  0.91188000000E+02 0.  0.
    9900012    2    3    3    0    0 -0.17808877961E+02  0.24636668729E+02  0.30975822974E+02  0.47787272020E+02  0.20000004446E+02 0.  0.
        -12    1    3    3    0    0  0.17808877961E+02 -0.24636668729E+02 -0.30975822974E+02  0.43400727980E+02  0.00000000000E+00 0.  1.
         11    1    4    4    0    0  0.17701423219E+01  0.44901168439E+01  0.61318257687E-01  0.48268326366E+01  0.51100000000E-03 0. -1.
        -11    1    4    4    0    0 -0.18492293939E+02  0.19757365851E+02  0.24697582264E+02  0.36637262595E+02  0.51100000000E-03 0.  1.
        -12    1    4    4    0    0 -0.10867263448E+01  0.38918603417E+00  0.62169224521E+01  0.63231767881E+01  0.00000000000E+00 0.  1.
</event>
<event>
 8    1  0.6469014E-010  0.9118800E+02  0.7816164E-02  0.1184000E+00
        -11   -1    0    0    0    0  0.00000000000E+00  0.00000000000E+00  0.45593999997E+02  0.45594000000E+02  0.51100000000E-03 0. -1.
         11   -1    0    0    0    0 -0.00000000000E+00 -0.00000000000E+00 -0.45593999997E+02  0.45594000000E+02  0.51100000000E-03 0.  1.
         23    2    1    2    0    0  0.00000000000E+00  0.00000000000E+00 -0.35527136788E-14  0.91188000000E+02  0.91188000000E+02 0.  0.
    9900012    2    3    3    0    0  0.22996962086E+02  0.24059456213E+02  0.27855041517E+02  0.47787296822E+02  0.20000117529E+02 0.  0.
        -12    1    3    3    0    0 -0.22996962086E+02 -0.24059456213E+02 -0.27855041517E+02  0.43400703178E+02  0.00000000000E+00 0.  1.
         11    1    4    4    0    0  0.28991702392E+01  0.70696485104E+01  0.66161530971E+01  0.10107353769E+02  0.51100000000E-03 0. -1.
        -11    1    4    4    0    0  0.18132786459E+02  0.10322292342E+02  0.22422684112E+02  0.30628816938E+02  0.51100000000E-03 0.  1.
        -12    1    4    4    0    0  0.19650053880E+01  0.66675153606E+01 -0.11837956920E+01  0.70511261156E+01  0.00000000000E+00 0.  1.
</event>
<event>
 8    1  0.6469014E-010  0.9118800E+02  0.7816164E-02  0.1184000E+00
        -11   -1    0    0    0    0  0.00000000000E+00  0.00000000000E+00  0.45593999997E+02  0.45594000000E+02  0.51100000000E-03 0. -1.
         11   -1    0    0    0    0 -0.00000000000E+00 -0.00000000000E+00 -0.45593999997E+02  0.45594000000E+02  0.51100000000E-03 0.  1.
         23    2    1    2    0    0  0.00000000000E+00 -0.35527136788E-14  0.00000000000E+00  0.91188000000E+02  0.91188000000E+02 0.  0.
    9900012    2    3    3    0    0  0.15730354974E+02  0.18691573360E+02  0.35872047129E+02  0.47787277108E+02  0.20000027648E+02 0.  0.
        -12    1    3    3    0    0 -0.15730354974E+02 -0.18691573360E+02 -0.35872047129E+02  0.43400722892E+02  0.00000000000E+00 0.  1.
         11    1    4    4    0    0  0.10826825937E+02  0.19289058086E+02  0.19168215687E+02  0.29269581729E+02  0.51100000000E-03 0. -1.
        -11    1    4    4    0    0 -0.67267282374E+00 -0.30101939117E+00  0.88524080960E+01  0.88830304942E+01  0.51100000000E-03 0.  1.
         12    1    4    4    0    0  0.55762018605E+01 -0.29646533472E+00  0.78514233461E+01  0.96346648849E+01  0.00000000000E+00 0. -1.
</event>
<event>
 8    1  0.6469014E-010  0.9118800E+02  0.7816164E-02  0.1184000E+00
        -11   -1    0    0    0    0  0.00000000000E+00  0.00000000000E+00  0.45593999997E+02  0.45594000000E+02  0.51100000000E-03 0. -1.
         11   -1    0    0    0    0 -0.00000000000E+00 -0.00000000000E+00 -0.45593999997E+02  0.45594000000E+02  0.51100000000E-03 0.  1.
         23    2    1    2    0    0 -0.17763568394E-14 -0.17763568394E-14  0.00000000000E+00  0.91188000000E+02  0.91188000000E+02 0.  0.
    9900012    2    3    3    0    0 -0.10146903515E+02 -0.91501958972E+01 -0.41193901090E+02  0.47787271631E+02  0.20000002675E+02 0.  0.
         12    1    3    3    0    0  0.10146903515E+02  0.91501958972E+01  0.41193901090E+02  0.43400728369E+02  0.00000000000E+00 0. -1.
         11    1    4    4    0    0 -0.49807923929E+00 -0.45523282227E+01  0.35916283833E+00  0.45935578130E+01  0.51100000000E-03 0. -1.
        -11    1    4    4    0    0 -0.63510509738E+00  0.99726172142E+00 -0.41112066571E+01  0.42778393921E+01  0.51100000000E-03 0.  1.
         12    1    4    4    0    0 -0.90137191786E+01 -0.55951293959E+01 -0.37441857272E+02  0.38915874426E+02  0.00000000000E+00 0. -1.
</event>
<event>
 8    1  0.6469014E-010  0.9118800E+02  0.7816164E-02  0.1184000E+00
        -11   -1    0    0    0    0  0.00000000000E+00  0.00000000000E+00  0.45593999997E+02  0.45594000000E+02  0.51100000000E-03 0. -1.
         11   -1    0    0    0    0 -0.00000000000E+00 -0.00000000000E+00 -0.45593999997E+02  0.45594000000E+02  0.51100000000E-03 0.  1.
         23    2    1    2    0    0  0.88817841970E-15  0.00000000000E+00  0.00000000000E+00  0.91188000000E+02  0.91188000000E+02 0.  0.
    9900012    2    3    3    0    0 -0.61041350853E+01 -0.93352917023E+01  0.41942996303E+02  0.47787273334E+02  0.20000010438E+02 0.  0.
        -12    1    3    3    0    0  0.61041350853E+01  0.93352917023E+01 -0.41942996303E+02  0.43400726666E+02  0.00000000000E+00 0.  1.
         11    1    4    4    0    0 -0.71957927972E+01  0.66167823984E+00  0.16141869494E+02  0.17685508279E+02  0.51100000000E-03 0. -1.
        -11    1    4    4    0    0  0.29284356250E+01 -0.44684759322E+01  0.21755478825E+01  0.57685371817E+01  0.51100000000E-03 0.  1.
         12    1    4    4    0    0 -0.18367779131E+01 -0.55284940100E+01  0.23625578926E+02  0.24333227873E+02  0.00000000000E+00 0. -1.
</event>
<event>
 8    1  0.6469014E-010  0.9118800E+02  0.7816164E-02  0.1184000E+00
        -11   -1    0    0    0    0  0.00000000000E+00  0.00000000000E+00  0.45593999997E+02  0.45594000000E+02  0.51100000000E-03 0. -1.
         11   -1    0    0    0    0 -0.00000000000E+00 -0.00000000000E+00 -0.45593999997E+02  0.45594000000E+02  0.51100000000E-03 0.  1.
         23    2    1    2    0    0  0.71054273576E-14  0.11102230246E-15 -0.35527136788E-14  0.91188000000E+02  0.91188000000E+02 0.  0.
    9900012    2    3    3    0    0  0.39639011733E+02 -0.51344788496E+00 -0.17666626771E+02  0.47787255981E+02  0.19999931321E+02 0.  0.
         12    1    3    3    0    0 -0.39639011733E+02  0.51344788496E+00  0.17666626771E+02  0.43400744019E+02  0.00000000000E+00 0. -1.
         11    1    4    4    0    0  0.15873227163E+01 -0.52919073161E+01 -0.79478636674E+00  0.55817167680E+01  0.51100000000E-03 0. -1.
        -11    1    4    4    0    0  0.26738862342E+02  0.55025031999E+01 -0.12902820867E+02  0.30194818883E+02  0.51100000000E-03 0.  1.
         12    1    4    4    0    0  0.11312826675E+02 -0.72404376876E+00 -0.39690195381E+01  0.12010720330E+02  0.00000000000E+00 0. -1.
</event>
<event>
 8    1  0.6469014E-010  0.9118800E+02  0.7816164E-02  0.1184000E+00
        -11   -1    0    0    0    0  0.00000000000E+00  0.00000000000E+00  0.45593999997E+02  0.45594000000E+02  0.51100000000E-03 0. -1.
         11   -1    0    0    0    0 -0.00000000000E+00 -0.00000000000E+00 -0.45593999997E+02  0.45594000000E+02  0.51100000000E-03 0.  1.
         23    2    1    2    0    0  0.00000000000E+00  0.17763568394E-14  0.35527136788E-14  0.91188000000E+02  0.91188000000E+02 0.  0.
    9900012    2    3    3    0    0 -0.38529708086E+02  0.14146976031E+02  0.14104911206E+02  0.47787264336E+02  0.19999969415E+02 0.  0.
        -12    1    3    3    0    0  0.38529708086E+02 -0.14146976031E+02 -0.14104911206E+02  0.43400735664E+02  0.00000000000E+00 0.  1.
         11    1    4    4    0    0 -0.20836085198E+02  0.56128211987E+01  0.17477033556E+02  0.27768559746E+02  0.51100000000E-03 0. -1.
        -11    1    4    4    0    0 -0.87511817336E+01  0.45921112898E+01 -0.81187282531E+00  0.99161386425E+01  0.51100000000E-03 0.  1.
         12    1    4    4    0    0 -0.89424411545E+01  0.39420435429E+01 -0.25602495253E+01  0.10102565948E+02  0.00000000000E+00 0. -1.
</event>
<event>
 8    1  0.6469014E-010  0.9118800E+02  0.7816164E-02  0.1184000E+00
        -11   -1    0    0    0    0  0.00000000000E+00  0.00000000000E+00  0.45593999997E+02  0.45594000000E+02  0.51100000000E-03 0. -1.
         11   -1    0    0    0    0 -0.00000000000E+00 -0.00000000000E+00 -0.45593999997E+02  0.45594000000E+02  0.51100000000E-03 0.  1.
         23    2    1    2    0    0  0.00000000000E+00  0.35527136788E-14  0.35527136788E-14  0.91188000000E+02  0.91188000000E+02 0.  0.
    9900012    2    3    3    0    0  0.28432571811E+02 -0.26498497268E+02  0.19314294659E+02  0.47787268722E+02  0.19999989411E+02 0.  0.
        -12    1    3    3    0    0 -0.28432571811E+02  0.26498497268E+02 -0.19314294659E+02  0.43400731278E+02  0.00000000000E+00 0.  1.
         11    1    4    4    0    0  0.55302550809E+01 -0.92617096117E+00 -0.29119986151E+01  0.63183265272E+01  0.51100000000E-03 0. -1.
        -11    1    4    4    0    0  0.12403328631E+01 -0.48467546475E+01  0.26232474941E+01  0.56489719331E+01  0.51100000000E-03 0.  1.
         12    1    4    4    0    0  0.21661983867E+02 -0.20725571660E+02  0.19603045780E+02  0.35819970262E+02  0.00000000000E+00 0. -1.
</event>
<event>
 8    1  0.6469014E-010  0.9118800E+02  0.7816164E-02  0.1184000E+00
        -11   -1    0    0    0    0  0.00000000000E+00  0.00000000000E+00  0.45593999997E+02  0.45594000000E+02  0.51100000000E-03 0. -1.
         11   -1    0    0    0    0 -0.00000000000E+00 -0.00000000000E+00 -0.45593999997E+02  0.45594000000E+02  0.51100000000E-03 0.  1.
         23    2    1    2    0    0  0.35527136788E-14  0.00000000000E+00  0.00000000000E+00  0.91188000000E+02  0.91188000000E+02 0.  0.
    9900012    2    3    3    0    0 -0.23766000823E+02 -0.31771528160E+02  0.17588932168E+02  0.47787270380E+02  0.19999996970E+02 0.  0.
        -12    1    3    3    0    0  0.23766000823E+02  0.31771528160E+02 -0.17588932168E+02  0.43400729620E+02  0.00000000000E+00 0.  1.
         11    1    4    4    0    0 -0.55920960891E+01 -0.43106065250E+01  0.22483019476E+01  0.74099749792E+01  0.51100000000E-03 0. -1.
        -11    1    4    4    0    0 -0.16854136369E+02 -0.10002361206E+02  0.58035612991E+01  0.20439923347E+02  0.51100000000E-03 0.  1.
        -12    1    4    4    0    0 -0.13197683656E+01 -0.17458560429E+02  0.95370689214E+01  0.19937372054E+02  0.00000000000E+00 0.  1.
</event>
<event>
 8    1  0.6469014E-010  0.9118800E+02  0.7816164E-02  0.1184000E+00
        -11   -1    0    0    0    0  0.00000000000E+00  0.00000000000E+00  0.45593999997E+02  0.45594000000E+02  0.51100000000E-03 0. -1.
         11   -1    0    0    0    0 -0.00000000000E+00 -0.00000000000E+00 -0.45593999997E+02  0.45594000000E+02  0.51100000000E-03 0.  1.
         23    2    1    2    0    0  0.17763568394E-14  0.00000000000E+00  0.00000000000E+00  0.91188000000E+02  0.91188000000E+02 0.  0.
    9900012    2    3    3    0    0 -0.52730874616E+01  0.10319660936E+02  0.41824902153E+02  0.47787270821E+02  0.19999998980E+02 0.  0.
        -12    1    3    3    0    0  0.52730874616E+01 -0.10319660936E+02 -0.41824902153E+02  0.43400729179E+02  0.00000000000E+00 0.  1.
         11    1    4    4    0    0  0.31111477799E+01  0.10101210770E+02  0.19304569081E+02  0.22008636649E+02  0.51100000000E-03 0. -1.
        -11    1    4    4    0    0 -0.65403004614E+01  0.33197544083E+01  0.20196205444E+02  0.21486810234E+02  0.51100000000E-03 0.  1.
         12    1    4    4    0    0 -0.18439347801E+01 -0.31013042420E+01  0.23241276284E+01  0.42918239372E+01  0.00000000000E+00 0. -1.
</event>
<event>
 8    1  0.6469014E-010  0.9118800E+02  0.7816164E-02  0.1184000E+00
        -11   -1    0    0    0    0  0.00000000000E+00  0.00000000000E+00  0.45593999997E+02  0.45594000000E+02  0.51100000000E-03 0. -1.
         11   -1    0    0    0    0 -0.00000000000E+00 -0.00000000000E+00 -0.45593999997E+02  0.45594000000E+02  0.51100000000E-03 0.  1.
         23    2    1    2    0    0  0.00000000000E+00  0.00000000000E+00  0.71054273576E-14  0.91188000000E+02  0.91188000000E+02 0.  0.
    9900012    2    3    3    0    0 -0.31556769146E+01  0.18437761282E+02  0.39162656223E+02  0.47787274427E+02  0.20000015421E+02 0.  0.
        -12    1    3    3    0    0  0.31556769146E+01 -0.18437761282E+02 -0.39162656223E+02  0.43400725573E+02  0.00000000000E+00 0.  1.
         11    1    4    4    0    0 -0.38094581229E+01  0.61136671100E+01  0.12901761193E+01  0.73180223696E+01  0.51100000000E-03 0. -1.
        -11    1    4    4    0    0  0.15294464800E+01  0.91992815129E+01  0.17402974647E+02  0.19744100732E+02  0.51100000000E-03 0.  1.
         12    1    4    4    0    0 -0.87566527167E+00  0.31248126594E+01  0.20469505456E+02  0.20725151325E+02  0.00000000000E+00 0. -1.
</event>
<event>
 8    1  0.6469014E-010  0.9118800E+02  0.7816164E-02  0.1184000E+00
        -11   -1    0    0    0    0  0.00000000000E+00  0.00000000000E+00  0.45593999997E+02  0.45594000000E+02  0.51100000000E-03 0.  1.
         11   -1    0    0    0    0 -0.00000000000E+00 -0.00000000000E+00 -0.45593999997E+02  0.45594000000E+02  0.51100000000E-03 0. -1.
         23    2    1    2    0    0  0.00000000000E+00  0.00000000000E+00  0.88817841970E-15  0.91188000000E+02  0.91188000000E+02 0.  0.
    9900012    2    3    3    0    0  0.39012450259E+02 -0.17988802220E+02  0.61688875696E+01  0.47787268965E+02  0.19999990518E+02 0.  0.
        -12    1    3    3    0    0 -0.39012450259E+02  0.17988802220E+02 -0.61688875696E+01  0.43400731035E+02  0.00000000000E+00 0.  1.
         11    1    4    4    0    0  0.17135772200E+02 -0.89130035424E+01  0.18248579844E+00  0.19316045723E+02  0.51100000000E-03 0. -1.
        -11    1    4    4    0    0  0.13760287510E+01 -0.70694642952E+01  0.93757536424E+00  0.72629077076E+01  0.51100000000E-03 0.  1.
        -12    1    4    4    0    0  0.20500649308E+02 -0.20063343824E+01  0.50488264069E+01  0.21208315534E+02  0.00000000000E+00 0.  1.
</event>
<event>
 8    1  0.6469014E-010  0.9118800E+02  0.7816164E-02  0.1184000E+00
        -11   -1    0    0    0    0  0.00000000000E+00  0.00000000000E+00  0.45593999997E+02  0.45594000000E+02  0.51100000000E-03 0. -1.
         11   -1    0    0    0    0 -0.00000000000E+00 -0.00000000000E+00 -0.45593999997E+02  0.45594000000E+02  0.51100000000E-03 0.  1.
         23    2    1    2    0    0  0.35527136788E-14  0.00000000000E+00  0.00000000000E+00  0.91188000000E+02  0.91188000000E+02 0.  0.
    9900012    2    3    3    0    0 -0.22280102900E+02 -0.12053052185E+02 -0.35241239340E+02  0.47787262652E+02  0.19999961734E+02 0.  0.
         12    1    3    3    0    0  0.22280102900E+02  0.12053052185E+02  0.35241239340E+02  0.43400737348E+02  0.00000000000E+00 0. -1.
         11    1    4    4    0    0 -0.89647319974E+01  0.42640727637E+01 -0.55170419437E+01  0.11357221861E+02  0.51100000000E-03 0. -1.
        -11    1    4    4    0    0 -0.83612242380E+01 -0.10450713783E+02 -0.18895244728E+02  0.23155080715E+02  0.51100000000E-03 0.  1.
         12    1    4    4    0    0 -0.49541466645E+01 -0.58664111654E+01 -0.10828952667E+02  0.13274960076E+02  0.00000000000E+00 0. -1.
</event>
<event>
 8    1  0.6469014E-010  0.9118800E+02  0.7816164E-02  0.1184000E+00
        -11   -1    0    0    0    0  0.00000000000E+00  0.00000000000E+00  0.45593999997E+02  0.45594000000E+02  0.51100000000E-03 0. -1.
         11   -1    0    0    0    0 -0.00000000000E+00 -0.00000000000E+00 -0.45593999997E+02  0.45594000000E+02  0.51100000000E-03 0.  1.
         23    2    1    2    0    0 -0.71054273576E-14  0.00000000000E+00 -0.17763568394E-14  0.91188000000E+02  0.91188000000E+02 0.  0.
    9900012    2    3    3    0    0  0.34218050711E+02  0.23694939409E+02  0.12300179913E+02  0.47787313670E+02  0.20000194344E+02 0.  0.
        -12    1    3    3    0    0 -0.34218050711E+02 -0.23694939409E+02 -0.12300179913E+02  0.43400686330E+02  0.00000000000E+00 0.  1.
         11    1    4    4    0    0  0.83057890875E+01  0.22450218842E+01  0.43976651447E+01  0.96625935759E+01  0.51100000000E-03 0. -1.
        -11    1    4    4    0    0  0.20934035205E+01 -0.22582609274E+01  0.27436564472E+01  0.41242855960E+01  0.51100000000E-03 0.  1.
        -12    1    4    4    0    0  0.23818858103E+02  0.23708178452E+02  0.51588583212E+01  0.34000434498E+02  0.00000000000E+00 0.  1.
</event>
<event>
 8    1  0.6469014E-010  0.9118800E+02  0.7816164E-02  0.1184000E+00
        -11   -1    0    0    0    0  0.00000000000E+00  0.00000000000E+00  0.45593999997E+02  0.45594000000E+02  0.51100000000E-03 0. -1.
         11   -1    0    0    0    0 -0.00000000000E+00 -0.00000000000E+00 -0.45593999997E+02  0.45594000000E+02  0.51100000000E-03 0.  1.
         23    2    1    2    0    0  0.17763568394E-14  0.00000000000E+00  0.00000000000E+00  0.91188000000E+02  0.91188000000E+02 0.  0.
    9900012    2    3    3    0    0  0.11892238695E+02 -0.17875948520E+02 -0.37718014021E+02  0.47787268920E+02  0.19999990312E+02 0.  0.
         12    1    3    3    0    0 -0.11892238695E+02  0.17875948520E+02  0.37718014021E+02  0.43400731080E+02  0.00000000000E+00 0. -1.
         11    1    4    4    0    0  0.53641143926E+01 -0.50689008476E+00 -0.18293551650E+01  0.56900967791E+01  0.51100000000E-03 0. -1.
        -11    1    4    4    0    0  0.29060817953E+01 -0.16623745382E+02 -0.22014433207E+02  0.27738592099E+02  0.51100000000E-03 0.  1.
        -12    1    4    4    0    0  0.36220425067E+01 -0.74531305296E+00 -0.13874225648E+02  0.14358580041E+02  0.00000000000E+00 0.  1.
</event>
<event>
 8    1  0.6469014E-010  0.9118800E+02  0.7816164E-02  0.1184000E+00
        -11   -1    0    0    0    0  0.00000000000E+00  0.00000000000E+00  0.45593999997E+02  0.45594000000E+02  0.51100000000E-03 0.  1.
         11   -1    0    0    0    0 -0.00000000000E+00 -0.00000000000E+00 -0.45593999997E+02  0.45594000000E+02  0.51100000000E-03 0. -1.
         23    2    1    2    0    0 -0.35527136788E-14  0.35527136788E-14  0.00000000000E+00  0.91188000000E+02  0.91188000000E+02 0.  0.
    9900012    2    3    3    0    0 -0.18395947033E+02  0.26134164558E+02 -0.29363540139E+02  0.47787275192E+02  0.20000018909E+02 0.  0.
         12    1    3    3    0    0  0.18395947033E+02 -0.26134164558E+02  0.29363540139E+02  0.43400724808E+02  0.00000000000E+00 0. -1.
         11    1    4    4    0    0 -0.37471703567E+01  0.19398034911E+02 -0.11370074927E+02  0.22794816257E+02  0.51100000000E-03 0. -1.
        -11    1    4    4    0    0 -0.55258390147E+01  0.51978557435E+01 -0.51722156691E+01  0.91817436435E+01  0.51100000000E-03 0.  1.
         12    1    4    4    0    0 -0.91229376614E+01  0.15382739038E+01 -0.12821249543E+02  0.15810715291E+02  0.00000000000E+00 0. -1.
</event>
<event>
 8    1  0.6469014E-010  0.9118800E+02  0.7816164E-02  0.1184000E+00
        -11   -1    0    0    0    0  0.00000000000E+00  0.00000000000E+00  0.45593999997E+02  0.45594000000E+02  0.51100000000E-03 0.  1.
         11   -1    0    0    0    0 -0.00000000000E+00 -0.00000000000E+00 -0.45593999997E+02  0.45594000000E+02  0.51100000000E-03 0. -1.
         23    2    1    2    0    0  0.00000000000E+00 -0.35527136788E-14  0.00000000000E+00  0.91188000000E+02  0.91188000000E+02 0.  0.
    9900012    2    3    3    0    0  0.80985998424E+01  0.24934956521E+02  0.34587337671E+02  0.47787270706E+02  0.19999998456E+02 0.  0.
        -12    1    3    3    0    0 -0.80985998424E+01 -0.24934956521E+02 -0.34587337671E+02  0.43400729294E+02  0.00000000000E+00 0.  1.
         11    1    4    4    0    0 -0.17693710157E+01  0.37295348419E+00  0.12296829688E+01  0.21867529713E+01  0.51100000000E-03 0. -1.
        -11    1    4    4    0    0  0.33964142457E+01  0.14033486922E+02  0.61042699699E+01  0.15675984723E+02  0.51100000000E-03 0.  1.
        -12    1    4    4    0    0  0.64715566124E+01  0.10528516114E+02  0.27253384733E+02  0.29924533011E+02  0.00000000000E+00 0.  1.
</event>
<event>
 8    1  0.6469014E-010  0.9118800E+02  0.7816164E-02  0.1184000E+00
        -11   -1    0    0    0    0  0.00000000000E+00  0.00000000000E+00  0.45593999997E+02  0.45594000000E+02  0.51100000000E-03 0. -1.
         11   -1    0    0    0    0 -0.00000000000E+00 -0.00000000000E+00 -0.45593999997E+02  0.45594000000E+02  0.51100000000E-03 0.  1.
         23    2    1    2    0    0  0.00000000000E+00 -0.88817841970E-15  0.00000000000E+00  0.91188000000E+02  0.91188000000E+02 0.  0.
    9900012    2    3    3    0    0 -0.11379382537E+02  0.63605657547E+01  0.41396573516E+02  0.47787269102E+02  0.19999991142E+02 0.  0.
        -12    1    3    3    0    0  0.11379382537E+02 -0.63605657547E+01 -0.41396573516E+02  0.43400730898E+02  0.00000000000E+00 0.  1.
         11    1    4    4    0    0 -0.53096673904E+01  0.22448460688E+01  0.35311015075E+02  0.35778480788E+02  0.51100000000E-03 0. -1.
        -11    1    4    4    0    0  0.15504153341E+00  0.13863233954E+01  0.49184707022E+01  0.51124636667E+01  0.51100000000E-03 0.  1.
         12    1    4    4    0    0 -0.62247566802E+01  0.27293962905E+01  0.11670877392E+01  0.68963246464E+01  0.00000000000E+00 0. -1.
</event>
<event>
 8    1  0.6469014E-010  0.9118800E+02  0.7816164E-02  0.1184000E+00
        -11   -1    0    0    0    0  0.00000000000E+00  0.00000000000E+00  0.45593999997E+02  0.45594000000E+02  0.51100000000E-03 0. -1.
         11   -1    0    0    0    0 -0.00000000000E+00 -0.00000000000E+00 -0.45593999997E+02  0.45594000000E+02  0.51100000000E-03 0.  1.
         23    2    1    2    0    0  0.00000000000E+00 -0.71054273576E-14 -0.35527136788E-14  0.91188000000E+02  0.91188000000E+02 0.  0.
    9900012    2    3    3    0    0 -0.64160363423E+01  0.37887070501E+02  0.20174935443E+02  0.47787266669E+02  0.19999980053E+02 0.  0.
        -12    1    3    3    0    0  0.64160363423E+01 -0.37887070501E+02 -0.20174935443E+02  0.43400733331E+02  0.00000000000E+00 0.  1.
         11    1    4    4    0    0 -0.82901665715E+01  0.85426300250E+01  0.10604386681E+02  0.15942283609E+02  0.51100000000E-03 0. -1.
        -11    1    4    4    0    0  0.41737329848E+01  0.93975784957E+01  0.28350212546E+01  0.10666389942E+02  0.51100000000E-03 0.  1.
         12    1    4    4    0    0 -0.22996027556E+01  0.19946861980E+02  0.67355275082E+01  0.21178593119E+02  0.00000000000E+00 0. -1.
</event>
<event>
 8    1  0.6469014E-010  0.9118800E+02  0.7816164E-02  0.1184000E+00
        -11   -1    0    0    0    0  0.00000000000E+00  0.00000000000E+00  0.45593999997E+02  0.45594000000E+02  0.51100000000E-03 0. -1.
         11   -1    0    0    0    0 -0.00000000000E+00 -0.00000000000E+00 -0.45593999997E+02  0.45594000000E+02  0.51100000000E-03 0.  1.
         23    2    1    2    0    0  0.33306690739E-15  0.00000000000E+00  0.71054273576E-14  0.91188000000E+02  0.91188000000E+02 0.  0.
    9900012    2    3    3    0    0  0.89497970372E+00  0.37630186944E+01 -0.43228023402E+02  0.47787270679E+02  0.19999998332E+02 0.  0.
         12    1    3    3    0    0 -0.89497970372E+00 -0.37630186944E+01  0.43228023402E+02  0.43400729321E+02  0.00000000000E+00 0. -1.
         11    1    4    4    0    0  0.83617340010E+01  0.17656340772E+00 -0.28869388082E+02  0.30056469165E+02  0.51100000000E-03 0. -1.
        -11    1    4    4    0    0 -0.47675556842E+01  0.52316155272E+01 -0.83906992081E+01  0.10977395943E+02  0.51100000000E-03 0.  1.
         12    1    4    4    0    0 -0.26991986131E+01 -0.16451602405E+01 -0.59679361119E+01  0.67534055709E+01  0.00000000000E+00 0. -1.
</event>
<event>
 8    1  0.6469014E-010  0.9118800E+02  0.7816164E-02  0.1184000E+00
        -11   -1    0    0    0    0  0.00000000000E+00  0.00000000000E+00  0.45593999997E+02  0.45594000000E+02  0.51100000000E-03 0. -1.
         11   -1    0    0    0    0 -0.00000000000E+00 -0.00000000000E+00 -0.45593999997E+02  0.45594000000E+02  0.51100000000E-03 0.  1.
         23    2    1    2    0    0  0.00000000000E+00  0.00000000000E+00  0.00000000000E+00  0.91188000000E+02  0.91188000000E+02 0.  0.
    9900012    2    3    3    0    0  0.22655848405E+02 -0.13187827321E+02 -0.34589193830E+02  0.47787325049E+02  0.20000246228E+02 0.  0.
         12    1    3    3    0    0 -0.22655848405E+02  0.13187827321E+02  0.34589193830E+02  0.43400674951E+02  0.00000000000E+00 0. -1.
         11    1    4    4    0    0  0.14760886084E+02 -0.72369434230E+01 -0.69789330720E+01  0.17859524495E+02  0.51100000000E-03 0. -1.
        -11    1    4    4    0    0  0.73308341269E+01 -0.60376556335E+01 -0.18459678632E+02  0.20759435204E+02  0.51100000000E-03 0.  1.
         12    1    4    4    0    0  0.56412819357E+00  0.86771735605E-01 -0.91505821261E+01  0.91683653505E+01  0.00000000000E+00 0. -1.
</event>
<event>
 8    1  0.6469014E-010  0.9118800E+02  0.7816164E-02  0.1184000E+00
        -11   -1    0    0    0    0  0.00000000000E+00  0.00000000000E+00  0.45593999997E+02  0.45594000000E+02  0.51100000000E-03 0. -1.
         11   -1    0    0    0    0 -0.00000000000E+00 -0.00000000000E+00 -0.45593999997E+02  0.45594000000E+02  0.51100000000E-03 0.  1.
         23    2    1    2    0    0 -0.17763568394E-14  0.00000000000E+00  0.00000000000E+00  0.91188000000E+02  0.91188000000E+02 0.  0.
    9900012    2    3    3    0    0  0.11038915300E+02 -0.41531885970E+02 -0.60719070955E+01  0.47787271215E+02  0.20000000780E+02 0.  0.
         12    1    3    3    0    0 -0.11038915300E+02  0.41531885970E+02  0.60719070955E+01  0.43400728785E+02  0.00000000000E+00 0. -1.
         11    1    4    4    0    0 -0.19621768301E+01 -0.15849728390E+02 -0.39460385139E+01  0.16450995355E+02  0.51100000000E-03 0. -1.
        -11    1    4    4    0    0  0.12015082980E+02 -0.13372972801E+02  0.24978254109E+01  0.18150420177E+02  0.51100000000E-03 0.  1.
        -12    1    4    4    0    0  0.98600915030E+00 -0.12309184779E+02 -0.46236939925E+01  0.13185855683E+02  0.00000000000E+00 0.  1.
</event>
<event>
 8    1  0.6469014E-010  0.9118800E+02  0.7816164E-02  0.1184000E+00
        -11   -1    0    0    0    0  0.00000000000E+00  0.00000000000E+00  0.45593999997E+02  0.45594000000E+02  0.51100000000E-03 0. -1.
         11   -1    0    0    0    0 -0.00000000000E+00 -0.00000000000E+00 -0.45593999997E+02  0.45594000000E+02  0.51100000000E-03 0.  1.
         23    2    1    2    0    0  0.00000000000E+00 -0.35527136788E-14  0.00000000000E+00  0.91188000000E+02  0.91188000000E+02 0.  0.
    9900012    2    3    3    0    0  0.31461509203E+02  0.23876136803E+02 -0.17992415574E+02  0.47787268576E+02  0.19999988744E+02 0.  0.
         12    1    3    3    0    0 -0.31461509203E+02 -0.23876136803E+02  0.17992415574E+02  0.43400731424E+02  0.00000000000E+00 0. -1.
         11    1    4    4    0    0  0.17251893705E+02  0.91570384176E+01 -0.45909575514E+01  0.20063800250E+02  0.51100000000E-03 0. -1.
        -11    1    4    4    0    0 -0.11652602630E+01  0.17285776482E+01 -0.58755418087E+01  0.62344048612E+01  0.51100000000E-03 0.  1.
        -12    1    4    4    0    0  0.15374875762E+02  0.12990520737E+02 -0.75259162142E+01  0.21489063464E+02  0.00000000000E+00 0.  1.
</event>
<event>
 8    1  0.6469014E-010  0.9118800E+02  0.7816164E-02  0.1184000E+00
        -11   -1    0    0    0    0  0.00000000000E+00  0.00000000000E+00  0.45593999997E+02  0.45594000000E+02  0.51100000000E-03 0.  1.
         11   -1    0    0    0    0 -0.00000000000E+00 -0.00000000000E+00 -0.45593999997E+02  0.45594000000E+02  0.51100000000E-03 0. -1.
         23    2    1    2    0    0  0.00000000000E+00  0.00000000000E+00  0.00000000000E+00  0.91188000000E+02  0.91188000000E+02 0.  0.
    9900012    2    3    3    0    0  0.37461467670E+02  0.19174285840E+02 -0.10611708146E+02  0.47787272503E+02  0.20000006649E+02 0.  0.
         12    1    3    3    0    0 -0.37461467670E+02 -0.19174285840E+02  0.10611708146E+02  0.43400727497E+02  0.00000000000E+00 0. -1.
         11    1    4    4    0    0  0.32615117157E+02  0.75626945330E+01 -0.88953514278E+01  0.34641990316E+02  0.51100000000E-03 0. -1.
        -11    1    4    4    0    0  0.52624727791E+01  0.11398503903E+02 -0.15544242188E+01  0.12650523542E+02  0.51100000000E-03 0.  1.
         12    1    4    4    0    0 -0.41612226595E+00  0.21308740448E+00 -0.16193249975E+00  0.49475864484E+00  0.00000000000E+00 0. -1.
</event>
<event>
 8    1  0.6469014E-010  0.9118800E+02  0.7816164E-02  0.1184000E+00
        -11   -1    0    0    0    0  0.00000000000E+00  0.00000000000E+00  0.45593999997E+02  0.45594000000E+02  0.51100000000E-03 0. -1.
         11   -1    0    0    0    0 -0.00000000000E+00 -0.00000000000E+00 -0.45593999997E+02  0.45594000000E+02  0.51100000000E-03 0.  1.
         23    2    1    2    0    0 -0.71054273576E-14  0.17763568394E-14  0.00000000000E+00  0.91188000000E+02  0.91188000000E+02 0.  0.
    9900012    2    3    3    0    0  0.37093861677E+02 -0.12209586796E+02 -0.18936591094E+02  0.47787273438E+02  0.20000010915E+02 0.  0.
         12    1    3    3    0    0 -0.37093861677E+02  0.12209586796E+02  0.18936591094E+02  0.43400726562E+02  0.00000000000E+00 0. -1.
         11    1    4    4    0    0  0.78492472609E+01 -0.44698559798E+01 -0.46665802243E+00  0.90447810927E+01  0.51100000000E-03 0. -1.
        -11    1    4    4    0    0  0.85077339753E+01  0.31267479458E+01 -0.23459235593E+00  0.90671453030E+01  0.51100000000E-03 0.  1.
        -12    1    4    4    0    0  0.20736880441E+02 -0.10866478762E+02 -0.18235340715E+02  0.29675347043E+02  0.00000000000E+00 0.  1.
</event>
<event>
 8    1  0.6469014E-010  0.9118800E+02  0.7816164E-02  0.1184000E+00
        -11   -1    0    0    0    0  0.00000000000E+00  0.00000000000E+00  0.45593999997E+02  0.45594000000E+02  0.51100000000E-03 0. -1.
         11   -1    0    0    0    0 -0.00000000000E+00 -0.00000000000E+00 -0.45593999997E+02  0.45594000000E+02  0.51100000000E-03 0.  1.
         23    2    1    2    0    0  0.00000000000E+00  0.00000000000E+00  0.35527136788E-14  0.91188000000E+02  0.91188000000E+02 0.  0.
    9900012    2    3    3    0    0  0.25036530101E+02  0.21807059367E+02 -0.27950807039E+02  0.47787270837E+02  0.19999999053E+02 0.  0.
         12    1    3    3    0    0 -0.25036530101E+02 -0.21807059367E+02  0.27950807039E+02  0.43400729163E+02  0.00000000000E+00 0. -1.
         11    1    4    4    0    0  0.10436611965E+02  0.11110492457E+02 -0.15243382966E+02  0.21557519256E+02  0.51100000000E-03 0. -1.
        -11    1    4    4    0    0  0.15381672996E+01 -0.41037945142E+00  0.27287783151E+01  0.31592089658E+01  0.51100000000E-03 0.  1.
        -12    1    4    4    0    0  0.13061750837E+02  0.11106946362E+02 -0.15436202388E+02  0.23070542615E+02  0.00000000000E+00 0.  1.
</event>
<event>
 8    1  0.6469014E-010  0.9118800E+02  0.7816164E-02  0.1184000E+00
        -11   -1    0    0    0    0  0.00000000000E+00  0.00000000000E+00  0.45593999997E+02  0.45594000000E+02  0.51100000000E-03 0. -1.
         11   -1    0    0    0    0 -0.00000000000E+00 -0.00000000000E+00 -0.45593999997E+02  0.45594000000E+02  0.51100000000E-03 0.  1.
         23    2    1    2    0    0 -0.71054273576E-14 -0.17763568394E-14  0.00000000000E+00  0.91188000000E+02  0.91188000000E+02 0.  0.
    9900012    2    3    3    0    0  0.33046629952E+02  0.14721455149E+02 -0.23975450327E+02  0.47787271766E+02  0.20000003289E+02 0.  0.
         12    1    3    3    0    0 -0.33046629952E+02 -0.14721455149E+02  0.23975450327E+02  0.43400728234E+02  0.00000000000E+00 0. -1.
         11    1    4    4    0    0  0.26556154882E+01  0.29914205842E+01  0.14498725973E+01  0.42547645696E+01  0.51100000000E-03 0. -1.
        -11    1    4    4    0    0  0.17823301882E+02  0.13861037277E+02 -0.16750328808E+02  0.28113554734E+02  0.51100000000E-03 0.  1.
        -12    1    4    4    0    0  0.12567712582E+02 -0.21310027127E+01 -0.86749941164E+01  0.15418952462E+02  0.00000000000E+00 0.  1.
</event>
<event>
 8    1  0.6469014E-010  0.9118800E+02  0.7816164E-02  0.1184000E+00
        -11   -1    0    0    0    0  0.00000000000E+00  0.00000000000E+00  0.45593999997E+02  0.45594000000E+02  0.51100000000E-03 0. -1.
         11   -1    0    0    0    0 -0.00000000000E+00 -0.00000000000E+00 -0.45593999997E+02  0.45594000000E+02  0.51100000000E-03 0.  1.
         23    2    1    2    0    0 -0.88817841970E-15  0.00000000000E+00 -0.71054273576E-14  0.91188000000E+02  0.91188000000E+02 0.  0.
    9900012    2    3    3    0    0  0.37575561649E+00  0.21128488354E+02 -0.37908691498E+02  0.47787273007E+02  0.20000008949E+02 0.  0.
         12    1    3    3    0    0 -0.37575561649E+00 -0.21128488354E+02  0.37908691498E+02  0.43400726993E+02  0.00000000000E+00 0. -1.
         11    1    4    4    0    0 -0.77490628274E+01  0.33228268367E+01 -0.13643740414E+02  0.16038728305E+02  0.51100000000E-03 0. -1.
        -11    1    4    4    0    0  0.59450375542E+01  0.16813046468E+02 -0.22781258503E+02  0.28931086089E+02  0.51100000000E-03 0.  1.
        -12    1    4    4    0    0  0.21797808897E+01  0.99261504862E+00 -0.14836925819E+01  0.28174586136E+01  0.00000000000E+00 0.  1.
</event>
<event>
 8    1  0.6469014E-010  0.9118800E+02  0.7816164E-02  0.1184000E+00
        -11   -1    0    0    0    0  0.00000000000E+00  0.00000000000E+00  0.45593999997E+02  0.45594000000E+02  0.51100000000E-03 0.  1.
         11   -1    0    0    0    0 -0.00000000000E+00 -0.00000000000E+00 -0.45593999997E+02  0.45594000000E+02  0.51100000000E-03 0. -1.
         23    2    1    2    0    0  0.00000000000E+00  0.00000000000E+00  0.00000000000E+00  0.91188000000E+02  0.91188000000E+02 0.  0.
    9900012    2    3    3    0    0 -0.36980309559E+02  0.23969646718E+01 -0.22590584370E+02  0.47787271470E+02  0.20000001940E+02 0.  0.
        -12    1    3    3    0    0  0.36980309559E+02 -0.23969646718E+01  0.22590584370E+02  0.43400728530E+02  0.00000000000E+00 0.  1.
         11    1    4    4    0    0 -0.22157756900E+02  0.78515885466E+01 -0.75127733354E+01  0.24679047733E+02  0.51100000000E-03 0. -1.
        -11    1    4    4    0    0 -0.40456357730E+00 -0.27316576308E+01 -0.32273139293E+01  0.42474910900E+01  0.51100000000E-03 0.  1.
         12    1    4    4    0    0 -0.14417989082E+02 -0.27229662441E+01 -0.11850497106E+02  0.18860732647E+02  0.00000000000E+00 0. -1.
</event>
<event>
 8    1  0.6469014E-010  0.9118800E+02  0.7816164E-02  0.1184000E+00
        -11   -1    0    0    0    0  0.00000000000E+00  0.00000000000E+00  0.45593999997E+02  0.45594000000E+02  0.51100000000E-03 0. -1.
         11   -1    0    0    0    0 -0.00000000000E+00 -0.00000000000E+00 -0.45593999997E+02  0.45594000000E+02  0.51100000000E-03 0.  1.
         23    2    1    2    0    0  0.35527136788E-14 -0.71054273576E-14  0.35527136788E-14  0.91188000000E+02  0.91188000000E+02 0.  0.
    9900012    2    3    3    0    0 -0.22485934781E+02  0.34976927754E+02 -0.12434646650E+02  0.47787272179E+02  0.20000005172E+02 0.  0.
         12    1    3    3    0    0  0.22485934781E+02 -0.34976927754E+02  0.12434646650E+02  0.43400727821E+02  0.00000000000E+00 0. -1.
         11    1    4    4    0    0 -0.15732139465E+02  0.16898418739E+02  0.46109136394E+00  0.23092625955E+02  0.51100000000E-03 0. -1.
        -11    1    4    4    0    0 -0.84643148366E+01  0.11935573154E+02 -0.81780174967E+01  0.16762532703E+02  0.51100000000E-03 0.  1.
         12    1    4    4    0    0  0.17105195205E+01  0.61429358613E+01 -0.47177205171E+01  0.79321135206E+01  0.00000000000E+00 0. -1.
</event>
<event>
 8    1  0.6469014E-010  0.9118800E+02  0.7816164E-02  0.1184000E+00
        -11   -1    0    0    0    0  0.00000000000E+00  0.00000000000E+00  0.45593999997E+02  0.45594000000E+02  0.51100000000E-03 0. -1.
         11   -1    0    0    0    0 -0.00000000000E+00 -0.00000000000E+00 -0.45593999997E+02  0.45594000000E+02  0.51100000000E-03 0.  1.
         23    2    1    2    0    0  0.00000000000E+00 -0.35527136788E-14  0.00000000000E+00  0.91188000000E+02  0.91188000000E+02 0.  0.
    9900012    2    3    3    0    0 -0.16262082075E+02  0.18313614831E+02  0.35829870757E+02  0.47787269130E+02  0.19999991269E+02 0.  0.
        -12    1    3    3    0    0  0.16262082075E+02 -0.18313614831E+02 -0.35829870757E+02  0.43400730870E+02  0.00000000000E+00 0.  1.
         11    1    4    4    0    0 -0.41671055374E+01  0.94754899340E+01  0.69992602003E+01  0.12495572082E+02  0.51100000000E-03 0. -1.
        -11    1    4    4    0    0 -0.54308740689E+01  0.89190692470E+01  0.26059662231E+02  0.28074012631E+02  0.51100000000E-03 0.  1.
        -12    1    4    4    0    0 -0.66641024688E+01 -0.80944349912E-01  0.27709483264E+01  0.72176844161E+01  0.00000000000E+00 0.  1.
</event>
<event>
 8    1  0.6469014E-010  0.9118800E+02  0.7816164E-02  0.1184000E+00
        -11   -1    0    0    0    0  0.00000000000E+00  0.00000000000E+00  0.45593999997E+02  0.45594000000E+02  0.51100000000E-03 0. -1.
         11   -1    0    0    0    0 -0.00000000000E+00 -0.00000000000E+00 -0.45593999997E+02  0.45594000000E+02  0.51100000000E-03 0.  1.
         23    2    1    2    0    0  0.71054273576E-14  0.00000000000E+00  0.00000000000E+00  0.91188000000E+02  0.91188000000E+02 0.  0.
    9900012    2    3    3    0    0  0.32808220708E+02  0.14499217317E+02  0.24433905804E+02  0.47787281093E+02  0.20000045814E+02 0.  0.
        -12    1    3    3    0    0 -0.32808220708E+02 -0.14499217317E+02 -0.24433905804E+02  0.43400718907E+02  0.00000000000E+00 0.  1.
         11    1    4    4    0    0  0.13487801248E+02  0.91121507388E+01  0.74439911217E+01  0.17898745142E+02  0.51100000000E-03 0. -1.
        -11    1    4    4    0    0  0.69662782392E+01  0.28563474726E+01  0.15446473821E+02  0.17183751254E+02  0.51100000000E-03 0.  1.
        -12    1    4    4    0    0  0.12354141221E+02  0.25307191059E+01  0.15434408618E+01  0.12704784697E+02  0.00000000000E+00 0.  1.
</event>
<event>
 8    1  0.6469014E-010  0.9118800E+02  0.7816164E-02  0.1184000E+00
        -11   -1    0    0    0    0  0.00000000000E+00  0.00000000000E+00  0.45593999997E+02  0.45594000000E+02  0.51100000000E-03 0. -1.
         11   -1    0    0    0    0 -0.00000000000E+00 -0.00000000000E+00 -0.45593999997E+02  0.45594000000E+02  0.51100000000E-03 0.  1.
         23    2    1    2    0    0 -0.88817841970E-15  0.17763568394E-14  0.00000000000E+00  0.91188000000E+02  0.91188000000E+02 0.  0.
    9900012    2    3    3    0    0 -0.69302427756E+01  0.97845285131E+01  0.41711606367E+02  0.47787269950E+02  0.19999995011E+02 0.  0.
        -12    1    3    3    0    0  0.69302427756E+01 -0.97845285131E+01 -0.41711606367E+02  0.43400730050E+02  0.00000000000E+00 0.  1.
         11    1    4    4    0    0 -0.80033360191E+00 -0.30529471039E+01  0.18561362110E+02  0.18827776914E+02  0.51100000000E-03 0. -1.
        -11    1    4    4    0    0 -0.55417345467E+01  0.11214326456E+01  0.69925174003E+01  0.89924264144E+01  0.51100000000E-03 0.  1.
         12    1    4    4    0    0 -0.58817462707E+00  0.11716042971E+02  0.16157726856E+02  0.19967066621E+02  0.00000000000E+00 0. -1.
</event>
<event>
 8    1  0.6469014E-010  0.9118800E+02  0.7816164E-02  0.1184000E+00
        -11   -1    0    0    0    0  0.00000000000E+00  0.00000000000E+00  0.45593999997E+02  0.45594000000E+02  0.51100000000E-03 0. -1.
         11   -1    0    0    0    0 -0.00000000000E+00 -0.00000000000E+00 -0.45593999997E+02  0.45594000000E+02  0.51100000000E-03 0.  1.
         23    2    1    2    0    0  0.00000000000E+00  0.00000000000E+00 -0.88817841970E-15  0.91188000000E+02  0.91188000000E+02 0.  0.
    9900012    2    3    3    0    0 -0.36391982109E+02 -0.23104781987E+02  0.50414710241E+01  0.47787265645E+02  0.19999975383E+02 0.  0.
         12    1    3    3    0    0  0.36391982109E+02  0.23104781987E+02 -0.50414710241E+01  0.43400734355E+02  0.00000000000E+00 0. -1.
         11    1    4    4    0    0 -0.10712657901E+02 -0.15510703036E+02  0.77273550587E+01  0.20372897792E+02  0.51100000000E-03 0. -1.
        -11    1    4    4    0    0 -0.21626227567E+02 -0.57250149675E+01 -0.34362410491E+00  0.22373814895E+02  0.51100000000E-03 0.  1.
         12    1    4    4    0    0 -0.40530966399E+01 -0.18690639838E+01 -0.23422599296E+01  0.50405529583E+01  0.00000000000E+00 0. -1.
</event>
<event>
 8    1  0.6469014E-010  0.9118800E+02  0.7816164E-02  0.1184000E+00
        -11   -1    0    0    0    0  0.00000000000E+00  0.00000000000E+00  0.45593999997E+02  0.45594000000E+02  0.51100000000E-03 0.  1.
         11   -1    0    0    0    0 -0.00000000000E+00 -0.00000000000E+00 -0.45593999997E+02  0.45594000000E+02  0.51100000000E-03 0. -1.
         23    2    1    2    0    0  0.00000000000E+00  0.00000000000E+00 -0.88817841970E-15  0.91188000000E+02  0.91188000000E+02 0.  0.
    9900012    2    3    3    0    0 -0.44643843784E+01  0.42714340226E+02 -0.62592154568E+01  0.47787269972E+02  0.19999995110E+02 0.  0.
         12    1    3    3    0    0  0.44643843784E+01 -0.42714340226E+02  0.62592154568E+01  0.43400730028E+02  0.00000000000E+00 0. -1.
         11    1    4    4    0    0  0.33913095163E+01  0.78406705250E+01  0.22884305509E+01  0.88438684502E+01  0.51100000000E-03 0. -1.
        -11    1    4    4    0    0 -0.66700723917E+01  0.35556272244E+02 -0.93395946363E+01  0.37362633604E+02  0.51100000000E-03 0.  1.
        -12    1    4    4    0    0 -0.11856215030E+01 -0.68260254274E+00  0.79194862863E+00  0.15807679179E+01  0.00000000000E+00 0.  1.
</event>
<event>
 8    1  0.6469014E-010  0.9118800E+02  0.7816164E-02  0.1184000E+00
        -11   -1    0    0    0    0  0.00000000000E+00  0.00000000000E+00  0.45593999997E+02  0.45594000000E+02  0.51100000000E-03 0. -1.
         11   -1    0    0    0    0 -0.00000000000E+00 -0.00000000000E+00 -0.45593999997E+02  0.45594000000E+02  0.51100000000E-03 0.  1.
         23    2    1    2    0    0  0.35527136788E-14  0.00000000000E+00  0.00000000000E+00  0.91188000000E+02  0.91188000000E+02 0.  0.
    9900012    2    3    3    0    0  0.20008753143E+02  0.25429506531E+02  0.28924266922E+02  0.47787271645E+02  0.20000002738E+02 0.  0.
        -12    1    3    3    0    0 -0.20008753143E+02 -0.25429506531E+02 -0.28924266922E+02  0.43400728355E+02  0.00000000000E+00 0.  1.
         11    1    4    4    0    0  0.17087118127E+02  0.22488987015E+02  0.13211496749E+02  0.31181208916E+02  0.51100000000E-03 0. -1.
        -11    1    4    4    0    0  0.84497898704E+00 -0.25411261166E+00  0.75084959152E+01  0.75601636145E+01  0.51100000000E-03 0.  1.
         12    1    4    4    0    0  0.20766560292E+01  0.31946321284E+01  0.82042742575E+01  0.90458991146E+01  0.00000000000E+00 0. -1.
</event>
<event>
 8    1  0.6469014E-010  0.9118800E+02  0.7816164E-02  0.1184000E+00
        -11   -1    0    0    0    0  0.00000000000E+00  0.00000000000E+00  0.45593999997E+02  0.45594000000E+02  0.51100000000E-03 0. -1.
         11   -1    0    0    0    0 -0.00000000000E+00 -0.00000000000E+00 -0.45593999997E+02  0.45594000000E+02  0.51100000000E-03 0.  1.
         23    2    1    2    0    0  0.00000000000E+00 -0.35527136788E-14  0.00000000000E+00  0.91188000000E+02  0.91188000000E+02 0.  0.
    9900012    2    3    3    0    0 -0.21482401313E+02 -0.23483159120E+02  0.29507155983E+02  0.47787255967E+02  0.19999931256E+02 0.  0.
        -12    1    3    3    0    0  0.21482401313E+02  0.23483159120E+02 -0.29507155983E+02  0.43400744033E+02  0.00000000000E+00 0.  1.
         11    1    4    4    0    0 -0.16508311952E+01  0.14259319520E+01 -0.12348140300E+01  0.25066494602E+01  0.51100000000E-03 0. -1.
        -11    1    4    4    0    0 -0.84175885458E+01 -0.41113988795E+01  0.68033414789E+01  0.11577774104E+02  0.51100000000E-03 0.  1.
         12    1    4    4    0    0 -0.11413981572E+02 -0.20797692192E+02  0.23938628534E+02  0.33702832402E+02  0.00000000000E+00 0. -1.
</event>
<event>
 8    1  0.6469014E-010  0.9118800E+02  0.7816164E-02  0.1184000E+00
        -11   -1    0    0    0    0  0.00000000000E+00  0.00000000000E+00  0.45593999997E+02  0.45594000000E+02  0.51100000000E-03 0. -1.
         11   -1    0    0    0    0 -0.00000000000E+00 -0.00000000000E+00 -0.45593999997E+02  0.45594000000E+02  0.51100000000E-03 0.  1.
         23    2    1    2    0    0 -0.35527136788E-14  0.88817841970E-15  0.00000000000E+00  0.91188000000E+02  0.91188000000E+02 0.  0.
    9900012    2    3    3    0    0  0.27128412519E+02 -0.40733330685E+01 -0.33631537584E+02  0.47787272721E+02  0.20000007643E+02 0.  0.
         12    1    3    3    0    0 -0.27128412519E+02  0.40733330685E+01  0.33631537584E+02  0.43400727279E+02  0.00000000000E+00 0. -1.
         11    1    4    4    0    0  0.22106799510E+02 -0.84032147741E+01 -0.26422202520E+02  0.35460645642E+02  0.51100000000E-03 0. -1.
        -11    1    4    4    0    0 -0.14658501493E+01  0.22081547791E+01 -0.39648530382E+01  0.47691429067E+01  0.51100000000E-03 0.  1.
         12    1    4    4    0    0  0.64874631590E+01  0.21217269265E+01 -0.32444820260E+01  0.75574841718E+01  0.00000000000E+00 0. -1.
</event>
<event>
 8    1  0.6469014E-010  0.9118800E+02  0.7816164E-02  0.1184000E+00
        -11   -1    0    0    0    0  0.00000000000E+00  0.00000000000E+00  0.45593999997E+02  0.45594000000E+02  0.51100000000E-03 0. -1.
         11   -1    0    0    0    0 -0.00000000000E+00 -0.00000000000E+00 -0.45593999997E+02  0.45594000000E+02  0.51100000000E-03 0.  1.
         23    2    1    2    0    0  0.17763568394E-14  0.00000000000E+00  0.00000000000E+00  0.91188000000E+02  0.91188000000E+02 0.  0.
    9900012    2    3    3    0    0  0.10100364175E+02 -0.30246189220E+02  0.29441010485E+02  0.47787280914E+02  0.20000045000E+02 0.  0.
        -12    1    3    3    0    0 -0.10100364175E+02  0.30246189220E+02 -0.29441010485E+02  0.43400719086E+02  0.00000000000E+00 0.  1.
         11    1    4    4    0    0 -0.34668017440E+01 -0.12025066047E+02  0.11493587404E+02  0.16991865096E+02  0.51100000000E-03 0. -1.
        -11    1    4    4    0    0  0.47643413274E+01 -0.99234896127E+00  0.71204045626E+01  0.86246081732E+01  0.51100000000E-03 0.  1.
         12    1    4    4    0    0  0.88028245920E+01 -0.17228774212E+02  0.10827018518E+02  0.22170807645E+02  0.00000000000E+00 0. -1.
</event>
<event>
 8    1  0.6469014E-010  0.9118800E+02  0.7816164E-02  0.1184000E+00
        -11   -1    0    0    0    0  0.00000000000E+00  0.00000000000E+00  0.45593999997E+02  0.45594000000E+02  0.51100000000E-03 0. -1.
         11   -1    0    0    0    0 -0.00000000000E+00 -0.00000000000E+00 -0.45593999997E+02  0.45594000000E+02  0.51100000000E-03 0.  1.
         23    2    1    2    0    0 -0.35527136788E-14  0.00000000000E+00  0.00000000000E+00  0.91188000000E+02  0.91188000000E+02 0.  0.
    9900012    2    3    3    0    0  0.22325659842E+02 -0.33058392856E+02 -0.17097684472E+02  0.47787271435E+02  0.20000001783E+02 0.  0.
         12    1    3    3    0    0 -0.22325659842E+02  0.33058392856E+02  0.17097684472E+02  0.43400728565E+02  0.00000000000E+00 0. -1.
         11    1    4    4    0    0  0.17083587007E+01 -0.16101177405E+01 -0.76078793446E+01  0.79618337694E+01  0.51100000000E-03 0. -1.
        -11    1    4    4    0    0  0.66371290898E+01 -0.17390473840E+02 -0.68034580525E+01  0.19818352723E+02  0.51100000000E-03 0.  1.
         12    1    4    4    0    0  0.13980172051E+02 -0.14057801276E+02 -0.26863470752E+01  0.20007084943E+02  0.00000000000E+00 0. -1.
</event>
<event>
 8    1  0.6469014E-010  0.9118800E+02  0.7816164E-02  0.1184000E+00
        -11   -1    0    0    0    0  0.00000000000E+00  0.00000000000E+00  0.45593999997E+02  0.45594000000E+02  0.51100000000E-03 0. -1.
         11   -1    0    0    0    0 -0.00000000000E+00 -0.00000000000E+00 -0.45593999997E+02  0.45594000000E+02  0.51100000000E-03 0.  1.
         23    2    1    2    0    0  0.35527136788E-14  0.17763568394E-14  0.00000000000E+00  0.91188000000E+02  0.91188000000E+02 0.  0.
    9900012    2    3    3    0    0 -0.26039107905E+02  0.10636033686E+02  0.33052395264E+02  0.47787295101E+02  0.20000109682E+02 0.  0.
        -12    1    3    3    0    0  0.26039107905E+02 -0.10636033686E+02 -0.33052395264E+02  0.43400704899E+02  0.00000000000E+00 0.  1.
         11    1    4    4    0    0 -0.28968895893E+01 -0.21324675621E+01 -0.10975026190E+00  0.35988098835E+01  0.51100000000E-03 0. -1.
        -11    1    4    4    0    0  0.82832719768E+00 -0.73521264271E-01  0.48918833507E+01  0.49620614971E+01  0.51100000000E-03 0.  1.
         12    1    4    4    0    0 -0.23970545513E+02  0.12842022512E+02  0.28270262176E+02  0.39226423720E+02  0.00000000000E+00 0. -1.
</event>
<event>
 8    1  0.6469014E-010  0.9118800E+02  0.7816164E-02  0.1184000E+00
        -11   -1    0    0    0    0  0.00000000000E+00  0.00000000000E+00  0.45593999997E+02  0.45594000000E+02  0.51100000000E-03 0. -1.
         11   -1    0    0    0    0 -0.00000000000E+00 -0.00000000000E+00 -0.45593999997E+02  0.45594000000E+02  0.51100000000E-03 0.  1.
         23    2    1    2    0    0  0.00000000000E+00 -0.88817841970E-15  0.00000000000E+00  0.91188000000E+02  0.91188000000E+02 0.  0.
    9900012    2    3    3    0    0  0.35579979096E+01 -0.64706254081E+01 -0.42767920575E+02  0.47787269907E+02  0.19999994812E+02 0.  0.
         12    1    3    3    0    0 -0.35579979096E+01  0.64706254081E+01  0.42767920575E+02  0.43400730093E+02  0.00000000000E+00 0. -1.
         11    1    4    4    0    0 -0.28348190810E+01 -0.33837851907E+01 -0.22715068003E+01  0.49644682337E+01  0.51100000000E-03 0. -1.
        -11    1    4    4    0    0  0.26803041483E+01  0.91989387600E+00 -0.34855959506E+02  0.34970961502E+02  0.51100000000E-03 0.  1.
        -12    1    4    4    0    0  0.37125128423E+01 -0.40067340933E+01 -0.56404542695E+01  0.78518401706E+01  0.00000000000E+00 0.  1.
</event>
<event>
 8    1  0.6469014E-010  0.9118800E+02  0.7816164E-02  0.1184000E+00
        -11   -1    0    0    0    0  0.00000000000E+00  0.00000000000E+00  0.45593999997E+02  0.45594000000E+02  0.51100000000E-03 0. -1.
         11   -1    0    0    0    0 -0.00000000000E+00 -0.00000000000E+00 -0.45593999997E+02  0.45594000000E+02  0.51100000000E-03 0.  1.
         23    2    1    2    0    0  0.17763568394E-14  0.71054273576E-14  0.00000000000E+00  0.91188000000E+02  0.91188000000E+02 0.  0.
    9900012    2    3    3    0    0 -0.14520839940E+02 -0.40552930021E+02  0.53130413794E+01  0.47787270345E+02  0.19999996812E+02 0.  0.
         12    1    3    3    0    0  0.14520839940E+02  0.40552930021E+02 -0.53130413794E+01  0.43400729655E+02  0.00000000000E+00 0. -1.
         11    1    4    4    0    0 -0.84026446717E+01 -0.20370821699E+02 -0.23308661850E+01  0.22158694718E+02  0.51100000000E-03 0. -1.
        -11    1    4    4    0    0 -0.71092463566E+01 -0.16918495191E+02  0.10532331727E+02  0.21159084932E+02  0.51100000000E-03 0.  1.
         12    1    4    4    0    0  0.99105108847E+00 -0.32636131314E+01 -0.28884241628E+01  0.44694906953E+01  0.00000000000E+00 0. -1.
</event>
<event>
 8    1  0.6469014E-010  0.9118800E+02  0.7816164E-02  0.1184000E+00
        -11   -1    0    0    0    0  0.00000000000E+00  0.00000000000E+00  0.45593999997E+02  0.45594000000E+02  0.51100000000E-03 0.  1.
         11   -1    0    0    0    0 -0.00000000000E+00 -0.00000000000E+00 -0.45593999997E+02  0.45594000000E+02  0.51100000000E-03 0. -1.
         23    2    1    2    0    0  0.00000000000E+00  0.00000000000E+00  0.00000000000E+00  0.91188000000E+02  0.91188000000E+02 0.  0.
    9900012    2    3    3    0    0  0.18194516538E+02  0.28157540456E+02  0.27563308911E+02  0.47787268270E+02  0.19999987349E+02 0.  0.
        -12    1    3    3    0    0 -0.18194516538E+02 -0.28157540456E+02 -0.27563308911E+02  0.43400731730E+02  0.00000000000E+00 0.  1.
         11    1    4    4    0    0  0.21300374972E+02  0.17886787271E+02  0.20664400078E+02  0.34650549255E+02  0.51100000000E-03 0. -1.
        -11    1    4    4    0    0 -0.11955134142E+01  0.62299412493E+01  0.56523938511E+01  0.84965273379E+01  0.51100000000E-03 0.  1.
         12    1    4    4    0    0 -0.19103450200E+01  0.40408119360E+01  0.12465149818E+01  0.46401916768E+01  0.00000000000E+00 0. -1.
</event>
<event>
 8    1  0.6469014E-010  0.9118800E+02  0.7816164E-02  0.1184000E+00
        -11   -1    0    0    0    0  0.00000000000E+00  0.00000000000E+00  0.45593999997E+02  0.45594000000E+02  0.51100000000E-03 0. -1.
         11   -1    0    0    0    0 -0.00000000000E+00 -0.00000000000E+00 -0.45593999997E+02  0.45594000000E+02  0.51100000000E-03 0.  1.
         23    2    1    2    0    0  0.00000000000E+00 -0.71054273576E-14  0.00000000000E+00  0.91188000000E+02  0.91188000000E+02 0.  0.
    9900012    2    3    3    0    0  0.40661046282E+01  0.37185938770E+02 -0.22006725791E+02  0.47787271560E+02  0.20000002352E+02 0.  0.
         12    1    3    3    0    0 -0.40661046282E+01 -0.37185938770E+02  0.22006725791E+02  0.43400728440E+02  0.00000000000E+00 0. -1.
         11    1    4    4    0    0  0.20826253008E+01  0.35255404124E+02 -0.18887934283E+02  0.40050404615E+02  0.51100000000E-03 0. -1.
        -11    1    4    4    0    0  0.62461320427E+00  0.42434861472E+01 -0.12504223124E+01  0.44677592322E+01  0.51100000000E-03 0.  1.
         12    1    4    4    0    0  0.13588661232E+01 -0.23129515014E+01 -0.18683691952E+01  0.32691077128E+01  0.00000000000E+00 0. -1.
</event>
<event>
 8    1  0.6469014E-010  0.9118800E+02  0.7816164E-02  0.1184000E+00
        -11   -1    0    0    0    0  0.00000000000E+00  0.00000000000E+00  0.45593999997E+02  0.45594000000E+02  0.51100000000E-03 0. -1.
         11   -1    0    0    0    0 -0.00000000000E+00 -0.00000000000E+00 -0.45593999997E+02  0.45594000000E+02  0.51100000000E-03 0.  1.
         23    2    1    2    0    0  0.17763568394E-14 -0.35527136788E-14  0.71054273576E-14  0.91188000000E+02  0.91188000000E+02 0.  0.
    9900012    2    3    3    0    0  0.14694103245E+02 -0.18717628382E+02  0.36295408243E+02  0.47787274869E+02  0.20000017436E+02 0.  0.
        -12    1    3    3    0    0 -0.14694103245E+02  0.18717628382E+02 -0.36295408243E+02  0.43400725131E+02  0.00000000000E+00 0.  1.
         11    1    4    4    0    0  0.99899022563E+01 -0.14426538732E+02  0.13551855329E+02  0.22171512126E+02  0.51100000000E-03 0. -1.
        -11    1    4    4    0    0  0.70810956351E+01 -0.45716873292E+01  0.21075518624E+02  0.22698452061E+02  0.51100000000E-03 0.  1.
         12    1    4    4    0    0 -0.23768946461E+01  0.28059767921E+00  0.16680342901E+01  0.29173106809E+01  0.00000000000E+00 0. -1.
</event>
<event>
 8    1  0.6469014E-010  0.9118800E+02  0.7816164E-02  0.1184000E+00
        -11   -1    0    0    0    0  0.00000000000E+00  0.00000000000E+00  0.45593999997E+02  0.45594000000E+02  0.51100000000E-03 0. -1.
         11   -1    0    0    0    0 -0.00000000000E+00 -0.00000000000E+00 -0.45593999997E+02  0.45594000000E+02  0.51100000000E-03 0.  1.
         23    2    1    2    0    0 -0.17763568394E-14  0.00000000000E+00  0.35527136788E-14  0.91188000000E+02  0.91188000000E+02 0.  0.
    9900012    2    3    3    0    0 -0.12314027882E+02  0.32730507222E+02  0.25704148275E+02  0.47787255488E+02  0.19999929072E+02 0.  0.
        -12    1    3    3    0    0  0.12314027882E+02 -0.32730507222E+02 -0.25704148275E+02  0.43400744512E+02  0.00000000000E+00 0.  1.
         11    1    4    4    0    0 -0.32999876877E+01  0.50545942958E+01  0.17111947057E+01  0.62743150875E+01  0.51100000000E-03 0. -1.
        -11    1    4    4    0    0 -0.32726095991E+01  0.33196455849E+00 -0.15684552845E+01  0.36442044807E+01  0.51100000000E-03 0.  1.
        -12    1    4    4    0    0 -0.57414305956E+01  0.27343948367E+02  0.25561408853E+02  0.37868735920E+02  0.00000000000E+00 0.  1.
</event>
<event>
 8    1  0.6469014E-010  0.9118800E+02  0.7816164E-02  0.1184000E+00
        -11   -1    0    0    0    0  0.00000000000E+00  0.00000000000E+00  0.45593999997E+02  0.45594000000E+02  0.51100000000E-03 0. -1.
         11   -1    0    0    0    0 -0.00000000000E+00 -0.00000000000E+00 -0.45593999997E+02  0.45594000000E+02  0.51100000000E-03 0.  1.
         23    2    1    2    0    0  0.00000000000E+00  0.00000000000E+00  0.00000000000E+00  0.91188000000E+02  0.91188000000E+02 0.  0.
    9900012    2    3    3    0    0  0.10608334883E+02 -0.23384510344E+02 -0.34989303844E+02  0.47787268710E+02  0.19999989355E+02 0.  0.
         12    1    3    3    0    0 -0.10608334883E+02  0.23384510344E+02  0.34989303844E+02  0.43400731290E+02  0.00000000000E+00 0. -1.
         11    1    4    4    0    0 -0.16982849378E+01 -0.54502088452E+01 -0.14089733827E+02  0.15202287583E+02  0.51100000000E-03 0. -1.
        -11    1    4    4    0    0  0.83354772637E+01 -0.22463195758E+01 -0.54355570302E+01  0.10201539753E+02  0.51100000000E-03 0.  1.
        -12    1    4    4    0    0  0.39711425568E+01 -0.15687981923E+02 -0.15464012987E+02  0.22383441373E+02  0.00000000000E+00 0.  1.
</event>
<event>
 8    1  0.6469014E-010  0.9118800E+02  0.7816164E-02  0.1184000E+00
        -11   -1    0    0    0    0  0.00000000000E+00  0.00000000000E+00  0.45593999997E+02  0.45594000000E+02  0.51100000000E-03 0. -1.
         11   -1    0    0    0    0 -0.00000000000E+00 -0.00000000000E+00 -0.45593999997E+02  0.45594000000E+02  0.51100000000E-03 0.  1.
         23    2    1    2    0    0  0.00000000000E+00  0.00000000000E+00 -0.35527136788E-14  0.91188000000E+02  0.91188000000E+02 0.  0.
    9900012    2    3    3    0    0  0.35077483148E+02 -0.17292954890E+01  0.25499077408E+02  0.47787271486E+02  0.20000002011E+02 0.  0.
        -12    1    3    3    0    0 -0.35077483148E+02  0.17292954890E+01 -0.25499077408E+02  0.43400728514E+02  0.00000000000E+00 0.  1.
         11    1    4    4    0    0  0.26695633284E+02 -0.52587263788E+01  0.19522656513E+02  0.33487985266E+02  0.51100000000E-03 0. -1.
        -11    1    4    4    0    0  0.26569013724E+01 -0.28745850367E+01  0.37607639987E+01  0.54282326913E+01  0.51100000000E-03 0.  1.
         12    1    4    4    0    0  0.57249484917E+01  0.64040159266E+01  0.22156568965E+01  0.88710535284E+01  0.00000000000E+00 0. -1.
</event>
<event>
 8    1  0.6469014E-010  0.9118800E+02  0.7816164E-02  0.1184000E+00
        -11   -1    0    0    0    0  0.00000000000E+00  0.00000000000E+00  0.45593999997E+02  0.45594000000E+02  0.51100000000E-03 0. -1.
         11   -1    0    0    0    0 -0.00000000000E+00 -0.00000000000E+00 -0.45593999997E+02  0.45594000000E+02  0.51100000000E-03 0.  1.
         23    2    1    2    0    0  0.35527136788E-14  0.00000000000E+00  0.71054273576E-14  0.91188000000E+02  0.91188000000E+02 0.  0.
    9900012    2    3    3    0    0 -0.15256241056E+02 -0.10236100402E+02 -0.39320375696E+02  0.47787278952E+02  0.20000036055E+02 0.  0.
         12    1    3    3    0    0  0.15256241056E+02  0.10236100402E+02  0.39320375696E+02  0.43400721048E+02  0.00000000000E+00 0. -1.
         11    1    4    4    0    0  0.83321750281E+00 -0.72172028723E+01 -0.13231612403E+02  0.15094960608E+02  0.51100000000E-03 0. -1.
        -11    1    4    4    0    0 -0.17635435512E+02 -0.36872818622E+01 -0.23940814674E+02  0.29962764237E+02  0.51100000000E-03 0.  1.
         12    1    4    4    0    0  0.15459769525E+01  0.66838433290E+00 -0.21479486184E+01  0.27295541067E+01  0.00000000000E+00 0. -1.
</event>
<event>
 8    1  0.6469014E-010  0.9118800E+02  0.7816164E-02  0.1184000E+00
        -11   -1    0    0    0    0  0.00000000000E+00  0.00000000000E+00  0.45593999997E+02  0.45594000000E+02  0.51100000000E-03 0. -1.
         11   -1    0    0    0    0 -0.00000000000E+00 -0.00000000000E+00 -0.45593999997E+02  0.45594000000E+02  0.51100000000E-03 0.  1.
         23    2    1    2    0    0 -0.35527136788E-14 -0.35527136788E-14 -0.35527136788E-14  0.91188000000E+02  0.91188000000E+02 0.  0.
    9900012    2    3    3    0    0  0.22028558116E+02  0.26257659066E+02  0.26625192006E+02  0.47787275563E+02  0.20000020604E+02 0.  0.
        -12    1    3    3    0    0 -0.22028558116E+02 -0.26257659066E+02 -0.26625192006E+02  0.43400724437E+02  0.00000000000E+00 0.  1.
         11    1    4    4    0    0  0.51200752372E+01  0.14614799470E+02  0.13996531977E+02  0.20873678200E+02  0.51100000000E-03 0. -1.
        -11    1    4    4    0    0  0.11493947682E+02  0.53687564328E+01  0.11252513319E+01  0.12735798749E+02  0.51100000000E-03 0.  1.
        -12    1    4    4    0    0  0.54145351967E+01  0.62741031635E+01  0.11503408697E+02  0.14177798614E+02  0.00000000000E+00 0.  1.
</event>
<event>
 8    1  0.6469014E-010  0.9118800E+02  0.7816164E-02  0.1184000E+00
        -11   -1    0    0    0    0  0.00000000000E+00  0.00000000000E+00  0.45593999997E+02  0.45594000000E+02  0.51100000000E-03 0. -1.
         11   -1    0    0    0    0 -0.00000000000E+00 -0.00000000000E+00 -0.45593999997E+02  0.45594000000E+02  0.51100000000E-03 0.  1.
         23    2    1    2    0    0  0.00000000000E+00  0.44408920985E-15  0.71054273576E-14  0.91188000000E+02  0.91188000000E+02 0.  0.
    9900012    2    3    3    0    0  0.67969435880E+01 -0.12685022852E+01 -0.42846416879E+02  0.47787274435E+02  0.20000015459E+02 0.  0.
         12    1    3    3    0    0 -0.67969435880E+01  0.12685022852E+01  0.42846416879E+02  0.43400725565E+02  0.00000000000E+00 0. -1.
         11    1    4    4    0    0  0.57369959016E+01  0.28673157240E+01 -0.43107227592E+01  0.77276744499E+01  0.51100000000E-03 0. -1.
        -11    1    4    4    0    0  0.49562647599E+01 -0.36889729046E+01 -0.30480788982E+02  0.31100668461E+02  0.51100000000E-03 0.  1.
        -12    1    4    4    0    0 -0.38963170734E+01 -0.44684510463E+00 -0.80549051376E+01  0.89589315245E+01  0.00000000000E+00 0.  1.
</event>
<event>
 8    1  0.6469014E-010  0.9118800E+02  0.7816164E-02  0.1184000E+00
        -11   -1    0    0    0    0  0.00000000000E+00  0.00000000000E+00  0.45593999997E+02  0.45594000000E+02  0.51100000000E-03 0. -1.
         11   -1    0    0    0    0 -0.00000000000E+00 -0.00000000000E+00 -0.45593999997E+02  0.45594000000E+02  0.51100000000E-03 0.  1.
         23    2    1    2    0    0  0.97144514655E-16  0.88817841970E-15  0.00000000000E+00  0.91188000000E+02  0.91188000000E+02 0.  0.
    9900012    2    3    3    0    0  0.65325684485E-01  0.39432990442E+01  0.43221142257E+02  0.47787297093E+02  0.20000118766E+02 0.  0.
        -12    1    3    3    0    0 -0.65325684485E-01 -0.39432990442E+01 -0.43221142257E+02  0.43400702907E+02  0.00000000000E+00 0.  1.
         11    1    4    4    0    0  0.18442138744E+01  0.59181653039E+01  0.29668069544E+02  0.30308747188E+02  0.51100000000E-03 0. -1.
        -11    1    4    4    0    0  0.46802402568E+00  0.25876720084E+01  0.11814773225E+02  0.12103882002E+02  0.51100000000E-03 0.  1.
         12    1    4    4    0    0 -0.22469122156E+01 -0.45625382681E+01  0.17382994881E+01  0.53746679026E+01  0.00000000000E+00 0. -1.
</event>
<event>
 8    1  0.6469014E-010  0.9118800E+02  0.7816164E-02  0.1184000E+00
        -11   -1    0    0    0    0  0.00000000000E+00  0.00000000000E+00  0.45593999997E+02  0.45594000000E+02  0.51100000000E-03 0. -1.
         11   -1    0    0    0    0 -0.00000000000E+00 -0.00000000000E+00 -0.45593999997E+02  0.45594000000E+02  0.51100000000E-03 0.  1.
         23    2    1    2    0    0  0.00000000000E+00  0.00000000000E+00  0.35527136788E-14  0.91188000000E+02  0.91188000000E+02 0.  0.
    9900012    2    3    3    0    0  0.25547847347E+02 -0.15339563384E+02  0.31553573235E+02  0.47787277739E+02  0.20000030524E+02 0.  0.
        -12    1    3    3    0    0 -0.25547847347E+02  0.15339563384E+02 -0.31553573235E+02  0.43400722261E+02  0.00000000000E+00 0.  1.
         11    1    4    4    0    0  0.92012783889E+01 -0.10679941214E+02  0.24532828511E+02  0.28294599190E+02  0.51100000000E-03 0. -1.
        -11    1    4    4    0    0  0.78260298723E+01  0.88459477637E+00  0.42822049634E+01  0.89647382053E+01  0.51100000000E-03 0.  1.
         12    1    4    4    0    0  0.85205390863E+01 -0.55442169461E+01  0.27385397604E+01  0.10527940344E+02  0.00000000000E+00 0. -1.
</event>
<event>
 8    1  0.6469014E-010  0.9118800E+02  0.7816164E-02  0.1184000E+00
        -11   -1    0    0    0    0  0.00000000000E+00  0.00000000000E+00  0.45593999997E+02  0.45594000000E+02  0.51100000000E-03 0. -1.
         11   -1    0    0    0    0 -0.00000000000E+00 -0.00000000000E+00 -0.45593999997E+02  0.45594000000E+02  0.51100000000E-03 0.  1.
         23    2    1    2    0    0 -0.44408920985E-15  0.35527136788E-14  0.00000000000E+00  0.91188000000E+02  0.91188000000E+02 0.  0.
    9900012    2    3    3    0    0 -0.25235798940E+01  0.22052082610E+02 -0.37295513194E+02  0.47787330566E+02  0.20000271381E+02 0.  0.
         12    1    3    3    0    0  0.25235798940E+01 -0.22052082610E+02  0.37295513194E+02  0.43400669434E+02  0.00000000000E+00 0. -1.
         11    1    4    4    0    0  0.55891713576E+01  0.23408063983E+01 -0.16049656869E+02  0.17155456769E+02  0.51100000000E-03 0. -1.
        -11    1    4    4    0    0 -0.68548437912E+01  0.17438667006E+02 -0.20801892263E+02  0.27996691097E+02  0.51100000000E-03 0.  1.
         12    1    4    4    0    0 -0.12579074605E+01  0.22726092052E+01 -0.44396406145E+00  0.26351827008E+01  0.00000000000E+00 0. -1.
</event>
<event>
 8    1  0.6469014E-010  0.9118800E+02  0.7816164E-02  0.1184000E+00
        -11   -1    0    0    0    0  0.00000000000E+00  0.00000000000E+00  0.45593999997E+02  0.45594000000E+02  0.51100000000E-03 0. -1.
         11   -1    0    0    0    0 -0.00000000000E+00 -0.00000000000E+00 -0.45593999997E+02  0.45594000000E+02  0.51100000000E-03 0.  1.
         23    2    1    2    0    0 -0.88817841970E-15  0.00000000000E+00  0.00000000000E+00  0.91188000000E+02  0.91188000000E+02 0.  0.
    9900012    2    3    3    0    0 -0.55705389640E+01  0.28292389880E+02 -0.32436608602E+02  0.47787264902E+02  0.19999971994E+02 0.  0.
         12    1    3    3    0    0  0.55705389640E+01 -0.28292389880E+02  0.32436608602E+02  0.43400735098E+02  0.00000000000E+00 0. -1.
         11    1    4    4    0    0 -0.65951586160E+01  0.77022603017E+01 -0.19769982226E+01  0.10330994781E+02  0.51100000000E-03 0. -1.
        -11    1    4    4    0    0  0.24561034195E+01  0.69423061432E+01 -0.15473520050E+02  0.17136448920E+02  0.51100000000E-03 0.  1.
         12    1    4    4    0    0 -0.14314837675E+01  0.13647823435E+02 -0.14986090329E+02  0.20319821201E+02  0.00000000000E+00 0. -1.
</event>
<event>
 8    1  0.6469014E-010  0.9118800E+02  0.7816164E-02  0.1184000E+00
        -11   -1    0    0    0    0  0.00000000000E+00  0.00000000000E+00  0.45593999997E+02  0.45594000000E+02  0.51100000000E-03 0. -1.
         11   -1    0    0    0    0 -0.00000000000E+00 -0.00000000000E+00 -0.45593999997E+02  0.45594000000E+02  0.51100000000E-03 0.  1.
         23    2    1    2    0    0  0.00000000000E+00  0.44408920985E-15  0.00000000000E+00  0.91188000000E+02  0.91188000000E+02 0.  0.
    9900012    2    3    3    0    0  0.38324715031E+02 -0.12393330827E+01 -0.20329881688E+02  0.47787264774E+02  0.19999971411E+02 0.  0.
         12    1    3    3    0    0 -0.38324715031E+02  0.12393330827E+01  0.20329881688E+02  0.43400735226E+02  0.00000000000E+00 0. -1.
         11    1    4    4    0    0  0.89328533683E+01 -0.63472645802E+01 -0.85623138921E+00  0.10991668181E+02  0.51100000000E-03 0. -1.
        -11    1    4    4    0    0  0.15238251598E+02 -0.20009070703E+01 -0.90710962925E+01  0.17846364590E+02  0.51100000000E-03 0.  1.
         12    1    4    4    0    0  0.14153610065E+02  0.71088385678E+01 -0.10402554006E+02  0.18949232003E+02  0.00000000000E+00 0. -1.
</event>
<event>
 8    1  0.6469014E-010  0.9118800E+02  0.7816164E-02  0.1184000E+00
        -11   -1    0    0    0    0  0.00000000000E+00  0.00000000000E+00  0.45593999997E+02  0.45594000000E+02  0.51100000000E-03 0. -1.
         11   -1    0    0    0    0 -0.00000000000E+00 -0.00000000000E+00 -0.45593999997E+02  0.45594000000E+02  0.51100000000E-03 0.  1.
         23    2    1    2    0    0  0.00000000000E+00  0.00000000000E+00  0.00000000000E+00  0.91188000000E+02  0.91188000000E+02 0.  0.
    9900012    2    3    3    0    0  0.21737821190E+02 -0.12258741360E+02  0.35507937589E+02  0.47787271415E+02  0.20000001691E+02 0.  0.
        -12    1    3    3    0    0 -0.21737821190E+02  0.12258741360E+02 -0.35507937589E+02  0.43400728585E+02  0.00000000000E+00 0.  1.
         11    1    4    4    0    0  0.12903784016E+02 -0.10472247199E+02  0.14636305267E+02  0.22144909921E+02  0.51100000000E-03 0. -1.
        -11    1    4    4    0    0  0.41419550730E+01  0.23420313299E+01  0.18258340117E+02  0.18868171260E+02  0.51100000000E-03 0.  1.
        -12    1    4    4    0    0  0.46920821012E+01 -0.41285254917E+01  0.26132922053E+01  0.67741902343E+01  0.00000000000E+00 0.  1.
</event>
<event>
 8    1  0.6469014E-010  0.9118800E+02  0.7816164E-02  0.1184000E+00
        -11   -1    0    0    0    0  0.00000000000E+00  0.00000000000E+00  0.45593999997E+02  0.45594000000E+02  0.51100000000E-03 0. -1.
         11   -1    0    0    0    0 -0.00000000000E+00 -0.00000000000E+00 -0.45593999997E+02  0.45594000000E+02  0.51100000000E-03 0.  1.
         23    2    1    2    0    0  0.00000000000E+00 -0.88817841970E-15 -0.35527136788E-14  0.91188000000E+02  0.91188000000E+02 0.  0.
    9900012    2    3    3    0    0 -0.33832323264E+02 -0.30997683988E+01 -0.27007204739E+02  0.47787265336E+02  0.19999973971E+02 0.  0.
         12    1    3    3    0    0  0.33832323264E+02  0.30997683988E+01  0.27007204739E+02  0.43400734664E+02  0.00000000000E+00 0. -1.
         11    1    4    4    0    0 -0.27103921987E+02 -0.34119918780E+01 -0.19009552415E+02  0.33281036026E+02  0.51100000000E-03 0.  1.
        -11    1    4    4    0    0 -0.42071212909E+00 -0.41973020697E+01 -0.18284781280E+01  0.45975728254E+01  0.51100000000E-03 0. -1.
        -12    1    4    4    0    0 -0.63076891480E+01  0.45095255488E+01 -0.61691741963E+01  0.99086564845E+01  0.00000000000E+00 0.  1.
</event>
<event>
 8    1  0.7684205E-010  0.9118800E+02  0.7816164E-02  0.1184000E+00
        -11   -1    0    0    0    0  0.00000000000E+00  0.00000000000E+00  0.45593999997E+02  0.45594000000E+02  0.51100000000E-03 0. -1.
         11   -1    0    0    0    0 -0.00000000000E+00 -0.00000000000E+00 -0.45593999997E+02  0.45594000000E+02  0.51100000000E-03 0.  1.
         23    2    1    2    0    0  0.44408920985E-15  0.00000000000E+00  0.00000000000E+00  0.91188000000E+02  0.91188000000E+02 0.  0.
    9900012    2    3    3    0    0 -0.39516513204E+01  0.38669760034E+02 -0.19304332868E+02  0.47787272395E+02  0.20000006156E+02 0.  0.
         12    1    3    3    0    0  0.39516513204E+01 -0.38669760034E+02  0.19304332868E+02  0.43400727605E+02  0.00000000000E+00 0. -1.
         11    1    4    4    0    0  0.47798824269E+01  0.18558486417E+01 -0.72458308532E+00  0.51784622336E+01  0.51100000000E-03 0. -1.
        -11    1    4    4    0    0 -0.27842901823E+01  0.24626022290E+02 -0.11959011295E+02  0.27517470760E+02  0.51100000000E-03 0.  1.
         12    1    4    4    0    0 -0.59472435649E+01  0.12187889102E+02 -0.66207384875E+01  0.15091339401E+02  0.00000000000E+00 0. -1.
</event>
<event>
 8    1  0.6469014E-010  0.9118800E+02  0.7816164E-02  0.1184000E+00
        -11   -1    0    0    0    0  0.00000000000E+00  0.00000000000E+00  0.45593999997E+02  0.45594000000E+02  0.51100000000E-03 0. -1.
         11   -1    0    0    0    0 -0.00000000000E+00 -0.00000000000E+00 -0.45593999997E+02  0.45594000000E+02  0.51100000000E-03 0.  1.
         23    2    1    2    0    0  0.00000000000E+00  0.00000000000E+00 -0.71054273576E-14  0.91188000000E+02  0.91188000000E+02 0.  0.
    9900012    2    3    3    0    0  0.82961451867E+01  0.93489559087E+01  0.41561936134E+02  0.47787268016E+02  0.19999986194E+02 0.  0.
        -12    1    3    3    0    0 -0.82961451867E+01 -0.93489559087E+01 -0.41561936134E+02  0.43400731984E+02  0.00000000000E+00 0.  1.
         11    1    4    4    0    0 -0.56641273819E+01  0.13058586652E+01  0.92099196357E+01  0.10890832191E+02  0.51100000000E-03 0. -1.
        -11    1    4    4    0    0  0.12601418158E+02  0.37595219750E+01  0.22359143045E+02  0.25939564820E+02  0.51100000000E-03 0.  1.
        -12    1    4    4    0    0  0.13588544105E+01  0.42835752685E+01  0.99928734525E+01  0.10956871005E+02  0.00000000000E+00 0.  1.
</event>
<event>
 8    1  0.6469014E-010  0.9118800E+02  0.7816164E-02  0.1184000E+00
        -11   -1    0    0    0    0  0.00000000000E+00  0.00000000000E+00  0.45593999997E+02  0.45594000000E+02  0.51100000000E-03 0. -1.
         11   -1    0    0    0    0 -0.00000000000E+00 -0.00000000000E+00 -0.45593999997E+02  0.45594000000E+02  0.51100000000E-03 0.  1.
         23    2    1    2    0    0  0.00000000000E+00  0.00000000000E+00  0.00000000000E+00  0.91188000000E+02  0.91188000000E+02 0.  0.
    9900012    2    3    3    0    0 -0.31080167226E+02  0.18557879336E+02  0.23942669155E+02  0.47787273203E+02  0.20000009844E+02 0.  0.
        -12    1    3    3    0    0  0.31080167226E+02 -0.18557879336E+02 -0.23942669155E+02  0.43400726797E+02  0.00000000000E+00 0.  1.
         11    1    4    4    0    0 -0.90907646735E+01  0.93270575669E+00 -0.83578446076E+00  0.91766267388E+01  0.51100000000E-03 0. -1.
        -11    1    4    4    0    0 -0.70112473438E+00  0.49304676180E+00 -0.80644484498E+00  0.11768706605E+01  0.51100000000E-03 0.  1.
         12    1    4    4    0    0 -0.21288277818E+02  0.17132126817E+02  0.25584898460E+02  0.37433775804E+02  0.00000000000E+00 0. -1.
</event>
<event>
 8    1  0.6469014E-010  0.9118800E+02  0.7816164E-02  0.1184000E+00
        -11   -1    0    0    0    0  0.00000000000E+00  0.00000000000E+00  0.45593999997E+02  0.45594000000E+02  0.51100000000E-03 0. -1.
         11   -1    0    0    0    0 -0.00000000000E+00 -0.00000000000E+00 -0.45593999997E+02  0.45594000000E+02  0.51100000000E-03 0.  1.
         23    2    1    2    0    0 -0.35527136788E-14  0.22204460493E-15  0.00000000000E+00  0.91188000000E+02  0.91188000000E+02 0.  0.
    9900012    2    3    3    0    0 -0.18911451268E+02  0.62031916131E+00  0.39058861752E+02  0.47787280348E+02  0.20000042418E+02 0.  0.
        -12    1    3    3    0    0  0.18911451268E+02 -0.62031916131E+00 -0.39058861752E+02  0.43400719652E+02  0.00000000000E+00 0.  1.
         11    1    4    4    0    0  0.36499200285E+01  0.12768058946E+01  0.89894620570E+01  0.97858355720E+01  0.51100000000E-03 0.  1.
        -11    1    4    4    0    0 -0.18149032290E+02 -0.10002053330E-01  0.27198482256E+02  0.32697781429E+02  0.51100000000E-03 0. -1.
        -12    1    4    4    0    0 -0.44123390065E+01 -0.64648467998E+00  0.28709174394E+01  0.53036633466E+01  0.00000000000E+00 0.  1.
</event>
<event>
 8    1  0.6469014E-010  0.9118800E+02  0.7816164E-02  0.1184000E+00
        -11   -1    0    0    0    0  0.00000000000E+00  0.00000000000E+00  0.45593999997E+02  0.45594000000E+02  0.51100000000E-03 0. -1.
         11   -1    0    0    0    0 -0.00000000000E+00 -0.00000000000E+00 -0.45593999997E+02  0.45594000000E+02  0.51100000000E-03 0.  1.
         23    2    1    2    0    0  0.71054273576E-14  0.00000000000E+00 -0.88817841970E-15  0.91188000000E+02  0.91188000000E+02 0.  0.
    9900012    2    3    3    0    0  0.42678472459E+02 -0.47853908739E+01 -0.62666830674E+01  0.47787270814E+02  0.19999998949E+02 0.  0.
         12    1    3    3    0    0 -0.42678472459E+02  0.47853908739E+01  0.62666830674E+01  0.43400729186E+02  0.00000000000E+00 0. -1.
         11    1    4    4    0    0  0.26990824167E+01 -0.35096209670E+01 -0.40686573610E+01  0.60130240484E+01  0.51100000000E-03 0. -1.
        -11    1    4    4    0    0  0.33201016563E+02 -0.55778236468E+01 -0.23061691103E+01  0.33745192749E+02  0.51100000000E-03 0.  1.
         12    1    4    4    0    0  0.67783734789E+01  0.43020537398E+01  0.10814340396E+00  0.80290540162E+01  0.00000000000E+00 0. -1.
</event>
<event>
 8    1  0.6469014E-010  0.9118800E+02  0.7816164E-02  0.1184000E+00
        -11   -1    0    0    0    0  0.00000000000E+00  0.00000000000E+00  0.45593999997E+02  0.45594000000E+02  0.51100000000E-03 0. -1.
         11   -1    0    0    0    0 -0.00000000000E+00 -0.00000000000E+00 -0.45593999997E+02  0.45594000000E+02  0.51100000000E-03 0.  1.
         23    2    1    2    0    0  0.35527136788E-14  0.71054273576E-14  0.00000000000E+00  0.91188000000E+02  0.91188000000E+02 0.  0.
    9900012    2    3    3    0    0 -0.17869587079E+02 -0.32591868159E+02  0.22406948876E+02  0.47787269932E+02  0.19999994928E+02 0.  0.
        -12    1    3    3    0    0  0.17869587079E+02  0.32591868159E+02 -0.22406948876E+02  0.43400730068E+02  0.00000000000E+00 0.  1.
         11    1    4    4    0    0 -0.16900065074E+02 -0.30695282041E+02  0.14770721590E+02  0.38026132536E+02  0.51100000000E-03 0. -1.
        -11    1    4    4    0    0 -0.29406628246E+01 -0.10740001198E+01  0.67652202122E+01  0.74544737498E+01  0.51100000000E-03 0.  1.
         12    1    4    4    0    0  0.19711408195E+01 -0.82258599856E+00  0.87100707397E+00  0.23066636465E+01  0.00000000000E+00 0. -1.
</event>
<event>
 8    1  0.6469014E-010  0.9118800E+02  0.7816164E-02  0.1184000E+00
        -11   -1    0    0    0    0  0.00000000000E+00  0.00000000000E+00  0.45593999997E+02  0.45594000000E+02  0.51100000000E-03 0.  1.
         11   -1    0    0    0    0 -0.00000000000E+00 -0.00000000000E+00 -0.45593999997E+02  0.45594000000E+02  0.51100000000E-03 0. -1.
         23    2    1    2    0    0  0.00000000000E+00  0.00000000000E+00  0.00000000000E+00  0.91188000000E+02  0.91188000000E+02 0.  0.
    9900012    2    3    3    0    0 -0.41594329517E+02  0.49376140678E+00  0.12381074375E+02  0.47787273612E+02  0.20000011709E+02 0.  0.
        -12    1    3    3    0    0  0.41594329517E+02 -0.49376140678E+00 -0.12381074375E+02  0.43400726388E+02  0.00000000000E+00 0.  1.
         11    1    4    4    0    0 -0.14378146795E+02  0.30029678529E+00  0.11917095743E+02  0.18677217529E+02  0.51100000000E-03 0. -1.
        -11    1    4    4    0    0 -0.45511563607E+01 -0.20026000052E+00 -0.39337923429E+01  0.60189576129E+01  0.51100000000E-03 0.  1.
         12    1    4    4    0    0 -0.22665026362E+02  0.39372462201E+00  0.43977709749E+01  0.23091098471E+02  0.00000000000E+00 0. -1.
</event>
<event>
 8    1  0.6469014E-010  0.9118800E+02  0.7816164E-02  0.1184000E+00
        -11   -1    0    0    0    0  0.00000000000E+00  0.00000000000E+00  0.45593999997E+02  0.45594000000E+02  0.51100000000E-03 0. -1.
         11   -1    0    0    0    0 -0.00000000000E+00 -0.00000000000E+00 -0.45593999997E+02  0.45594000000E+02  0.51100000000E-03 0.  1.
         23    2    1    2    0    0 -0.55511151231E-15  0.88817841970E-15 -0.14210854715E-13  0.91188000000E+02  0.91188000000E+02 0.  0.
    9900012    2    3    3    0    0  0.78946416184E+00  0.59319246016E+01 -0.42986194314E+02  0.47787264007E+02  0.19999967912E+02 0.  0.
         12    1    3    3    0    0 -0.78946416184E+00 -0.59319246016E+01  0.42986194314E+02  0.43400735993E+02  0.00000000000E+00 0. -1.
         11    1    4    4    0    0  0.54819511614E+01 -0.18500697948E+01 -0.44182687353E+01  0.72798108259E+01  0.51100000000E-03 0. -1.
        -11    1    4    4    0    0 -0.21013814056E+01 -0.98605395945E+00 -0.30569417648E+01  0.38383589511E+01  0.51100000000E-03 0.  1.
         12    1    4    4    0    0 -0.25911055939E+01  0.87680483559E+01 -0.35510983814E+02  0.36669094230E+02  0.00000000000E+00 0. -1.
</event>
<event>
 8    1  0.6469014E-010  0.9118800E+02  0.7816164E-02  0.1184000E+00
        -11   -1    0    0    0    0  0.00000000000E+00  0.00000000000E+00  0.45593999997E+02  0.45594000000E+02  0.51100000000E-03 0. -1.
         11   -1    0    0    0    0 -0.00000000000E+00 -0.00000000000E+00 -0.45593999997E+02  0.45594000000E+02  0.51100000000E-03 0.  1.
         23    2    1    2    0    0 -0.17763568394E-14 -0.35527136788E-14  0.00000000000E+00  0.91188000000E+02  0.91188000000E+02 0.  0.
    9900012    2    3    3    0    0 -0.81395527593E+01 -0.16730485858E+02 -0.39210476708E+02  0.47787274663E+02  0.20000016497E+02 0.  0.
         12    1    3    3    0    0  0.81395527593E+01  0.16730485858E+02  0.39210476708E+02  0.43400725337E+02  0.00000000000E+00 0. -1.
         11    1    4    4    0    0 -0.22477071661E+01 -0.12517254219E+02 -0.23627850662E+02  0.26832986562E+02  0.51100000000E-03 0. -1.
        -11    1    4    4    0    0 -0.64964785267E+01 -0.39815552450E+01 -0.27427997849E+01  0.80981458580E+01  0.51100000000E-03 0.  1.
        -12    1    4    4    0    0  0.60463293348E+00 -0.23167639331E+00 -0.12839826261E+02  0.12856142242E+02  0.00000000000E+00 0.  1.
</event>
<event>
 8    1  0.6469014E-010  0.9118800E+02  0.7816164E-02  0.1184000E+00
        -11   -1    0    0    0    0  0.00000000000E+00  0.00000000000E+00  0.45593999997E+02  0.45594000000E+02  0.51100000000E-03 0. -1.
         11   -1    0    0    0    0 -0.00000000000E+00 -0.00000000000E+00 -0.45593999997E+02  0.45594000000E+02  0.51100000000E-03 0.  1.
         23    2    1    2    0    0  0.00000000000E+00  0.35527136788E-14  0.00000000000E+00  0.91188000000E+02  0.91188000000E+02 0.  0.
    9900012    2    3    3    0    0  0.19621969952E+02  0.25563131721E+02 -0.29071078512E+02  0.47787274038E+02  0.20000013648E+02 0.  0.
         12    1    3    3    0    0 -0.19621969952E+02 -0.25563131721E+02  0.29071078512E+02  0.43400725962E+02  0.00000000000E+00 0. -1.
         11    1    4    4    0    0  0.86511497442E+01  0.27991480712E+01 -0.17925643751E+00  0.90944903625E+01  0.51100000000E-03 0. -1.
        -11    1    4    4    0    0  0.61223983041E+01  0.17687596278E+02 -0.20983442682E+02  0.28118315920E+02  0.51100000000E-03 0.  1.
        -12    1    4    4    0    0  0.48484219032E+01  0.50763873723E+01 -0.79083793923E+01  0.10574467756E+02  0.00000000000E+00 0.  1.
</event>
<event>
 8    1  0.6469014E-010  0.9118800E+02  0.7816164E-02  0.1184000E+00
        -11   -1    0    0    0    0  0.00000000000E+00  0.00000000000E+00  0.45593999997E+02  0.45594000000E+02  0.51100000000E-03 0. -1.
         11   -1    0    0    0    0 -0.00000000000E+00 -0.00000000000E+00 -0.45593999997E+02  0.45594000000E+02  0.51100000000E-03 0.  1.
         23    2    1    2    0    0  0.00000000000E+00  0.00000000000E+00 -0.35527136788E-14  0.91188000000E+02  0.91188000000E+02 0.  0.
    9900012    2    3    3    0    0  0.42304317312E+01 -0.35988318703E+02  0.23886558107E+02  0.47787270814E+02  0.19999998948E+02 0.  0.
        -12    1    3    3    0    0 -0.42304317312E+01  0.35988318703E+02 -0.23886558107E+02  0.43400729186E+02  0.00000000000E+00 0.  1.
         11    1    4    4    0    0 -0.15643800951E+01 -0.97050205847E+01 -0.14195727989E+01  0.99322654427E+01  0.51100000000E-03 0. -1.
        -11    1    4    4    0    0  0.39174942096E+01 -0.72115973933E+01  0.37837519929E+01  0.90371830374E+01  0.51100000000E-03 0.  1.
         12    1    4    4    0    0  0.18773176167E+01 -0.19071700725E+02  0.21522378913E+02  0.28817822334E+02  0.00000000000E+00 0. -1.
</event>
<event>
 8    1  0.6469014E-010  0.9118800E+02  0.7816164E-02  0.1184000E+00
        -11   -1    0    0    0    0  0.00000000000E+00  0.00000000000E+00  0.45593999997E+02  0.45594000000E+02  0.51100000000E-03 0.  1.
         11   -1    0    0    0    0 -0.00000000000E+00 -0.00000000000E+00 -0.45593999997E+02  0.45594000000E+02  0.51100000000E-03 0. -1.
         23    2    1    2    0    0  0.00000000000E+00  0.00000000000E+00 -0.17763568394E-14  0.91188000000E+02  0.91188000000E+02 0.  0.
    9900012    2    3    3    0    0 -0.25079553038E+02  0.34253340913E+02 -0.90193259424E+01  0.47787267463E+02  0.19999983671E+02 0.  0.
         12    1    3    3    0    0  0.25079553038E+02 -0.34253340913E+02  0.90193259424E+01  0.43400732537E+02  0.00000000000E+00 0. -1.
         11    1    4    4    0    0 -0.10129025409E+02  0.10108347055E+02 -0.10276482958E+02  0.17617659838E+02  0.51100000000E-03 0. -1.
        -11    1    4    4    0    0 -0.14566483450E+02  0.22302088043E+02  0.39033349173E+01  0.26922139494E+02  0.51100000000E-03 0.  1.
        -12    1    4    4    0    0 -0.38404417830E+00  0.18429058149E+01 -0.26461779016E+01  0.32474681308E+01  0.00000000000E+00 0.  1.
</event>
<event>
 8    1  0.6469014E-010  0.9118800E+02  0.7816164E-02  0.1184000E+00
        -11   -1    0    0    0    0  0.00000000000E+00  0.00000000000E+00  0.45593999997E+02  0.45594000000E+02  0.51100000000E-03 0. -1.
         11   -1    0    0    0    0 -0.00000000000E+00 -0.00000000000E+00 -0.45593999997E+02  0.45594000000E+02  0.51100000000E-03 0.  1.
         23    2    1    2    0    0 -0.44408920985E-15  0.00000000000E+00  0.00000000000E+00  0.91188000000E+02  0.91188000000E+02 0.  0.
    9900012    2    3    3    0    0  0.31811686454E+01  0.16047201220E+02  0.40199389374E+02  0.47787269511E+02  0.19999993008E+02 0.  0.
        -12    1    3    3    0    0 -0.31811686454E+01 -0.16047201220E+02 -0.40199389374E+02  0.43400730489E+02  0.00000000000E+00 0.  1.
         11    1    4    4    0    0  0.98857343729E+01  0.65657746138E+01  0.12572350045E+02  0.17288757222E+02  0.51100000000E-03 0. -1.
        -11    1    4    4    0    0 -0.44122831961E+01  0.19235695428E+01  0.13215306254E+02  0.14064589665E+02  0.51100000000E-03 0.  1.
         12    1    4    4    0    0 -0.22922825314E+01  0.75578570635E+01  0.14411733075E+02  0.16433922624E+02  0.00000000000E+00 0. -1.
</event>
<event>
 8    1  0.6469014E-010  0.9118800E+02  0.7816164E-02  0.1184000E+00
        -11   -1    0    0    0    0  0.00000000000E+00  0.00000000000E+00  0.45593999997E+02  0.45594000000E+02  0.51100000000E-03 0. -1.
         11   -1    0    0    0    0 -0.00000000000E+00 -0.00000000000E+00 -0.45593999997E+02  0.45594000000E+02  0.51100000000E-03 0.  1.
         23    2    1    2    0    0 -0.22204460493E-15 -0.35527136788E-14  0.71054273576E-14  0.91188000000E+02  0.91188000000E+02 0.  0.
    9900012    2    3    3    0    0  0.16975896726E+01  0.26131995821E+02 -0.34610119992E+02  0.47787269337E+02  0.19999992214E+02 0.  0.
         12    1    3    3    0    0 -0.16975896726E+01 -0.26131995821E+02  0.34610119992E+02  0.43400730663E+02  0.00000000000E+00 0. -1.
         11    1    4    4    0    0  0.76653713273E+01  0.32896737515E+01 -0.10503808000E+02  0.13413047892E+02  0.51100000000E-03 0. -1.
        -11    1    4    4    0    0 -0.51510132961E+01  0.14925979281E+02 -0.19801393355E+02  0.25326132246E+02  0.51100000000E-03 0.  1.
         12    1    4    4    0    0 -0.81676835870E+00  0.79163427884E+01 -0.43049186364E+01  0.90480891995E+01  0.00000000000E+00 0. -1.
</event>
<event>
 8    1  0.7919517E-010  0.9118800E+02  0.7816164E-02  0.1184000E+00
        -11   -1    0    0    0    0  0.00000000000E+00  0.00000000000E+00  0.45593999997E+02  0.45594000000E+02  0.51100000000E-03 0. -1.
         11   -1    0    0    0    0 -0.00000000000E+00 -0.00000000000E+00 -0.45593999997E+02  0.45594000000E+02  0.51100000000E-03 0.  1.
         23    2    1    2    0    0  0.17763568394E-14 -0.88817841970E-15  0.00000000000E+00  0.91188000000E+02  0.91188000000E+02 0.  0.
    9900012    2    3    3    0    0 -0.80741342058E+01  0.19892457913E+01 -0.42596650922E+02  0.47787269456E+02  0.19999992757E+02 0.  0.
         12    1    3    3    0    0  0.80741342058E+01 -0.19892457913E+01  0.42596650922E+02  0.43400730544E+02  0.00000000000E+00 0. -1.
         11    1    4    4    0    0  0.13449293580E+01  0.62615654205E+01 -0.20359254701E+02  0.21342804144E+02  0.51100000000E-03 0. -1.
        -11    1    4    4    0    0 -0.28135134331E+01  0.85937290014E+00 -0.15291425505E+02  0.15571835918E+02  0.51100000000E-03 0.  1.
         12    1    4    4    0    0 -0.66055501307E+01 -0.51316925294E+01 -0.69459707154E+01  0.10872629393E+02  0.00000000000E+00 0. -1.
</event>
<event>
 8    1  0.6469014E-010  0.9118800E+02  0.7816164E-02  0.1184000E+00
        -11   -1    0    0    0    0  0.00000000000E+00  0.00000000000E+00  0.45593999997E+02  0.45594000000E+02  0.51100000000E-03 0.  1.
         11   -1    0    0    0    0 -0.00000000000E+00 -0.00000000000E+00 -0.45593999997E+02  0.45594000000E+02  0.51100000000E-03 0. -1.
         23    2    1    2    0    0  0.35527136788E-14  0.00000000000E+00  0.88817841970E-15  0.91188000000E+02  0.91188000000E+02 0.  0.
    9900012    2    3    3    0    0  0.21502166333E+02 -0.37067013693E+02 -0.68787164746E+01  0.47787269575E+02  0.19999993300E+02 0.  0.
         12    1    3    3    0    0 -0.21502166333E+02  0.37067013693E+02  0.68787164746E+01  0.43400730425E+02  0.00000000000E+00 0. -1.
         11    1    4    4    0    0  0.89558546893E+00 -0.32352808128E+01  0.32355552191E+01  0.46623956403E+01  0.51100000000E-03 0. -1.
        -11    1    4    4    0    0 -0.17803816035E+01 -0.50917265378E+01 -0.33264561008E+00  0.54042660143E+01  0.51100000000E-03 0.  1.
        -12    1    4    4    0    0  0.22386962467E+02 -0.28740006342E+02 -0.97816260836E+01  0.37720607920E+02  0.00000000000E+00 0.  1.
</event>
<event>
 8    1  0.6469014E-010  0.9118800E+02  0.7816164E-02  0.1184000E+00
        -11   -1    0    0    0    0  0.00000000000E+00  0.00000000000E+00  0.45593999997E+02  0.45594000000E+02  0.51100000000E-03 0. -1.
         11   -1    0    0    0    0 -0.00000000000E+00 -0.00000000000E+00 -0.45593999997E+02  0.45594000000E+02  0.51100000000E-03 0.  1.
         23    2    1    2    0    0  0.00000000000E+00  0.00000000000E+00 -0.71054273576E-14  0.91188000000E+02  0.91188000000E+02 0.  0.
    9900012    2    3    3    0    0 -0.17708164370E+02 -0.43654034866E+01  0.39382567385E+02  0.47787280573E+02  0.20000043446E+02 0.  0.
        -12    1    3    3    0    0  0.17708164370E+02  0.43654034866E+01 -0.39382567385E+02  0.43400719427E+02  0.00000000000E+00 0.  1.
         11    1    4    4    0    0 -0.15865564202E+02 -0.32965170397E+01  0.18468437700E+02  0.24569622369E+02  0.51100000000E-03 0. -1.
        -11    1    4    4    0    0  0.34670051762E+01  0.14604560519E+01  0.50413973625E+01  0.62903691782E+01  0.51100000000E-03 0.  1.
         12    1    4    4    0    0 -0.53096053441E+01 -0.25293424988E+01  0.15872732322E+02  0.16927289026E+02  0.00000000000E+00 0. -1.
</event>
<event>
 8    1  0.6469014E-010  0.9118800E+02  0.7816164E-02  0.1184000E+00
        -11   -1    0    0    0    0  0.00000000000E+00  0.00000000000E+00  0.45593999997E+02  0.45594000000E+02  0.51100000000E-03 0. -1.
         11   -1    0    0    0    0 -0.00000000000E+00 -0.00000000000E+00 -0.45593999997E+02  0.45594000000E+02  0.51100000000E-03 0.  1.
         23    2    1    2    0    0 -0.17763568394E-14  0.00000000000E+00  0.71054273576E-14  0.91188000000E+02  0.91188000000E+02 0.  0.
    9900012    2    3    3    0    0  0.10218227370E+02  0.12698890440E+02 -0.40223735500E+02  0.47787275507E+02  0.20000020345E+02 0.  0.
         12    1    3    3    0    0 -0.10218227370E+02 -0.12698890440E+02  0.40223735500E+02  0.43400724493E+02  0.00000000000E+00 0. -1.
         11    1    4    4    0    0  0.12197672266E+01  0.17097407083E+00  0.92514428421E-01  0.12351612852E+01  0.51100000000E-03 0. -1.
        -11    1    4    4    0    0 -0.25441562105E+01 -0.29936048000E+01 -0.70809975012E+01  0.80978346732E+01  0.51100000000E-03 0.  1.
        -12    1    4    4    0    0  0.11542616354E+02  0.15521521169E+02 -0.33235252427E+02  0.38454279548E+02  0.00000000000E+00 0.  1.
</event>
<event>
 8    1  0.6469014E-010  0.9118800E+02  0.7816164E-02  0.1184000E+00
        -11   -1    0    0    0    0  0.00000000000E+00  0.00000000000E+00  0.45593999997E+02  0.45594000000E+02  0.51100000000E-03 0. -1.
         11   -1    0    0    0    0 -0.00000000000E+00 -0.00000000000E+00 -0.45593999997E+02  0.45594000000E+02  0.51100000000E-03 0.  1.
         23    2    1    2    0    0  0.00000000000E+00  0.00000000000E+00  0.00000000000E+00  0.91188000000E+02  0.91188000000E+02 0.  0.
    9900012    2    3    3    0    0  0.15600218884E+02  0.34687643968E+02 -0.20905129263E+02  0.47787263799E+02  0.19999966965E+02 0.  0.
         12    1    3    3    0    0 -0.15600218884E+02 -0.34687643968E+02  0.20905129263E+02  0.43400736201E+02  0.00000000000E+00 0. -1.
         11    1    4    4    0    0 -0.31460156829E+01  0.63879400695E+01 -0.11767672739E+01  0.72171999062E+01  0.51100000000E-03 0. -1.
        -11    1    4    4    0    0  0.13163014256E+02  0.10735833252E+02 -0.85702739296E+01  0.19025578977E+02  0.51100000000E-03 0.  1.
        -12    1    4    4    0    0  0.55832203110E+01  0.17563870647E+02 -0.11158088059E+02  0.21544484916E+02  0.00000000000E+00 0.  1.
</event>
<event>
 8    1  0.6469014E-010  0.9118800E+02  0.7816164E-02  0.1184000E+00
        -11   -1    0    0    0    0  0.00000000000E+00  0.00000000000E+00  0.45593999997E+02  0.45594000000E+02  0.51100000000E-03 0. -1.
         11   -1    0    0    0    0 -0.00000000000E+00 -0.00000000000E+00 -0.45593999997E+02  0.45594000000E+02  0.51100000000E-03 0.  1.
         23    2    1    2    0    0  0.00000000000E+00  0.00000000000E+00  0.00000000000E+00  0.91188000000E+02  0.91188000000E+02 0.  0.
    9900012    2    3    3    0    0  0.41065649520E+01 -0.15690068645E+02  0.40256437602E+02  0.47787275373E+02  0.20000019734E+02 0.  0.
        -12    1    3    3    0    0 -0.41065649520E+01  0.15690068645E+02 -0.40256437602E+02  0.43400724627E+02  0.00000000000E+00 0.  1.
         11    1    4    4    0    0 -0.49074254423E+01 -0.25763707213E+01  0.51674874657E+01  0.75778253829E+01  0.51100000000E-03 0.  1.
        -11    1    4    4    0    0  0.53909802557E+01 -0.50657629495E+01  0.27786162349E+02  0.28754050857E+02  0.51100000000E-03 0. -1.
        -12    1    4    4    0    0  0.36230101385E+01 -0.80479349739E+01  0.73027877875E+01  0.11455399132E+02  0.00000000000E+00 0.  1.
</event>
<event>
 8    1  0.6469014E-010  0.9118800E+02  0.7816164E-02  0.1184000E+00
        -11   -1    0    0    0    0  0.00000000000E+00  0.00000000000E+00  0.45593999997E+02  0.45594000000E+02  0.51100000000E-03 0. -1.
         11   -1    0    0    0    0 -0.00000000000E+00 -0.00000000000E+00 -0.45593999997E+02  0.45594000000E+02  0.51100000000E-03 0.  1.
         23    2    1    2    0    0  0.35527136788E-14  0.88817841970E-15 -0.71054273576E-14  0.91188000000E+02  0.91188000000E+02 0.  0.
    9900012    2    3    3    0    0 -0.19937874529E+02 -0.70713018422E+01  0.37895922023E+02  0.47787273550E+02  0.20000011422E+02 0.  0.
        -12    1    3    3    0    0  0.19937874529E+02  0.70713018422E+01 -0.37895922023E+02  0.43400726450E+02  0.00000000000E+00 0.  1.
         11    1    4    4    0    0 -0.12207211097E+02  0.35515308593E+01  0.23325710526E+02  0.26565356124E+02  0.51100000000E-03 0. -1.
        -11    1    4    4    0    0 -0.93418962664E+01 -0.99023180848E+01  0.13414616202E+02  0.19112269813E+02  0.51100000000E-03 0.  1.
         12    1    4    4    0    0  0.16112328350E+01 -0.72051461677E+00  0.11555952949E+01  0.21096476121E+01  0.00000000000E+00 0. -1.
</event>
<event>
 8    1  0.6469014E-010  0.9118800E+02  0.7816164E-02  0.1184000E+00
        -11   -1    0    0    0    0  0.00000000000E+00  0.00000000000E+00  0.45593999997E+02  0.45594000000E+02  0.51100000000E-03 0. -1.
         11   -1    0    0    0    0 -0.00000000000E+00 -0.00000000000E+00 -0.45593999997E+02  0.45594000000E+02  0.51100000000E-03 0.  1.
         23    2    1    2    0    0 -0.88817841970E-15  0.00000000000E+00  0.00000000000E+00  0.91188000000E+02  0.91188000000E+02 0.  0.
    9900012    2    3    3    0    0 -0.62829840364E+01  0.30330075294E+02  0.30401213909E+02  0.47787272323E+02  0.20000005830E+02 0.  0.
        -12    1    3    3    0    0  0.62829840364E+01 -0.30330075294E+02 -0.30401213909E+02  0.43400727677E+02  0.00000000000E+00 0.  1.
         11    1    4    4    0    0  0.46506399905E+01  0.16798386494E+02  0.12872330952E+02  0.21668205867E+02  0.51100000000E-03 0. -1.
        -11    1    4    4    0    0 -0.73715330270E+00  0.34545053742E+00 -0.93796708681E+00  0.12419797029E+01  0.51100000000E-03 0.  1.
         12    1    4    4    0    0 -0.10196470724E+02  0.13186238262E+02  0.18466850044E+02  0.24877086753E+02  0.00000000000E+00 0. -1.
</event>
<event>
 8    1  0.6469014E-010  0.9118800E+02  0.7816164E-02  0.1184000E+00
        -11   -1    0    0    0    0  0.00000000000E+00  0.00000000000E+00  0.45593999997E+02  0.45594000000E+02  0.51100000000E-03 0. -1.
         11   -1    0    0    0    0 -0.00000000000E+00 -0.00000000000E+00 -0.45593999997E+02  0.45594000000E+02  0.51100000000E-03 0.  1.
         23    2    1    2    0    0 -0.44408920985E-15  0.00000000000E+00  0.00000000000E+00  0.91188000000E+02  0.91188000000E+02 0.  0.
    9900012    2    3    3    0    0 -0.37751490350E+01  0.37178429067E+02 -0.22071154343E+02  0.47787271986E+02  0.20000004294E+02 0.  0.
         12    1    3    3    0    0  0.37751490350E+01 -0.37178429067E+02  0.22071154343E+02  0.43400728014E+02  0.00000000000E+00 0. -1.
         11    1    4    4    0    0 -0.79920595867E+01  0.20350443792E+02 -0.17439762127E+02  0.27967103573E+02  0.51100000000E-03 0. -1.
        -11    1    4    4    0    0  0.45828514037E+01  0.10010112743E+02  0.88168709191E+00  0.11044557778E+02  0.51100000000E-03 0.  1.
        -12    1    4    4    0    0 -0.36594085188E+00  0.68178725322E+01 -0.55130793075E+01  0.87756106353E+01  0.00000000000E+00 0.  1.
</event>
<event>
 8    1  0.6469014E-010  0.9118800E+02  0.7816164E-02  0.1184000E+00
        -11   -1    0    0    0    0  0.00000000000E+00  0.00000000000E+00  0.45593999997E+02  0.45594000000E+02  0.51100000000E-03 0. -1.
         11   -1    0    0    0    0 -0.00000000000E+00 -0.00000000000E+00 -0.45593999997E+02  0.45594000000E+02  0.51100000000E-03 0.  1.
         23    2    1    2    0    0  0.00000000000E+00  0.00000000000E+00  0.00000000000E+00  0.91188000000E+02  0.91188000000E+02 0.  0.
    9900012    2    3    3    0    0 -0.30637213725E+02  0.89715081967E+01 -0.29402321139E+02  0.47787270599E+02  0.19999997971E+02 0.  0.
         12    1    3    3    0    0  0.30637213725E+02 -0.89715081967E+01  0.29402321139E+02  0.43400729401E+02  0.00000000000E+00 0. -1.
         11    1    4    4    0    0 -0.62311714632E+00  0.54640207045E+01 -0.65754026500E+01  0.85720311192E+01  0.51100000000E-03 0. -1.
        -11    1    4    4    0    0 -0.18590315909E+02 -0.18175598296E+01 -0.98183495956E+01  0.21102212168E+02  0.51100000000E-03 0.  1.
        -12    1    4    4    0    0 -0.11423780670E+02  0.53250473218E+01 -0.13008568893E+02  0.18113027313E+02  0.00000000000E+00 0.  1.
</event>
<event>
 8    1  0.6469014E-010  0.9118800E+02  0.7816164E-02  0.1184000E+00
        -11   -1    0    0    0    0  0.00000000000E+00  0.00000000000E+00  0.45593999997E+02  0.45594000000E+02  0.51100000000E-03 0. -1.
         11   -1    0    0    0    0 -0.00000000000E+00 -0.00000000000E+00 -0.45593999997E+02  0.45594000000E+02  0.51100000000E-03 0.  1.
         23    2    1    2    0    0  0.00000000000E+00  0.00000000000E+00  0.00000000000E+00  0.91188000000E+02  0.91188000000E+02 0.  0.
    9900012    2    3    3    0    0 -0.41806940788E+02 -0.77562833416E+01  0.86973058786E+01  0.47787270065E+02  0.19999995534E+02 0.  0.
        -12    1    3    3    0    0  0.41806940788E+02  0.77562833416E+01 -0.86973058786E+01  0.43400729935E+02  0.00000000000E+00 0.  1.
         11    1    4    4    0    0 -0.16108017481E+02  0.37933706716E+01  0.93036863186E+01  0.18984637673E+02  0.51100000000E-03 0. -1.
        -11    1    4    4    0    0 -0.78178902718E+00  0.45146530939E+00 -0.70558213514E+00  0.11458016491E+01  0.51100000000E-03 0.  1.
         12    1    4    4    0    0 -0.24917134281E+02 -0.12001119323E+02  0.99201695190E-01  0.27656830743E+02  0.00000000000E+00 0. -1.
</event>
<event>
 8    1  0.6469014E-010  0.9118800E+02  0.7816164E-02  0.1184000E+00
        -11   -1    0    0    0    0  0.00000000000E+00  0.00000000000E+00  0.45593999997E+02  0.45594000000E+02  0.51100000000E-03 0. -1.
         11   -1    0    0    0    0 -0.00000000000E+00 -0.00000000000E+00 -0.45593999997E+02  0.45594000000E+02  0.51100000000E-03 0.  1.
         23    2    1    2    0    0  0.00000000000E+00  0.44408920985E-15 -0.35527136788E-14  0.91188000000E+02  0.91188000000E+02 0.  0.
    9900012    2    3    3    0    0  0.30965205578E+02 -0.13170326290E+01 -0.30381665813E+02  0.47787260963E+02  0.19999954034E+02 0.  0.
         12    1    3    3    0    0 -0.30965205578E+02  0.13170326290E+01  0.30381665813E+02  0.43400739037E+02  0.00000000000E+00 0. -1.
         11    1    4    4    0    0  0.22941475908E+02  0.40213450035E+00 -0.20523909440E+02  0.30784799625E+02  0.51100000000E-03 0. -1.
        -11    1    4    4    0    0  0.32972654955E+01  0.75958103181E+00  0.20480426024E+01  0.39551740612E+01  0.51100000000E-03 0.  1.
        -12    1    4    4    0    0  0.47264641736E+01 -0.24787481612E+01 -0.11905798975E+02  0.13047287276E+02  0.00000000000E+00 0.  1.
</event>
<event>
 8    1  0.6469014E-010  0.9118800E+02  0.7816164E-02  0.1184000E+00
        -11   -1    0    0    0    0  0.00000000000E+00  0.00000000000E+00  0.45593999997E+02  0.45594000000E+02  0.51100000000E-03 0. -1.
         11   -1    0    0    0    0 -0.00000000000E+00 -0.00000000000E+00 -0.45593999997E+02  0.45594000000E+02  0.51100000000E-03 0.  1.
         23    2    1    2    0    0  0.00000000000E+00  0.44408920985E-15  0.00000000000E+00  0.91188000000E+02  0.91188000000E+02 0.  0.
    9900012    2    3    3    0    0 -0.24274478423E+02  0.17561698159E+01  0.35934512004E+02  0.47787267424E+02  0.19999983495E+02 0.  0.
        -12    1    3    3    0    0  0.24274478423E+02 -0.17561698159E+01 -0.35934512004E+02  0.43400732576E+02  0.00000000000E+00 0.  1.
         11    1    4    4    0    0 -0.50232886250E+01  0.12727440807E+01  0.40117906863E+01  0.65534548810E+01  0.51100000000E-03 0. -1.
        -11    1    4    4    0    0 -0.19814364450E+02 -0.50786761672E+01  0.23945991523E+02  0.31493054797E+02  0.51100000000E-03 0.  1.
        -12    1    4    4    0    0  0.56317465132E+00  0.55621019025E+01  0.79767297947E+01  0.97407577467E+01  0.00000000000E+00 0.  1.
</event>
<event>
 8    1  0.6469014E-010  0.9118800E+02  0.7816164E-02  0.1184000E+00
        -11   -1    0    0    0    0  0.00000000000E+00  0.00000000000E+00  0.45593999997E+02  0.45594000000E+02  0.51100000000E-03 0. -1.
         11   -1    0    0    0    0 -0.00000000000E+00 -0.00000000000E+00 -0.45593999997E+02  0.45594000000E+02  0.51100000000E-03 0.  1.
         23    2    1    2    0    0  0.35527136788E-14  0.00000000000E+00  0.00000000000E+00  0.91188000000E+02  0.91188000000E+02 0.  0.
    9900012    2    3    3    0    0 -0.22207038252E+02  0.10380308227E+02 -0.35815080609E+02  0.47787270216E+02  0.19999996221E+02 0.  0.
         12    1    3    3    0    0  0.22207038252E+02 -0.10380308227E+02  0.35815080609E+02  0.43400729784E+02  0.00000000000E+00 0. -1.
         11    1    4    4    0    0 -0.56265094138E+01  0.43612415590E+01 -0.14293384857E+01  0.72609258974E+01  0.51100000000E-03 0. -1.
        -11    1    4    4    0    0 -0.14032716059E+02 -0.91105944099E+00 -0.22798645733E+02  0.26786664533E+02  0.51100000000E-03 0.  1.
        -12    1    4    4    0    0 -0.25478127791E+01  0.69301261092E+01 -0.11587096390E+02  0.13739679785E+02  0.00000000000E+00 0.  1.
</event>
<event>
 8    1  0.6469014E-010  0.9118800E+02  0.7816164E-02  0.1184000E+00
        -11   -1    0    0    0    0  0.00000000000E+00  0.00000000000E+00  0.45593999997E+02  0.45594000000E+02  0.51100000000E-03 0. -1.
         11   -1    0    0    0    0 -0.00000000000E+00 -0.00000000000E+00 -0.45593999997E+02  0.45594000000E+02  0.51100000000E-03 0.  1.
         23    2    1    2    0    0  0.00000000000E+00  0.00000000000E+00  0.00000000000E+00  0.91188000000E+02  0.91188000000E+02 0.  0.
    9900012    2    3    3    0    0  0.19527189111E+02  0.29756539838E+02 -0.24836679410E+02  0.47787269340E+02  0.19999992228E+02 0.  0.
         12    1    3    3    0    0 -0.19527189111E+02 -0.29756539838E+02  0.24836679410E+02  0.43400730660E+02  0.00000000000E+00 0. -1.
         11    1    4    4    0    0  0.12284355485E+02  0.67905160532E+01 -0.11316816522E+02  0.18030164570E+02  0.51100000000E-03 0. -1.
        -11    1    4    4    0    0  0.38215926414E+01  0.14214461113E+02 -0.19432375511E+01  0.14846940678E+02  0.51100000000E-03 0.  1.
         12    1    4    4    0    0  0.34212409847E+01  0.87515626716E+01 -0.11576625337E+02  0.14910164092E+02  0.00000000000E+00 0. -1.
</event>
<event>
 8    1  0.6469014E-010  0.9118800E+02  0.7816164E-02  0.1184000E+00
        -11   -1    0    0    0    0  0.00000000000E+00  0.00000000000E+00  0.45593999997E+02  0.45594000000E+02  0.51100000000E-03 0.  1.
         11   -1    0    0    0    0 -0.00000000000E+00 -0.00000000000E+00 -0.45593999997E+02  0.45594000000E+02  0.51100000000E-03 0. -1.
         23    2    1    2    0    0  0.35527136788E-14 -0.71054273576E-14  0.00000000000E+00  0.91188000000E+02  0.91188000000E+02 0.  0.
    9900012    2    3    3    0    0 -0.26847652987E+02  0.31994215267E+02  0.11798158703E+02  0.47787276155E+02  0.20000023303E+02 0.  0.
        -12    1    3    3    0    0  0.26847652987E+02 -0.31994215267E+02 -0.11798158703E+02  0.43400723845E+02  0.00000000000E+00 0.  1.
         11    1    4    4    0    0 -0.63347171125E+00 -0.46481033841E-01 -0.22137703561E+01  0.23030906075E+01  0.51100000000E-03 0. -1.
        -11    1    4    4    0    0 -0.43248900875E+01  0.30037192442E+01 -0.21542952464E+01  0.56892874630E+01  0.51100000000E-03 0.  1.
         12    1    4    4    0    0 -0.21889291188E+02  0.29036977057E+02  0.16166224306E+02  0.39794898085E+02  0.00000000000E+00 0. -1.
</event>
<event>
 8    1  0.6469014E-010  0.9118800E+02  0.7816164E-02  0.1184000E+00
        -11   -1    0    0    0    0  0.00000000000E+00  0.00000000000E+00  0.45593999997E+02  0.45594000000E+02  0.51100000000E-03 0. -1.
         11   -1    0    0    0    0 -0.00000000000E+00 -0.00000000000E+00 -0.45593999997E+02  0.45594000000E+02  0.51100000000E-03 0.  1.
         23    2    1    2    0    0  0.00000000000E+00  0.00000000000E+00 -0.35527136788E-14  0.91188000000E+02  0.91188000000E+02 0.  0.
    9900012    2    3    3    0    0  0.17652067683E+02 -0.27148661684E+02  0.28895984778E+02  0.47787271193E+02  0.20000000675E+02 0.  0.
        -12    1    3    3    0    0 -0.17652067683E+02  0.27148661684E+02 -0.28895984778E+02  0.43400728807E+02  0.00000000000E+00 0.  1.
         11    1    4    4    0    0  0.62316766642E+01  0.55800867924E+00  0.54836014294E+01  0.83195584397E+01  0.51100000000E-03 0. -1.
        -11    1    4    4    0    0  0.56352120637E+01 -0.14316549494E+02  0.18532236304E+02  0.24086572756E+02  0.51100000000E-03 0.  1.
        -12    1    4    4    0    0  0.57851789549E+01 -0.13390120869E+02  0.48801470446E+01  0.15381139997E+02  0.00000000000E+00 0.  1.
</event>
<event>
 8    1  0.6469014E-010  0.9118800E+02  0.7816164E-02  0.1184000E+00
        -11   -1    0    0    0    0  0.00000000000E+00  0.00000000000E+00  0.45593999997E+02  0.45594000000E+02  0.51100000000E-03 0. -1.
         11   -1    0    0    0    0 -0.00000000000E+00 -0.00000000000E+00 -0.45593999997E+02  0.45594000000E+02  0.51100000000E-03 0.  1.
         23    2    1    2    0    0  0.17763568394E-14 -0.35527136788E-14  0.35527136788E-14  0.91188000000E+02  0.91188000000E+02 0.  0.
    9900012    2    3    3    0    0  0.11102209800E+02 -0.29250627244E+02  0.30079296008E+02  0.47787282207E+02  0.20000050893E+02 0.  0.
        -12    1    3    3    0    0 -0.11102209800E+02  0.29250627244E+02 -0.30079296008E+02  0.43400717793E+02  0.00000000000E+00 0.  1.
         11    1    4    4    0    0  0.18220856839E+01 -0.24134804103E+02  0.17099129426E+02  0.29634253707E+02  0.51100000000E-03 0. -1.
        -11    1    4    4    0    0  0.65140898354E+01  0.63511326446E-01  0.87843939888E+01  0.10936314648E+02  0.51100000000E-03 0.  1.
         12    1    4    4    0    0  0.27660342805E+01 -0.51793344673E+01  0.41957725933E+01  0.72167138518E+01  0.00000000000E+00 0. -1.
</event>
<event>
 8    1  0.6469014E-010  0.9118800E+02  0.7816164E-02  0.1184000E+00
        -11   -1    0    0    0    0  0.00000000000E+00  0.00000000000E+00  0.45593999997E+02  0.45594000000E+02  0.51100000000E-03 0. -1.
         11   -1    0    0    0    0 -0.00000000000E+00 -0.00000000000E+00 -0.45593999997E+02  0.45594000000E+02  0.51100000000E-03 0.  1.
         23    2    1    2    0    0  0.88817841970E-15  0.00000000000E+00  0.00000000000E+00  0.91188000000E+02  0.91188000000E+02 0.  0.
    9900012    2    3    3    0    0 -0.59976866320E+01 -0.26203170056E+02 -0.34074107290E+02  0.47787272431E+02  0.20000006322E+02 0.  0.
         12    1    3    3    0    0  0.59976866320E+01  0.26203170056E+02  0.34074107290E+02  0.43400727569E+02  0.00000000000E+00 0. -1.
         11    1    4    4    0    0 -0.18049563429E+01  0.23658961966E+01 -0.23041730349E+01  0.37635815188E+01  0.51100000000E-03 0. -1.
        -11    1    4    4    0    0  0.70818121644E+00 -0.14652267315E+02 -0.10109644971E+02  0.17815593726E+02  0.51100000000E-03 0.  1.
        -12    1    4    4    0    0 -0.49009115056E+01 -0.13916798937E+02 -0.21660289284E+02  0.26208097186E+02  0.00000000000E+00 0.  1.
</event>
<event>
 8    1  0.6469014E-010  0.9118800E+02  0.7816164E-02  0.1184000E+00
        -11   -1    0    0    0    0  0.00000000000E+00  0.00000000000E+00  0.45593999997E+02  0.45594000000E+02  0.51100000000E-03 0. -1.
         11   -1    0    0    0    0 -0.00000000000E+00 -0.00000000000E+00 -0.45593999997E+02  0.45594000000E+02  0.51100000000E-03 0.  1.
         23    2    1    2    0    0 -0.88817841970E-15  0.00000000000E+00  0.00000000000E+00  0.91188000000E+02  0.91188000000E+02 0.  0.
    9900012    2    3    3    0    0  0.58507509728E+01 -0.10726328525E+02 -0.41645382781E+02  0.47787270541E+02  0.19999997706E+02 0.  0.
         12    1    3    3    0    0 -0.58507509728E+01  0.10726328525E+02  0.41645382781E+02  0.43400729459E+02  0.00000000000E+00 0. -1.
         11    1    4    4    0    0  0.54872571912E+00 -0.10650461212E+02 -0.20026033793E+02  0.22688663550E+02  0.51100000000E-03 0. -1.
        -11    1    4    4    0    0  0.14366000189E+01  0.41772750627E+01 -0.23770470066E+01  0.50163531870E+01  0.51100000000E-03 0.  1.
        -12    1    4    4    0    0  0.38654252348E+01 -0.42531423758E+01 -0.19242301981E+02  0.20082253804E+02  0.00000000000E+00 0.  1.
</event>
<event>
 8    1  0.6469014E-010  0.9118800E+02  0.7816164E-02  0.1184000E+00
        -11   -1    0    0    0    0  0.00000000000E+00  0.00000000000E+00  0.45593999997E+02  0.45594000000E+02  0.51100000000E-03 0. -1.
         11   -1    0    0    0    0 -0.00000000000E+00 -0.00000000000E+00 -0.45593999997E+02  0.45594000000E+02  0.51100000000E-03 0.  1.
         23    2    1    2    0    0  0.00000000000E+00  0.00000000000E+00  0.00000000000E+00  0.91188000000E+02  0.91188000000E+02 0.  0.
    9900012    2    3    3    0    0  0.12037519590E+02 -0.40288815317E+02  0.10748619229E+02  0.47787270365E+02  0.19999996900E+02 0.  0.
        -12    1    3    3    0    0 -0.12037519590E+02  0.40288815317E+02 -0.10748619229E+02  0.43400729635E+02  0.00000000000E+00 0.  1.
         11    1    4    4    0    0  0.33266944008E+01 -0.40731151767E+01  0.38676682029E+01  0.65280947043E+01  0.51100000000E-03 0. -1.
        -11    1    4    4    0    0  0.95129265447E+00 -0.23373200433E+01 -0.40962942692E+01  0.48112004427E+01  0.51100000000E-03 0.  1.
        -12    1    4    4    0    0  0.77595325345E+01 -0.33878380097E+02  0.10977245295E+02  0.36447975218E+02  0.00000000000E+00 0.  1.
</event>
<event>
 8    1  0.6469014E-010  0.9118800E+02  0.7816164E-02  0.1184000E+00
        -11   -1    0    0    0    0  0.00000000000E+00  0.00000000000E+00  0.45593999997E+02  0.45594000000E+02  0.51100000000E-03 0. -1.
         11   -1    0    0    0    0 -0.00000000000E+00 -0.00000000000E+00 -0.45593999997E+02  0.45594000000E+02  0.51100000000E-03 0.  1.
         23    2    1    2    0    0  0.00000000000E+00  0.00000000000E+00  0.35527136788E-14  0.91188000000E+02  0.91188000000E+02 0.  0.
    9900012    2    3    3    0    0 -0.85869172295E+01  0.31712051269E+02 -0.28359016404E+02  0.47787272419E+02  0.20000006265E+02 0.  0.
         12    1    3    3    0    0  0.85869172295E+01 -0.31712051269E+02  0.28359016404E+02  0.43400727581E+02  0.00000000000E+00 0. -1.
         11    1    4    4    0    0 -0.72894702868E+01  0.23593953884E+02 -0.12164382394E+02  0.27527862907E+02  0.51100000000E-03 0. -1.
        -11    1    4    4    0    0 -0.36224462315E+01  0.64320052859E+01 -0.15694887200E+02  0.17344229392E+02  0.51100000000E-03 0.  1.
        -12    1    4    4    0    0  0.23249992888E+01  0.16860920983E+01 -0.49974681068E+00  0.29151801199E+01  0.00000000000E+00 0.  1.
</event>
<event>
 8    1  0.6469014E-010  0.9118800E+02  0.7816164E-02  0.1184000E+00
        -11   -1    0    0    0    0  0.00000000000E+00  0.00000000000E+00  0.45593999997E+02  0.45594000000E+02  0.51100000000E-03 0. -1.
         11   -1    0    0    0    0 -0.00000000000E+00 -0.00000000000E+00 -0.45593999997E+02  0.45594000000E+02  0.51100000000E-03 0.  1.
         23    2    1    2    0    0 -0.71054273576E-14  0.00000000000E+00  0.35527136788E-14  0.91188000000E+02  0.91188000000E+02 0.  0.
    9900012    2    3    3    0    0 -0.34255810185E+02 -0.82298735030E+01  0.25346235963E+02  0.47787273891E+02  0.20000012977E+02 0.  0.
        -12    1    3    3    0    0  0.34255810185E+02  0.82298735030E+01 -0.25346235963E+02  0.43400726109E+02  0.00000000000E+00 0.  1.
         11    1    4    4    0    0  0.97376958496E+00 -0.41979425588E+01  0.47587106032E+01  0.64199903269E+01  0.51100000000E-03 0. -1.
        -11    1    4    4    0    0 -0.17911320905E+02 -0.26226134850E+00  0.79425915460E+01  0.19595125881E+02  0.51100000000E-03 0.  1.
         12    1    4    4    0    0 -0.17318258866E+02 -0.37696695957E+01  0.12644933814E+02  0.21772157682E+02  0.00000000000E+00 0. -1.
</event>
<event>
 8    1  0.6469014E-010  0.9118800E+02  0.7816164E-02  0.1184000E+00
        -11   -1    0    0    0    0  0.00000000000E+00  0.00000000000E+00  0.45593999997E+02  0.45594000000E+02  0.51100000000E-03 0. -1.
         11   -1    0    0    0    0 -0.00000000000E+00 -0.00000000000E+00 -0.45593999997E+02  0.45594000000E+02  0.51100000000E-03 0.  1.
         23    2    1    2    0    0 -0.35527136788E-14  0.00000000000E+00  0.00000000000E+00  0.91188000000E+02  0.91188000000E+02 0.  0.
    9900012    2    3    3    0    0  0.16570271877E+02  0.20642446148E+01  0.40059807895E+02  0.47787271613E+02  0.20000002593E+02 0.  0.
        -12    1    3    3    0    0 -0.16570271877E+02 -0.20642446148E+01 -0.40059807895E+02  0.43400728387E+02  0.00000000000E+00 0.  1.
         11    1    4    4    0    0  0.20147149084E+02 -0.16847266210E+01  0.29701169925E+02  0.35929172203E+02  0.51100000000E-03 0. -1.
        -11    1    4    4    0    0 -0.29282710612E+01  0.17812992238E+01  0.80881405380E+01  0.87844075472E+01  0.51100000000E-03 0.  1.
         12    1    4    4    0    0 -0.64860614640E+00  0.19676720120E+01  0.22704974322E+01  0.30736918632E+01  0.00000000000E+00 0. -1.
</event>
<event>
 8    1  0.6469014E-010  0.9118800E+02  0.7816164E-02  0.1184000E+00
        -11   -1    0    0    0    0  0.00000000000E+00  0.00000000000E+00  0.45593999997E+02  0.45594000000E+02  0.51100000000E-03 0. -1.
         11   -1    0    0    0    0 -0.00000000000E+00 -0.00000000000E+00 -0.45593999997E+02  0.45594000000E+02  0.51100000000E-03 0.  1.
         23    2    1    2    0    0  0.00000000000E+00  0.71054273576E-14 -0.35527136788E-14  0.91188000000E+02  0.91188000000E+02 0.  0.
    9900012    2    3    3    0    0  0.12049012642E+02 -0.38785671834E+02  0.15300856519E+02  0.47787271256E+02  0.20000000967E+02 0.  0.
        -12    1    3    3    0    0 -0.12049012642E+02  0.38785671834E+02 -0.15300856519E+02  0.43400728744E+02  0.00000000000E+00 0.  1.
         11    1    4    4    0    0  0.34516159261E+01 -0.13003358688E+02  0.10599503020E+02  0.17127476586E+02  0.51100000000E-03 0. -1.
        -11    1    4    4    0    0  0.42771294447E+01 -0.73605189795E+00 -0.13273435374E+01  0.45384413415E+01  0.51100000000E-03 0.  1.
        -12    1    4    4    0    0  0.43202672716E+01 -0.25046261247E+02  0.60286970370E+01  0.26121353329E+02  0.00000000000E+00 0.  1.
</event>
<event>
 8    1  0.6469014E-010  0.9118800E+02  0.7816164E-02  0.1184000E+00
        -11   -1    0    0    0    0  0.00000000000E+00  0.00000000000E+00  0.45593999997E+02  0.45594000000E+02  0.51100000000E-03 0. -1.
         11   -1    0    0    0    0 -0.00000000000E+00 -0.00000000000E+00 -0.45593999997E+02  0.45594000000E+02  0.51100000000E-03 0.  1.
         23    2    1    2    0    0 -0.22204460493E-15 -0.17763568394E-14  0.71054273576E-14  0.91188000000E+02  0.91188000000E+02 0.  0.
    9900012    2    3    3    0    0 -0.10989228262E+01  0.15827874493E+02 -0.40396688151E+02  0.47787289684E+02  0.20000084984E+02 0.  0.
         12    1    3    3    0    0  0.10989228262E+01 -0.15827874493E+02  0.40396688151E+02  0.43400710316E+02  0.00000000000E+00 0. -1.
         11    1    4    4    0    0  0.21368614052E+01  0.22021216745E+01  0.15938133149E+01  0.34577098892E+01  0.51100000000E-03 0. -1.
        -11    1    4    4    0    0 -0.21764343911E+01  0.47127577453E+01 -0.17075185327E+02  0.17846817824E+02  0.51100000000E-03 0.  1.
         12    1    4    4    0    0 -0.10593498403E+01  0.89129950735E+01 -0.24915316140E+02  0.26482761971E+02  0.00000000000E+00 0. -1.
</event>
<event>
 8    1  0.6469014E-010  0.9118800E+02  0.7816164E-02  0.1184000E+00
        -11   -1    0    0    0    0  0.00000000000E+00  0.00000000000E+00  0.45593999997E+02  0.45594000000E+02  0.51100000000E-03 0. -1.
         11   -1    0    0    0    0 -0.00000000000E+00 -0.00000000000E+00 -0.45593999997E+02  0.45594000000E+02  0.51100000000E-03 0.  1.
         23    2    1    2    0    0 -0.35527136788E-14  0.00000000000E+00  0.35527136788E-14  0.91188000000E+02  0.91188000000E+02 0.  0.
    9900012    2    3    3    0    0 -0.28579849442E+02 -0.26678137248E+02  0.18843911187E+02  0.47787265099E+02  0.19999972891E+02 0.  0.
        -12    1    3    3    0    0  0.28579849442E+02  0.26678137248E+02 -0.18843911187E+02  0.43400734901E+02  0.00000000000E+00 0.  1.
         11    1    4    4    0    0 -0.18297758558E+02 -0.14784670949E+02  0.86597676587E+01  0.25067629315E+02  0.51100000000E-03 0. -1.
        -11    1    4    4    0    0 -0.98346670829E+00 -0.13340065133E+01  0.83706980210E+01  0.85331920032E+01  0.51100000000E-03 0.  1.
        -12    1    4    4    0    0 -0.92986241762E+01 -0.10559459785E+02  0.18134455077E+01  0.14186443780E+02  0.00000000000E+00 0.  1.
</event>
<event>
 8    1  0.6469014E-010  0.9118800E+02  0.7816164E-02  0.1184000E+00
        -11   -1    0    0    0    0  0.00000000000E+00  0.00000000000E+00  0.45593999997E+02  0.45594000000E+02  0.51100000000E-03 0. -1.
         11   -1    0    0    0    0 -0.00000000000E+00 -0.00000000000E+00 -0.45593999997E+02  0.45594000000E+02  0.51100000000E-03 0.  1.
         23    2    1    2    0    0 -0.88817841970E-15  0.35527136788E-14  0.71054273576E-14  0.91188000000E+02  0.91188000000E+02 0.  0.
    9900012    2    3    3    0    0  0.78089390162E+01  0.21841102001E+02  0.36682555766E+02  0.47787272325E+02  0.20000005841E+02 0.  0.
        -12    1    3    3    0    0 -0.78089390162E+01 -0.21841102001E+02 -0.36682555766E+02  0.43400727675E+02  0.00000000000E+00 0.  1.
         11    1    4    4    0    0 -0.32133261239E+01  0.53178258760E+01  0.14502911656E+02  0.15777806679E+02  0.51100000000E-03 0. -1.
        -11    1    4    4    0    0  0.31092368243E+01  0.52355955908E+00  0.97799244565E+01  0.10275621192E+02  0.51100000000E-03 0.  1.
         12    1    4    4    0    0  0.79130283158E+01  0.15999716566E+02  0.12399719653E+02  0.21733844455E+02  0.00000000000E+00 0. -1.
</event>
<event>
 8    1  0.6469014E-010  0.9118800E+02  0.7816164E-02  0.1184000E+00
        -11   -1    0    0    0    0  0.00000000000E+00  0.00000000000E+00  0.45593999997E+02  0.45594000000E+02  0.51100000000E-03 0.  1.
         11   -1    0    0    0    0 -0.00000000000E+00 -0.00000000000E+00 -0.45593999997E+02  0.45594000000E+02  0.51100000000E-03 0. -1.
         23    2    1    2    0    0  0.00000000000E+00  0.17763568394E-14  0.00000000000E+00  0.91188000000E+02  0.91188000000E+02 0.  0.
    9900012    2    3    3    0    0 -0.36318919160E+02 -0.21202632672E+01 -0.23665664217E+02  0.47787273415E+02  0.20000010807E+02 0.  0.
         12    1    3    3    0    0  0.36318919160E+02  0.21202632672E+01  0.23665664217E+02  0.43400726585E+02  0.00000000000E+00 0. -1.
         11    1    4    4    0    0 -0.54696121600E+01 -0.56389641059E+01 -0.51276365501E+01  0.93812168838E+01  0.51100000000E-03 0. -1.
        -11    1    4    4    0    0 -0.16325140510E+02  0.83315485552E+01 -0.10485576923E+02  0.21115687004E+02  0.51100000000E-03 0.  1.
        -12    1    4    4    0    0 -0.14524166490E+02 -0.48128477164E+01 -0.80524507441E+01  0.17290369527E+02  0.00000000000E+00 0.  1.
</event>
<event>
 8    1  0.6469014E-010  0.9118800E+02  0.7816164E-02  0.1184000E+00
        -11   -1    0    0    0    0  0.00000000000E+00  0.00000000000E+00  0.45593999997E+02  0.45594000000E+02  0.51100000000E-03 0. -1.
         11   -1    0    0    0    0 -0.00000000000E+00 -0.00000000000E+00 -0.45593999997E+02  0.45594000000E+02  0.51100000000E-03 0.  1.
         23    2    1    2    0    0  0.00000000000E+00 -0.35527136788E-14  0.00000000000E+00  0.91188000000E+02  0.91188000000E+02 0.  0.
    9900012    2    3    3    0    0 -0.99339526852E+01 -0.22497966447E+02 -0.35760054630E+02  0.47787269392E+02  0.19999992465E+02 0.  0.
         12    1    3    3    0    0  0.99339526852E+01  0.22497966447E+02  0.35760054630E+02  0.43400730608E+02  0.00000000000E+00 0. -1.
         11    1    4    4    0    0  0.17909568815E+00  0.99525260160E-01  0.13336747662E+01  0.13493217503E+01  0.51100000000E-03 0. -1.
        -11    1    4    4    0    0 -0.13142009297E+02 -0.16226855977E+02 -0.28015579138E+02  0.34941321354E+02  0.51100000000E-03 0.  1.
        -12    1    4    4    0    0  0.30289609239E+01 -0.63706357310E+01 -0.90781502578E+01  0.11496626288E+02  0.00000000000E+00 0.  1.
</event>
<event>
 8    1  0.6469014E-010  0.9118800E+02  0.7816164E-02  0.1184000E+00
        -11   -1    0    0    0    0  0.00000000000E+00  0.00000000000E+00  0.45593999997E+02  0.45594000000E+02  0.51100000000E-03 0. -1.
         11   -1    0    0    0    0 -0.00000000000E+00 -0.00000000000E+00 -0.45593999997E+02  0.45594000000E+02  0.51100000000E-03 0.  1.
         23    2    1    2    0    0 -0.88817841970E-15  0.00000000000E+00  0.35527136788E-14  0.91188000000E+02  0.91188000000E+02 0.  0.
    9900012    2    3    3    0    0 -0.41354086255E+01  0.33215325026E+02  0.27627224426E+02  0.47787274769E+02  0.20000016983E+02 0.  0.
        -12    1    3    3    0    0  0.41354086255E+01 -0.33215325026E+02 -0.27627224426E+02  0.43400725231E+02  0.00000000000E+00 0.  1.
         11    1    4    4    0    0 -0.14948847828E+01  0.18835563132E+02  0.19419419429E+02  0.27094777545E+02  0.51100000000E-03 0. -1.
        -11    1    4    4    0    0 -0.24567592089E+01  0.61607928365E+01 -0.25908211159E+01  0.71206311869E+01  0.51100000000E-03 0.  1.
        -12    1    4    4    0    0 -0.18376463383E+00  0.82189690578E+01  0.10798626113E+02  0.13571866038E+02  0.00000000000E+00 0.  1.
</event>
<event>
 8    1  0.6469014E-010  0.9118800E+02  0.7816164E-02  0.1184000E+00
        -11   -1    0    0    0    0  0.00000000000E+00  0.00000000000E+00  0.45593999997E+02  0.45594000000E+02  0.51100000000E-03 0. -1.
         11   -1    0    0    0    0 -0.00000000000E+00 -0.00000000000E+00 -0.45593999997E+02  0.45594000000E+02  0.51100000000E-03 0.  1.
         23    2    1    2    0    0  0.44408920985E-15  0.00000000000E+00 -0.35527136788E-14  0.91188000000E+02  0.91188000000E+02 0.  0.
    9900012    2    3    3    0    0 -0.28539631632E+01 -0.34830722210E+02 -0.25735165849E+02  0.47787273317E+02  0.20000010359E+02 0.  0.
         12    1    3    3    0    0  0.28539631632E+01  0.34830722210E+02  0.25735165849E+02  0.43400726683E+02  0.00000000000E+00 0. -1.
         11    1    4    4    0    0 -0.74299027149E+01 -0.11732960117E+02 -0.14779642418E+02  0.20280622223E+02  0.51100000000E-03 0. -1.
        -11    1    4    4    0    0 -0.47338025112E-01 -0.87410702620E+01 -0.85607128208E+01  0.12234964425E+02  0.51100000000E-03 0.  1.
         12    1    4    4    0    0  0.46232775768E+01 -0.14356691830E+02 -0.23948106099E+01  0.15271686669E+02  0.00000000000E+00 0. -1.
</event>
<event>
 8    1  0.6469014E-010  0.9118800E+02  0.7816164E-02  0.1184000E+00
        -11   -1    0    0    0    0  0.00000000000E+00  0.00000000000E+00  0.45593999997E+02  0.45594000000E+02  0.51100000000E-03 0. -1.
         11   -1    0    0    0    0 -0.00000000000E+00 -0.00000000000E+00 -0.45593999997E+02  0.45594000000E+02  0.51100000000E-03 0.  1.
         23    2    1    2    0    0 -0.71054273576E-14  0.17763568394E-14  0.35527136788E-14  0.91188000000E+02  0.91188000000E+02 0.  0.
    9900012    2    3    3    0    0 -0.33273547344E+02  0.15133149328E+02  0.23398337461E+02  0.47787270082E+02  0.19999995612E+02 0.  0.
        -12    1    3    3    0    0  0.33273547344E+02 -0.15133149328E+02 -0.23398337461E+02  0.43400729918E+02  0.00000000000E+00 0.  1.
         11    1    4    4    0    0 -0.19328611818E+02  0.11830644435E+02  0.12045681424E+02  0.25664329795E+02  0.51100000000E-03 0. -1.
        -11    1    4    4    0    0  0.68753572506E+00 -0.19926317691E+01 -0.92459643841E+00  0.23017744406E+01  0.51100000000E-03 0.  1.
        -12    1    4    4    0    0 -0.14632471251E+02  0.52951366619E+01  0.12277252476E+02  0.19821165847E+02  0.00000000000E+00 0.  1.
</event>
<event>
 8    1  0.6469014E-010  0.9118800E+02  0.7816164E-02  0.1184000E+00
        -11   -1    0    0    0    0  0.00000000000E+00  0.00000000000E+00  0.45593999997E+02  0.45594000000E+02  0.51100000000E-03 0. -1.
         11   -1    0    0    0    0 -0.00000000000E+00 -0.00000000000E+00 -0.45593999997E+02  0.45594000000E+02  0.51100000000E-03 0.  1.
         23    2    1    2    0    0 -0.35527136788E-14 -0.35527136788E-14  0.00000000000E+00  0.91188000000E+02  0.91188000000E+02 0.  0.
    9900012    2    3    3    0    0 -0.28575854197E+02 -0.26228302568E+02  0.19471006741E+02  0.47787269566E+02  0.19999993258E+02 0.  0.
        -12    1    3    3    0    0  0.28575854197E+02  0.26228302568E+02 -0.19471006741E+02  0.43400730434E+02  0.00000000000E+00 0.  1.
         11    1    4    4    0    0 -0.46031119797E+01 -0.19553985910E+01  0.98047270559E+01  0.11006584232E+02  0.51100000000E-03 0. -1.
        -11    1    4    4    0    0 -0.13541599673E+02 -0.12967590477E+02  0.26154458326E+00  0.18751046112E+02  0.51100000000E-03 0.  1.
         12    1    4    4    0    0 -0.10431142544E+02 -0.11305313501E+02  0.94047351018E+01  0.18029639222E+02  0.00000000000E+00 0. -1.
</event>
<event>
 8    1  0.6469014E-010  0.9118800E+02  0.7816164E-02  0.1184000E+00
        -11   -1    0    0    0    0  0.00000000000E+00  0.00000000000E+00  0.45593999997E+02  0.45594000000E+02  0.51100000000E-03 0. -1.
         11   -1    0    0    0    0 -0.00000000000E+00 -0.00000000000E+00 -0.45593999997E+02  0.45594000000E+02  0.51100000000E-03 0.  1.
         23    2    1    2    0    0  0.00000000000E+00  0.00000000000E+00  0.00000000000E+00  0.91188000000E+02  0.91188000000E+02 0.  0.
    9900012    2    3    3    0    0  0.43159108357E+01  0.33493117893E+02  0.27261823547E+02  0.47787273558E+02  0.20000011463E+02 0.  0.
        -12    1    3    3    0    0 -0.43159108357E+01 -0.33493117893E+02 -0.27261823547E+02  0.43400726442E+02  0.00000000000E+00 0.  1.
         11    1    4    4    0    0  0.47464488589E+01  0.37033057743E+00  0.34368988290E+01  0.58718136320E+01  0.51100000000E-03 0. -1.
        -11    1    4    4    0    0  0.11446580289E+01  0.23174882790E+02  0.11198865140E+02  0.25764316699E+02  0.51100000000E-03 0.  1.
        -12    1    4    4    0    0 -0.15751960521E+01  0.99479045259E+01  0.12626059579E+02  0.16151143227E+02  0.00000000000E+00 0.  1.
</event>
<event>
 8    1  0.6469014E-010  0.9118800E+02  0.7816164E-02  0.1184000E+00
        -11   -1    0    0    0    0  0.00000000000E+00  0.00000000000E+00  0.45593999997E+02  0.45594000000E+02  0.51100000000E-03 0. -1.
         11   -1    0    0    0    0 -0.00000000000E+00 -0.00000000000E+00 -0.45593999997E+02  0.45594000000E+02  0.51100000000E-03 0.  1.
         23    2    1    2    0    0 -0.17763568394E-14  0.00000000000E+00  0.35527136788E-14  0.91188000000E+02  0.91188000000E+02 0.  0.
    9900012    2    3    3    0    0 -0.84943537733E+01 -0.33154808626E+02  0.26687598909E+02  0.47787270553E+02  0.19999997758E+02 0.  0.
        -12    1    3    3    0    0  0.84943537733E+01  0.33154808626E+02 -0.26687598909E+02  0.43400729447E+02  0.00000000000E+00 0.  1.
         11    1    4    4    0    0 -0.30525642999E+01 -0.10786413092E+02  0.25868727543E+01  0.11504641111E+02  0.51100000000E-03 0.  1.
        -11    1    4    4    0    0  0.65912923817E+00  0.18167815869E+01  0.32105269117E+01  0.37473497300E+01  0.51100000000E-03 0. -1.
        -12    1    4    4    0    0 -0.61009187116E+01 -0.24185177121E+02  0.20890199243E+02  0.32535279712E+02  0.00000000000E+00 0.  1.
</event>
<event>
 8    1  0.6469014E-010  0.9118800E+02  0.7816164E-02  0.1184000E+00
        -11   -1    0    0    0    0  0.00000000000E+00  0.00000000000E+00  0.45593999997E+02  0.45594000000E+02  0.51100000000E-03 0. -1.
         11   -1    0    0    0    0 -0.00000000000E+00 -0.00000000000E+00 -0.45593999997E+02  0.45594000000E+02  0.51100000000E-03 0.  1.
         23    2    1    2    0    0  0.00000000000E+00  0.00000000000E+00  0.00000000000E+00  0.91188000000E+02  0.91188000000E+02 0.  0.
    9900012    2    3    3    0    0 -0.23116994507E+02 -0.36121930319E+01 -0.36553793873E+02  0.47787271664E+02  0.20000002826E+02 0.  0.
         12    1    3    3    0    0  0.23116994507E+02  0.36121930319E+01  0.36553793873E+02  0.43400728336E+02  0.00000000000E+00 0. -1.
         11    1    4    4    0    0 -0.18605530330E+02 -0.56759454977E+01 -0.16324145148E+02  0.25394090478E+02  0.51100000000E-03 0. -1.
        -11    1    4    4    0    0 -0.23996814022E+01  0.31794236055E+01 -0.29691030420E+01  0.49681765700E+01  0.51100000000E-03 0.  1.
         12    1    4    4    0    0 -0.21117827750E+01 -0.11156711397E+01 -0.17260545683E+02  0.17425004616E+02  0.00000000000E+00 0. -1.
</event>
<event>
 8    1  0.6469014E-010  0.9118800E+02  0.7816164E-02  0.1184000E+00
        -11   -1    0    0    0    0  0.00000000000E+00  0.00000000000E+00  0.45593999997E+02  0.45594000000E+02  0.51100000000E-03 0. -1.
         11   -1    0    0    0    0 -0.00000000000E+00 -0.00000000000E+00 -0.45593999997E+02  0.45594000000E+02  0.51100000000E-03 0.  1.
         23    2    1    2    0    0  0.00000000000E+00  0.00000000000E+00  0.00000000000E+00  0.91188000000E+02  0.91188000000E+02 0.  0.
    9900012    2    3    3    0    0 -0.17837417682E+02  0.26630333276E+02  0.29262177944E+02  0.47787272149E+02  0.20000005035E+02 0.  0.
        -12    1    3    3    0    0  0.17837417682E+02 -0.26630333276E+02 -0.29262177944E+02  0.43400727851E+02  0.00000000000E+00 0.  1.
         11    1    4    4    0    0  0.50451624732E+00  0.83809361485E+01  0.12847851572E+01  0.84938389748E+01  0.51100000000E-03 0. -1.
        -11    1    4    4    0    0 -0.11190296342E+02  0.45597998688E+01  0.13592937533E+02  0.18187425824E+02  0.51100000000E-03 0.  1.
        -12    1    4    4    0    0 -0.71516375878E+01  0.13689597259E+02  0.14384455255E+02  0.21106007350E+02  0.00000000000E+00 0.  1.
</event>
<event>
 8    1  0.6469014E-010  0.9118800E+02  0.7816164E-02  0.1184000E+00
        -11   -1    0    0    0    0  0.00000000000E+00  0.00000000000E+00  0.45593999997E+02  0.45594000000E+02  0.51100000000E-03 0. -1.
         11   -1    0    0    0    0 -0.00000000000E+00 -0.00000000000E+00 -0.45593999997E+02  0.45594000000E+02  0.51100000000E-03 0.  1.
         23    2    1    2    0    0  0.00000000000E+00  0.00000000000E+00  0.35527136788E-14  0.91188000000E+02  0.91188000000E+02 0.  0.
    9900012    2    3    3    0    0 -0.19809439475E+02 -0.22541421193E+02 -0.31354321070E+02  0.47787274067E+02  0.20000013781E+02 0.  0.
         12    1    3    3    0    0  0.19809439475E+02  0.22541421193E+02  0.31354321070E+02  0.43400725933E+02  0.00000000000E+00 0. -1.
         11    1    4    4    0    0 -0.13147996353E+02 -0.16750879392E+02 -0.11955554795E+02  0.24421241967E+02  0.51100000000E-03 0. -1.
        -11    1    4    4    0    0 -0.38906048733E+01 -0.74449866469E+01 -0.17970481942E+02  0.19836906360E+02  0.51100000000E-03 0.  1.
         12    1    4    4    0    0 -0.27708382489E+01  0.16544448455E+01 -0.14282843325E+01  0.35291257392E+01  0.00000000000E+00 0. -1.
</event>
<event>
 8    1  0.6469014E-010  0.9118800E+02  0.7816164E-02  0.1184000E+00
        -11   -1    0    0    0    0  0.00000000000E+00  0.00000000000E+00  0.45593999997E+02  0.45594000000E+02  0.51100000000E-03 0. -1.
         11   -1    0    0    0    0 -0.00000000000E+00 -0.00000000000E+00 -0.45593999997E+02  0.45594000000E+02  0.51100000000E-03 0.  1.
         23    2    1    2    0    0  0.00000000000E+00  0.00000000000E+00  0.00000000000E+00  0.91188000000E+02  0.91188000000E+02 0.  0.
    9900012    2    3    3    0    0 -0.22246278972E+02 -0.16119680748E+02 -0.33598837440E+02  0.47787275204E+02  0.20000018965E+02 0.  0.
         12    1    3    3    0    0  0.22246278972E+02  0.16119680748E+02  0.33598837440E+02  0.43400724796E+02  0.00000000000E+00 0. -1.
         11    1    4    4    0    0 -0.42881660525E+01 -0.10065085651E+02 -0.22529574963E+02  0.25045479942E+02  0.51100000000E-03 0. -1.
        -11    1    4    4    0    0 -0.15039907399E+02 -0.61193665829E+01 -0.11347901225E+02  0.19809601824E+02  0.51100000000E-03 0.  1.
         12    1    4    4    0    0 -0.29182055208E+01  0.64771485588E-01  0.27863874869E+00  0.29321934383E+01  0.00000000000E+00 0. -1.
</event>
<event>
 8    1  0.6469014E-010  0.9118800E+02  0.7816164E-02  0.1184000E+00
        -11   -1    0    0    0    0  0.00000000000E+00  0.00000000000E+00  0.45593999997E+02  0.45594000000E+02  0.51100000000E-03 0. -1.
         11   -1    0    0    0    0 -0.00000000000E+00 -0.00000000000E+00 -0.45593999997E+02  0.45594000000E+02  0.51100000000E-03 0.  1.
         23    2    1    2    0    0  0.00000000000E+00  0.00000000000E+00  0.00000000000E+00  0.91188000000E+02  0.91188000000E+02 0.  0.
    9900012    2    3    3    0    0  0.45263720036E+01  0.32318002486E+02 -0.28612640750E+02  0.47787256471E+02  0.19999933554E+02 0.  0.
         12    1    3    3    0    0 -0.45263720036E+01 -0.32318002486E+02  0.28612640750E+02  0.43400743529E+02  0.00000000000E+00 0. -1.
         11    1    4    4    0    0  0.69723548888E+01  0.65804895742E+01 -0.16464975926E+02  0.19052874015E+02  0.51100000000E-03 0. -1.
        -11    1    4    4    0    0 -0.24921887887E+01  0.23725430449E+02 -0.12031972294E+02  0.26718447045E+02  0.51100000000E-03 0.  1.
         12    1    4    4    0    0  0.46205903450E-01  0.20120824623E+01 -0.11569253021E+00  0.20159354112E+01  0.00000000000E+00 0. -1.
</event>
<event>
 8    1  0.6469014E-010  0.9118800E+02  0.7816164E-02  0.1184000E+00
        -11   -1    0    0    0    0  0.00000000000E+00  0.00000000000E+00  0.45593999997E+02  0.45594000000E+02  0.51100000000E-03 0. -1.
         11   -1    0    0    0    0 -0.00000000000E+00 -0.00000000000E+00 -0.45593999997E+02  0.45594000000E+02  0.51100000000E-03 0.  1.
         23    2    1    2    0    0  0.66613381478E-15  0.00000000000E+00  0.00000000000E+00  0.91188000000E+02  0.91188000000E+02 0.  0.
    9900012    2    3    3    0    0  0.16003416289E+01 -0.20571556543E+02  0.38182122805E+02  0.47787256529E+02  0.19999933818E+02 0.  0.
        -12    1    3    3    0    0 -0.16003416289E+01  0.20571556543E+02 -0.38182122805E+02  0.43400743471E+02  0.00000000000E+00 0.  1.
         11    1    4    4    0    0 -0.56412812851E+01 -0.24183465793E+01  0.13631333246E+02  0.14949438152E+02  0.51100000000E-03 0. -1.
        -11    1    4    4    0    0  0.43722930855E+01 -0.11058645668E+02  0.72688244656E+01  0.13937230722E+02  0.51100000000E-03 0.  1.
        -12    1    4    4    0    0  0.28693298284E+01 -0.70945642956E+01  0.17281965093E+02  0.18900587655E+02  0.00000000000E+00 0.  1.
</event>
<event>
 8    1  0.6469014E-010  0.9118800E+02  0.7816164E-02  0.1184000E+00
        -11   -1    0    0    0    0  0.00000000000E+00  0.00000000000E+00  0.45593999997E+02  0.45594000000E+02  0.51100000000E-03 0. -1.
         11   -1    0    0    0    0 -0.00000000000E+00 -0.00000000000E+00 -0.45593999997E+02  0.45594000000E+02  0.51100000000E-03 0.  1.
         23    2    1    2    0    0  0.00000000000E+00  0.00000000000E+00  0.00000000000E+00  0.91188000000E+02  0.91188000000E+02 0.  0.
    9900012    2    3    3    0    0  0.72903141416E+01 -0.19654672496E+02 -0.38002222036E+02  0.47787266010E+02  0.19999977046E+02 0.  0.
         12    1    3    3    0    0 -0.72903141416E+01  0.19654672496E+02  0.38002222036E+02  0.43400733990E+02  0.00000000000E+00 0. -1.
         11    1    4    4    0    0 -0.31032038706E-01  0.14628313768E+01 -0.13083992955E+02  0.13165550142E+02  0.51100000000E-03 0. -1.
        -11    1    4    4    0    0  0.81726004768E+01 -0.17983434445E+02 -0.24299798610E+02  0.31315739265E+02  0.51100000000E-03 0.  1.
         12    1    4    4    0    0 -0.85125429649E+00 -0.31340694272E+01 -0.61843047143E+00  0.33059766031E+01  0.00000000000E+00 0. -1.
</event>
<event>
 8    1  0.6777986E-010  0.9118800E+02  0.7816164E-02  0.1184000E+00
        -11   -1    0    0    0    0  0.00000000000E+00  0.00000000000E+00  0.45593999997E+02  0.45594000000E+02  0.51100000000E-03 0. -1.
         11   -1    0    0    0    0 -0.00000000000E+00 -0.00000000000E+00 -0.45593999997E+02  0.45594000000E+02  0.51100000000E-03 0.  1.
         23    2    1    2    0    0 -0.17763568394E-14  0.44408920985E-15  0.00000000000E+00  0.91188000000E+02  0.91188000000E+02 0.  0.
    9900012    2    3    3    0    0  0.12339575064E+02  0.26089435421E+01 -0.41527731387E+02  0.47787260682E+02  0.19999952754E+02 0.  0.
         12    1    3    3    0    0 -0.12339575064E+02 -0.26089435421E+01  0.41527731387E+02  0.43400739318E+02  0.00000000000E+00 0. -1.
         11    1    4    4    0    0  0.10554343767E+02  0.67177264813E+01 -0.15533121713E+02  0.19944921454E+02  0.51100000000E-03 0. -1.
        -11    1    4    4    0    0  0.46861063777E+01  0.17715006743E+00 -0.10321296644E+02  0.11336672342E+02  0.51100000000E-03 0.  1.
         12    1    4    4    0    0 -0.29008750805E+01 -0.42859330066E+01 -0.15673313031E+02  0.16505666885E+02  0.00000000000E+00 0. -1.
</event>
<event>
 8    1  0.6469014E-010  0.9118800E+02  0.7816164E-02  0.1184000E+00
        -11   -1    0    0    0    0  0.00000000000E+00  0.00000000000E+00  0.45593999997E+02  0.45594000000E+02  0.51100000000E-03 0. -1.
         11   -1    0    0    0    0 -0.00000000000E+00 -0.00000000000E+00 -0.45593999997E+02  0.45594000000E+02  0.51100000000E-03 0.  1.
         23    2    1    2    0    0 -0.22204460493E-15 -0.17763568394E-14  0.00000000000E+00  0.91188000000E+02  0.91188000000E+02 0.  0.
    9900012    2    3    3    0    0  0.10409607181E+01  0.92544190217E+01  0.42389804214E+02  0.47787269914E+02  0.19999994848E+02 0.  0.
        -12    1    3    3    0    0 -0.10409607181E+01 -0.92544190217E+01 -0.42389804214E+02  0.43400730086E+02  0.00000000000E+00 0.  1.
         11    1    4    4    0    0  0.35058959001E+00 -0.39448678154E+00  0.29264891358E+02  0.29269649799E+02  0.51100000000E-03 0. -1.
        -11    1    4    4    0    0 -0.46766251497E-01  0.17336747896E+01 -0.12178362960E+01  0.21191840088E+01  0.51100000000E-03 0.  1.
         12    1    4    4    0    0  0.73713737962E+00  0.79152310136E+01  0.14342749152E+02  0.16398436107E+02  0.00000000000E+00 0. -1.
</event>
<event>
 8    1  0.6469014E-010  0.9118800E+02  0.7816164E-02  0.1184000E+00
        -11   -1    0    0    0    0  0.00000000000E+00  0.00000000000E+00  0.45593999997E+02  0.45594000000E+02  0.51100000000E-03 0. -1.
         11   -1    0    0    0    0 -0.00000000000E+00 -0.00000000000E+00 -0.45593999997E+02  0.45594000000E+02  0.51100000000E-03 0.  1.
         23    2    1    2    0    0  0.17763568394E-14  0.00000000000E+00 -0.35527136788E-14  0.91188000000E+02  0.91188000000E+02 0.  0.
    9900012    2    3    3    0    0  0.14176495210E+02 -0.29709731875E+02  0.28283952246E+02  0.47787272596E+02  0.20000007076E+02 0.  0.
        -12    1    3    3    0    0 -0.14176495210E+02  0.29709731875E+02 -0.28283952246E+02  0.43400727404E+02  0.00000000000E+00 0.  1.
         11    1    4    4    0    0 -0.16376944582E+01  0.11335369779E+01  0.55315386647E+00  0.20671063542E+01  0.51100000000E-03 0. -1.
        -11    1    4    4    0    0  0.17488983211E+02 -0.28410142077E+02  0.24905838711E+02  0.41632937787E+02  0.51100000000E-03 0.  1.
        -12    1    4    4    0    0 -0.16747935432E+01 -0.24331267759E+01  0.28249596678E+01  0.40872284551E+01  0.00000000000E+00 0.  1.
</event>
<event>
 8    1  0.6469014E-010  0.9118800E+02  0.7816164E-02  0.1184000E+00
        -11   -1    0    0    0    0  0.00000000000E+00  0.00000000000E+00  0.45593999997E+02  0.45594000000E+02  0.51100000000E-03 0. -1.
         11   -1    0    0    0    0 -0.00000000000E+00 -0.00000000000E+00 -0.45593999997E+02  0.45594000000E+02  0.51100000000E-03 0.  1.
         23    2    1    2    0    0  0.00000000000E+00  0.00000000000E+00  0.00000000000E+00  0.91188000000E+02  0.91188000000E+02 0.  0.
    9900012    2    3    3    0    0  0.18218675320E+02 -0.19250911534E+02  0.34367213469E+02  0.47787273199E+02  0.20000009822E+02 0.  0.
        -12    1    3    3    0    0 -0.18218675320E+02  0.19250911534E+02 -0.34367213469E+02  0.43400726801E+02  0.00000000000E+00 0.  1.
         11    1    4    4    0    0  0.12070534947E+02 -0.73069736988E+01  0.93336633751E+01  0.16917652047E+02  0.51100000000E-03 0. -1.
        -11    1    4    4    0    0 -0.24331959282E+01 -0.72068088661E+01  0.15135710519E+02  0.16939547504E+02  0.51100000000E-03 0.  1.
        -12    1    4    4    0    0  0.85813363010E+01 -0.47371289690E+01  0.98978395743E+01  0.13930073647E+02  0.00000000000E+00 0.  1.
</event>
<event>
 8    1  0.6469014E-010  0.9118800E+02  0.7816164E-02  0.1184000E+00
        -11   -1    0    0    0    0  0.00000000000E+00  0.00000000000E+00  0.45593999997E+02  0.45594000000E+02  0.51100000000E-03 0. -1.
         11   -1    0    0    0    0 -0.00000000000E+00 -0.00000000000E+00 -0.45593999997E+02  0.45594000000E+02  0.51100000000E-03 0.  1.
         23    2    1    2    0    0  0.00000000000E+00  0.35527136788E-14 -0.35527136788E-14  0.91188000000E+02  0.91188000000E+02 0.  0.
    9900012    2    3    3    0    0  0.26824646335E+02  0.24555484480E+02  0.23687338575E+02  0.47787268696E+02  0.19999989290E+02 0.  0.
        -12    1    3    3    0    0 -0.26824646335E+02 -0.24555484480E+02 -0.23687338575E+02  0.43400731304E+02  0.00000000000E+00 0.  1.
         11    1    4    4    0    0  0.17247632156E+02  0.88297902041E+01  0.17464597101E+02  0.26085593001E+02  0.51100000000E-03 0. -1.
        -11    1    4    4    0    0  0.10775921027E+02  0.16235607369E+02  0.57745013383E+01  0.20323884633E+02  0.51100000000E-03 0.  1.
         12    1    4    4    0    0 -0.11989068477E+01 -0.50991309305E+00  0.44824013499E+00  0.13777910620E+01  0.00000000000E+00 0. -1.
</event>
<event>
 8    1  0.6469014E-010  0.9118800E+02  0.7816164E-02  0.1184000E+00
        -11   -1    0    0    0    0  0.00000000000E+00  0.00000000000E+00  0.45593999997E+02  0.45594000000E+02  0.51100000000E-03 0. -1.
         11   -1    0    0    0    0 -0.00000000000E+00 -0.00000000000E+00 -0.45593999997E+02  0.45594000000E+02  0.51100000000E-03 0.  1.
         23    2    1    2    0    0  0.00000000000E+00 -0.17763568394E-14  0.00000000000E+00  0.91188000000E+02  0.91188000000E+02 0.  0.
    9900012    2    3    3    0    0 -0.30091971393E+02 -0.92388308696E+01  0.29878778496E+02  0.47787261037E+02  0.19999954370E+02 0.  0.
        -12    1    3    3    0    0  0.30091971393E+02  0.92388308696E+01 -0.29878778496E+02  0.43400738963E+02  0.00000000000E+00 0.  1.
         11    1    4    4    0    0 -0.15077005525E+02 -0.55795745287E+01  0.19731608058E+02  0.25451603178E+02  0.51100000000E-03 0. -1.
        -11    1    4    4    0    0 -0.68171077908E+01 -0.71128712614E+01  0.15663612684E+01  0.99759402613E+01  0.51100000000E-03 0.  1.
        -12    1    4    4    0    0 -0.81978580777E+01  0.34536149205E+01  0.85808091695E+01  0.12359717597E+02  0.00000000000E+00 0.  1.
</event>
<event>
 8    1  0.6469014E-010  0.9118800E+02  0.7816164E-02  0.1184000E+00
        -11   -1    0    0    0    0  0.00000000000E+00  0.00000000000E+00  0.45593999997E+02  0.45594000000E+02  0.51100000000E-03 0. -1.
         11   -1    0    0    0    0 -0.00000000000E+00 -0.00000000000E+00 -0.45593999997E+02  0.45594000000E+02  0.51100000000E-03 0.  1.
         23    2    1    2    0    0  0.00000000000E+00  0.71054273576E-14  0.35527136788E-14  0.91188000000E+02  0.91188000000E+02 0.  0.
    9900012    2    3    3    0    0 -0.20204968534E+02 -0.28169920456E+02 -0.26112027979E+02  0.47787272159E+02  0.20000005081E+02 0.  0.
         12    1    3    3    0    0  0.20204968534E+02  0.28169920456E+02  0.26112027979E+02  0.43400727841E+02  0.00000000000E+00 0. -1.
         11    1    4    4    0    0 -0.59406191412E+01 -0.76516428847E+01 -0.12337283467E+02  0.15685890419E+02  0.51100000000E-03 0. -1.
        -11    1    4    4    0    0  0.23970551088E+00 -0.49809578349E+01  0.22614484159E+01  0.54755409673E+01  0.51100000000E-03 0.  1.
        -12    1    4    4    0    0 -0.14504054904E+02 -0.15537319737E+02 -0.16036192928E+02  0.26625840773E+02  0.00000000000E+00 0.  1.
</event>
<event>
 8    1  0.6469014E-010  0.9118800E+02  0.7816164E-02  0.1184000E+00
        -11   -1    0    0    0    0  0.00000000000E+00  0.00000000000E+00  0.45593999997E+02  0.45594000000E+02  0.51100000000E-03 0. -1.
         11   -1    0    0    0    0 -0.00000000000E+00 -0.00000000000E+00 -0.45593999997E+02  0.45594000000E+02  0.51100000000E-03 0.  1.
         23    2    1    2    0    0  0.00000000000E+00  0.00000000000E+00 -0.17763568394E-14  0.91188000000E+02  0.91188000000E+02 0.  0.
    9900012    2    3    3    0    0  0.38335907323E+02  0.13700355621E+02  0.15042665864E+02  0.47787270390E+02  0.19999997015E+02 0.  0.
        -12    1    3    3    0    0 -0.38335907323E+02 -0.13700355621E+02 -0.15042665864E+02  0.43400729610E+02  0.00000000000E+00 0.  1.
         11    1    4    4    0    0  0.12699829670E+02  0.11573723013E+02  0.90562009422E+01  0.19422963569E+02  0.51100000000E-03 0. -1.
        -11    1    4    4    0    0  0.99099044534E+01  0.56275859195E+01  0.73947419468E+00  0.11420278101E+02  0.51100000000E-03 0.  1.
         12    1    4    4    0    0  0.15726173199E+02 -0.35009533113E+01  0.52469907267E+01  0.16944028720E+02  0.00000000000E+00 0. -1.
</event>
<event>
 8    1  0.6469014E-010  0.9118800E+02  0.7816164E-02  0.1184000E+00
        -11   -1    0    0    0    0  0.00000000000E+00  0.00000000000E+00  0.45593999997E+02  0.45594000000E+02  0.51100000000E-03 0. -1.
         11   -1    0    0    0    0 -0.00000000000E+00 -0.00000000000E+00 -0.45593999997E+02  0.45594000000E+02  0.51100000000E-03 0.  1.
         23    2    1    2    0    0 -0.55511151231E-16  0.00000000000E+00 -0.71054273576E-14  0.91188000000E+02  0.91188000000E+02 0.  0.
    9900012    2    3    3    0    0  0.34997435948E+00  0.18782928106E+02 -0.39124167723E+02  0.47787292975E+02  0.20000099989E+02 0.  0.
         12    1    3    3    0    0 -0.34997435948E+00 -0.18782928106E+02  0.39124167723E+02  0.43400707025E+02  0.00000000000E+00 0. -1.
         11    1    4    4    0    0  0.10075213482E+01  0.21314954857E+01 -0.15583309441E+02  0.15760644202E+02  0.51100000000E-03 0. -1.
        -11    1    4    4    0    0  0.10743892910E+01 -0.21282377733E+01 -0.87212454718E+00  0.25385645265E+01  0.51100000000E-03 0.  1.
        -12    1    4    4    0    0 -0.17319362797E+01  0.18779670393E+02 -0.22668733735E+02  0.29488084246E+02  0.00000000000E+00 0.  1.
</event>
<event>
 8    1  0.6469014E-010  0.9118800E+02  0.7816164E-02  0.1184000E+00
        -11   -1    0    0    0    0  0.00000000000E+00  0.00000000000E+00  0.45593999997E+02  0.45594000000E+02  0.51100000000E-03 0. -1.
         11   -1    0    0    0    0 -0.00000000000E+00 -0.00000000000E+00 -0.45593999997E+02  0.45594000000E+02  0.51100000000E-03 0.  1.
         23    2    1    2    0    0 -0.35527136788E-14  0.00000000000E+00  0.17763568394E-14  0.91188000000E+02  0.91188000000E+02 0.  0.
    9900012    2    3    3    0    0  0.27071004296E+02 -0.30515016233E+02 -0.14819502781E+02  0.47787272449E+02  0.20000006402E+02 0.  0.
         12    1    3    3    0    0 -0.27071004296E+02  0.30515016233E+02  0.14819502781E+02  0.43400727551E+02  0.00000000000E+00 0. -1.
         11    1    4    4    0    0  0.65673450839E+01 -0.71410524952E+01 -0.61479560579E+01  0.11485730980E+02  0.51100000000E-03 0. -1.
        -11    1    4    4    0    0  0.20921976398E+02 -0.14090145798E+02 -0.29694241031E+01  0.25398401224E+02  0.51100000000E-03 0.  1.
        -12    1    4    4    0    0 -0.41831718569E+00 -0.92838179400E+01 -0.57021226202E+01  0.10903140244E+02  0.00000000000E+00 0.  1.
</event>
<event>
 8    1  0.6469014E-010  0.9118800E+02  0.7816164E-02  0.1184000E+00
        -11   -1    0    0    0    0  0.00000000000E+00  0.00000000000E+00  0.45593999997E+02  0.45594000000E+02  0.51100000000E-03 0.  1.
         11   -1    0    0    0    0 -0.00000000000E+00 -0.00000000000E+00 -0.45593999997E+02  0.45594000000E+02  0.51100000000E-03 0. -1.
         23    2    1    2    0    0  0.00000000000E+00  0.00000000000E+00  0.00000000000E+00  0.91188000000E+02  0.91188000000E+02 0.  0.
    9900012    2    3    3    0    0  0.38915852204E+02  0.10580198628E+02 -0.16038666130E+02  0.47787274580E+02  0.20000016118E+02 0.  0.
         12    1    3    3    0    0 -0.38915852204E+02 -0.10580198628E+02  0.16038666130E+02  0.43400725420E+02  0.00000000000E+00 0. -1.
         11    1    4    4    0    0  0.12857128748E+02  0.68220688675E+01 -0.10651741613E+02  0.18036240821E+02  0.51100000000E-03 0. -1.
        -11    1    4    4    0    0  0.38013077766E+01 -0.31890206504E+01  0.19141459340E+01  0.53182467448E+01  0.51100000000E-03 0.  1.
        -12    1    4    4    0    0  0.22257415679E+02  0.69471504107E+01 -0.73010704507E+01  0.24432787014E+02  0.00000000000E+00 0.  1.
</event>
<event>
 8    1  0.9207497E-010  0.9118800E+02  0.7816164E-02  0.1184000E+00
        -11   -1    0    0    0    0  0.00000000000E+00  0.00000000000E+00  0.45593999997E+02  0.45594000000E+02  0.51100000000E-03 0. -1.
         11   -1    0    0    0    0 -0.00000000000E+00 -0.00000000000E+00 -0.45593999997E+02  0.45594000000E+02  0.51100000000E-03 0.  1.
         23    2    1    2    0    0  0.00000000000E+00  0.00000000000E+00  0.00000000000E+00  0.91188000000E+02  0.91188000000E+02 0.  0.
    9900012    2    3    3    0    0 -0.12471593445E+02  0.28637333905E+02 -0.30132788654E+02  0.47787280094E+02  0.20000041261E+02 0.  0.
         12    1    3    3    0    0  0.12471593445E+02 -0.28637333905E+02  0.30132788654E+02  0.43400719906E+02  0.00000000000E+00 0. -1.
         11    1    4    4    0    0 -0.26981035509E+01 -0.24798413619E+01 -0.49728052053E+01  0.61772297855E+01  0.51100000000E-03 0. -1.
        -11    1    4    4    0    0 -0.80431698469E+01  0.18913568111E+02 -0.18213292169E+02  0.27461603226E+02  0.51100000000E-03 0.  1.
         12    1    4    4    0    0 -0.17303200474E+01  0.12203607157E+02 -0.69466912803E+01  0.14148447082E+02  0.00000000000E+00 0. -1.
</event>
<event>
 8    1  0.6469014E-010  0.9118800E+02  0.7816164E-02  0.1184000E+00
        -11   -1    0    0    0    0  0.00000000000E+00  0.00000000000E+00  0.45593999997E+02  0.45594000000E+02  0.51100000000E-03 0. -1.
         11   -1    0    0    0    0 -0.00000000000E+00 -0.00000000000E+00 -0.45593999997E+02  0.45594000000E+02  0.51100000000E-03 0.  1.
         23    2    1    2    0    0 -0.35527136788E-14 -0.88817841970E-15  0.00000000000E+00  0.91188000000E+02  0.91188000000E+02 0.  0.
    9900012    2    3    3    0    0  0.28926194550E+02  0.71023156943E+01 -0.31566683050E+02  0.47787273069E+02  0.20000009233E+02 0.  0.
         12    1    3    3    0    0 -0.28926194550E+02 -0.71023156943E+01  0.31566683050E+02  0.43400726931E+02  0.00000000000E+00 0. -1.
         11    1    4    4    0    0  0.78584524833E+01  0.70469596593E+01 -0.89897979007E+01  0.13864753241E+02  0.51100000000E-03 0. -1.
        -11    1    4    4    0    0  0.84630885536E+01  0.44547558322E+01 -0.16893313325E+02  0.19412695659E+02  0.51100000000E-03 0.  1.
        -12    1    4    4    0    0  0.12604653513E+02 -0.43993997973E+01 -0.56835718234E+01  0.14509824169E+02  0.00000000000E+00 0.  1.
</event>
<event>
 8    1  0.6469014E-010  0.9118800E+02  0.7816164E-02  0.1184000E+00
        -11   -1    0    0    0    0  0.00000000000E+00  0.00000000000E+00  0.45593999997E+02  0.45594000000E+02  0.51100000000E-03 0. -1.
         11   -1    0    0    0    0 -0.00000000000E+00 -0.00000000000E+00 -0.45593999997E+02  0.45594000000E+02  0.51100000000E-03 0.  1.
         23    2    1    2    0    0  0.88817841970E-15 -0.71054273576E-14  0.00000000000E+00  0.91188000000E+02  0.91188000000E+02 0.  0.
    9900012    2    3    3    0    0  0.73286301178E+01  0.34771571630E+02 -0.24916870575E+02  0.47787292031E+02  0.20000095685E+02 0.  0.
         12    1    3    3    0    0 -0.73286301178E+01 -0.34771571630E+02  0.24916870575E+02  0.43400707969E+02  0.00000000000E+00 0. -1.
         11    1    4    4    0    0 -0.96514463885E+00  0.19493540770E+01  0.26050120148E+01  0.33937550515E+01  0.51100000000E-03 0. -1.
        -11    1    4    4    0    0 -0.92021676297E+00  0.17693320523E+01 -0.36389311821E+01  0.41495969938E+01  0.51100000000E-03 0.  1.
         12    1    4    4    0    0  0.92139915196E+01  0.31052885500E+02 -0.23882951407E+02  0.40243939985E+02  0.00000000000E+00 0. -1.
</event>
<event>
 8    1  0.6469014E-010  0.9118800E+02  0.7816164E-02  0.1184000E+00
        -11   -1    0    0    0    0  0.00000000000E+00  0.00000000000E+00  0.45593999997E+02  0.45594000000E+02  0.51100000000E-03 0. -1.
         11   -1    0    0    0    0 -0.00000000000E+00 -0.00000000000E+00 -0.45593999997E+02  0.45594000000E+02  0.51100000000E-03 0.  1.
         23    2    1    2    0    0 -0.44408920985E-15  0.00000000000E+00  0.00000000000E+00  0.91188000000E+02  0.91188000000E+02 0.  0.
    9900012    2    3    3    0    0  0.34903210547E+01  0.14601025189E+02  0.40721668299E+02  0.47787233340E+02  0.19999828088E+02 0.  0.
        -12    1    3    3    0    0 -0.34903210547E+01 -0.14601025189E+02 -0.40721668299E+02  0.43400766660E+02  0.00000000000E+00 0.  1.
         11    1    4    4    0    0  0.33829642005E+01  0.68593096350E+01  0.99215074449E+01  0.12527205821E+02  0.51100000000E-03 0. -1.
        -11    1    4    4    0    0 -0.86881497154E+00  0.76394482838E+01  0.44340023360E+01  0.88756062617E+01  0.51100000000E-03 0.  1.
        -12    1    4    4    0    0  0.97617182581E+00  0.10226727025E+00  0.26366158518E+02  0.26384421257E+02  0.00000000000E+00 0.  1.
</event>
<event>
 8    1  0.6469014E-010  0.9118800E+02  0.7816164E-02  0.1184000E+00
        -11   -1    0    0    0    0  0.00000000000E+00  0.00000000000E+00  0.45593999997E+02  0.45594000000E+02  0.51100000000E-03 0. -1.
         11   -1    0    0    0    0 -0.00000000000E+00 -0.00000000000E+00 -0.45593999997E+02  0.45594000000E+02  0.51100000000E-03 0.  1.
         23    2    1    2    0    0  0.35527136788E-14 -0.71054273576E-14 -0.17763568394E-14  0.91188000000E+02  0.91188000000E+02 0.  0.
    9900012    2    3    3    0    0 -0.26407846886E+02  0.32308715759E+02  0.11932971235E+02  0.47787270817E+02  0.19999998963E+02 0.  0.
        -12    1    3    3    0    0  0.26407846886E+02 -0.32308715759E+02 -0.11932971235E+02  0.43400729183E+02  0.00000000000E+00 0.  1.
         11    1    4    4    0    0 -0.10438170641E+02  0.12423360568E+02  0.42525582823E+01  0.16774371712E+02  0.51100000000E-03 0. -1.
        -11    1    4    4    0    0 -0.19004986659E+02  0.17279877457E+02  0.82358896196E+01  0.26974312983E+02  0.51100000000E-03 0.  1.
        -12    1    4    4    0    0  0.30353104141E+01  0.26054777340E+01 -0.55547666734E+00  0.40385861215E+01  0.00000000000E+00 0.  1.
</event>
<event>
 8    1  0.6469014E-010  0.9118800E+02  0.7816164E-02  0.1184000E+00
        -11   -1    0    0    0    0  0.00000000000E+00  0.00000000000E+00  0.45593999997E+02  0.45594000000E+02  0.51100000000E-03 0. -1.
         11   -1    0    0    0    0 -0.00000000000E+00 -0.00000000000E+00 -0.45593999997E+02  0.45594000000E+02  0.51100000000E-03 0.  1.
         23    2    1    2    0    0 -0.88817841970E-15  0.00000000000E+00  0.71054273576E-14  0.91188000000E+02  0.91188000000E+02 0.  0.
    9900012    2    3    3    0    0  0.60390828216E+01 -0.24120982864E+02 -0.35571485907E+02  0.47787274830E+02  0.20000017260E+02 0.  0.
         12    1    3    3    0    0 -0.60390828216E+01  0.24120982864E+02  0.35571485907E+02  0.43400725170E+02  0.00000000000E+00 0. -1.
         11    1    4    4    0    0 -0.14880375244E+00 -0.16172598233E+01 -0.15256736366E+02  0.15342935726E+02  0.51100000000E-03 0. -1.
        -11    1    4    4    0    0  0.12693256450E+01 -0.16224917647E+02 -0.89890050611E+01  0.18591970108E+02  0.51100000000E-03 0.  1.
        -12    1    4    4    0    0  0.49185609291E+01 -0.62788053936E+01 -0.11325744480E+02  0.13852368996E+02  0.00000000000E+00 0.  1.
</event>
<event>
 8    1  0.6469014E-010  0.9118800E+02  0.7816164E-02  0.1184000E+00
        -11   -1    0    0    0    0  0.00000000000E+00  0.00000000000E+00  0.45593999997E+02  0.45594000000E+02  0.51100000000E-03 0. -1.
         11   -1    0    0    0    0 -0.00000000000E+00 -0.00000000000E+00 -0.45593999997E+02  0.45594000000E+02  0.51100000000E-03 0.  1.
         23    2    1    2    0    0  0.17763568394E-14 -0.88817841970E-15  0.00000000000E+00  0.91188000000E+02  0.91188000000E+02 0.  0.
    9900012    2    3    3    0    0 -0.12477516936E+02  0.58763759021E+01 -0.41150976939E+02  0.47787272752E+02  0.20000007785E+02 0.  0.
         12    1    3    3    0    0  0.12477516936E+02 -0.58763759021E+01  0.41150976939E+02  0.43400727248E+02  0.00000000000E+00 0. -1.
         11    1    4    4    0    0  0.22575964145E+00  0.47975194770E+01 -0.10620717307E+01  0.49188573033E+01  0.51100000000E-03 0. -1.
        -11    1    4    4    0    0 -0.54179354541E+01 -0.82244356454E-04 -0.29355333477E+02  0.29851124407E+02  0.51100000000E-03 0.  1.
         12    1    4    4    0    0 -0.72853411229E+01  0.10789386695E+01 -0.10733571732E+02  0.13017291041E+02  0.00000000000E+00 0. -1.
</event>
<event>
 8    1  0.6469014E-010  0.9118800E+02  0.7816164E-02  0.1184000E+00
        -11   -1    0    0    0    0  0.00000000000E+00  0.00000000000E+00  0.45593999997E+02  0.45594000000E+02  0.51100000000E-03 0. -1.
         11   -1    0    0    0    0 -0.00000000000E+00 -0.00000000000E+00 -0.45593999997E+02  0.45594000000E+02  0.51100000000E-03 0.  1.
         23    2    1    2    0    0  0.00000000000E+00 -0.35527136788E-14  0.71054273576E-14  0.91188000000E+02  0.91188000000E+02 0.  0.
    9900012    2    3    3    0    0 -0.73078183034E+01  0.24161760049E+02 -0.35304795027E+02  0.47787269489E+02  0.19999992908E+02 0.  0.
         12    1    3    3    0    0  0.73078183034E+01 -0.24161760049E+02  0.35304795027E+02  0.43400730511E+02  0.00000000000E+00 0. -1.
         11    1    4    4    0    0 -0.97106195088E+01  0.10614495180E+02 -0.11262772084E+02  0.18270568531E+02  0.51100000000E-03 0. -1.
        -11    1    4    4    0    0  0.33866128944E+01  0.89206947871E+01 -0.22662899209E+02  0.24589732475E+02  0.51100000000E-03 0.  1.
        -12    1    4    4    0    0 -0.98381168908E+00  0.46265700819E+01 -0.13791237343E+01  0.49269684835E+01  0.00000000000E+00 0.  1.
</event>
<event>
 8    1  0.6469014E-010  0.9118800E+02  0.7816164E-02  0.1184000E+00
        -11   -1    0    0    0    0  0.00000000000E+00  0.00000000000E+00  0.45593999997E+02  0.45594000000E+02  0.51100000000E-03 0. -1.
         11   -1    0    0    0    0 -0.00000000000E+00 -0.00000000000E+00 -0.45593999997E+02  0.45594000000E+02  0.51100000000E-03 0.  1.
         23    2    1    2    0    0  0.00000000000E+00  0.00000000000E+00  0.35527136788E-14  0.91188000000E+02  0.91188000000E+02 0.  0.
    9900012    2    3    3    0    0  0.18622405892E+02  0.33339534034E+02 -0.20622898435E+02  0.47787280298E+02  0.20000042190E+02 0.  0.
         12    1    3    3    0    0 -0.18622405892E+02 -0.33339534034E+02  0.20622898435E+02  0.43400719702E+02  0.00000000000E+00 0. -1.
         11    1    4    4    0    0  0.14248431540E+02  0.24306253497E+02 -0.65718429675E+01  0.28930967503E+02  0.51100000000E-03 0. -1.
        -11    1    4    4    0    0  0.41158325163E+01  0.61118853862E+01 -0.14115287528E+02  0.15922831486E+02  0.51100000000E-03 0.  1.
        -12    1    4    4    0    0  0.25814183579E+00  0.29213951502E+01  0.64232060195E-01  0.29334813087E+01  0.00000000000E+00 0.  1.
</event>
<event>
 8    1  0.6469014E-010  0.9118800E+02  0.7816164E-02  0.1184000E+00
        -11   -1    0    0    0    0  0.00000000000E+00  0.00000000000E+00  0.45593999997E+02  0.45594000000E+02  0.51100000000E-03 0. -1.
         11   -1    0    0    0    0 -0.00000000000E+00 -0.00000000000E+00 -0.45593999997E+02  0.45594000000E+02  0.51100000000E-03 0.  1.
         23    2    1    2    0    0  0.00000000000E+00 -0.35527136788E-14  0.00000000000E+00  0.91188000000E+02  0.91188000000E+02 0.  0.
    9900012    2    3    3    0    0 -0.21398286750E+02  0.23643329388E+02  0.29440273956E+02  0.47787269234E+02  0.19999991748E+02 0.  0.
        -12    1    3    3    0    0  0.21398286750E+02 -0.23643329388E+02 -0.29440273956E+02  0.43400730766E+02  0.00000000000E+00 0.  1.
         11    1    4    4    0    0 -0.94991251116E+01  0.76267289155E+01  0.13854561825E+02  0.18448557002E+02  0.51100000000E-03 0. -1.
        -11    1    4    4    0    0 -0.62223555266E+01  0.20204786239E+00 -0.27634320317E+00  0.62317651966E+01  0.51100000000E-03 0.  1.
        -12    1    4    4    0    0 -0.56768061114E+01  0.15814552610E+02  0.15862055335E+02  0.23106947036E+02  0.00000000000E+00 0.  1.
</event>
<event>
 8    1  0.6469014E-010  0.9118800E+02  0.7816164E-02  0.1184000E+00
        -11   -1    0    0    0    0  0.00000000000E+00  0.00000000000E+00  0.45593999997E+02  0.45594000000E+02  0.51100000000E-03 0. -1.
         11   -1    0    0    0    0 -0.00000000000E+00 -0.00000000000E+00 -0.45593999997E+02  0.45594000000E+02  0.51100000000E-03 0.  1.
         23    2    1    2    0    0  0.17763568394E-14  0.00000000000E+00  0.00000000000E+00  0.91188000000E+02  0.91188000000E+02 0.  0.
    9900012    2    3    3    0    0 -0.68810530442E+01 -0.38064896662E+02 -0.19680906167E+02  0.47787270554E+02  0.19999997765E+02 0.  0.
         12    1    3    3    0    0  0.68810530442E+01  0.38064896662E+02  0.19680906167E+02  0.43400729446E+02  0.00000000000E+00 0. -1.
         11    1    4    4    0    0 -0.91269510717E+01 -0.85691442140E+01 -0.64583327873E+01  0.14086927666E+02  0.51100000000E-03 0. -1.
        -11    1    4    4    0    0  0.15165715208E+01 -0.14886307666E+02 -0.16609432130E+01  0.15055260799E+02  0.51100000000E-03 0.  1.
         12    1    4    4    0    0  0.72932650672E+00 -0.14609444781E+02 -0.11561630167E+02  0.18645082088E+02  0.00000000000E+00 0. -1.
</event>
<event>
 8    1  0.6469014E-010  0.9118800E+02  0.7816164E-02  0.1184000E+00
        -11   -1    0    0    0    0  0.00000000000E+00  0.00000000000E+00  0.45593999997E+02  0.45594000000E+02  0.51100000000E-03 0. -1.
         11   -1    0    0    0    0 -0.00000000000E+00 -0.00000000000E+00 -0.45593999997E+02  0.45594000000E+02  0.51100000000E-03 0.  1.
         23    2    1    2    0    0  0.00000000000E+00  0.66613381478E-15  0.00000000000E+00  0.91188000000E+02  0.91188000000E+02 0.  0.
    9900012    2    3    3    0    0 -0.45854365801E+01  0.17275970597E+01  0.43123226969E+02  0.47787268158E+02  0.19999986840E+02 0.  0.
        -12    1    3    3    0    0  0.45854365801E+01 -0.17275970597E+01 -0.43123226969E+02  0.43400731842E+02  0.00000000000E+00 0.  1.
         11    1    4    4    0    0 -0.43092819175E+01 -0.24369724961E+01  0.87619447809E+01  0.10063817476E+02  0.51100000000E-03 0. -1.
        -11    1    4    4    0    0  0.39712144093E+01  0.79964510670E+01  0.14263320874E+02  0.16827242679E+02  0.51100000000E-03 0.  1.
        -12    1    4    4    0    0 -0.42473690720E+01 -0.38318815112E+01  0.20097961313E+02  0.20896208003E+02  0.00000000000E+00 0.  1.
</event>
<event>
 8    1  0.6469014E-010  0.9118800E+02  0.7816164E-02  0.1184000E+00
        -11   -1    0    0    0    0  0.00000000000E+00  0.00000000000E+00  0.45593999997E+02  0.45594000000E+02  0.51100000000E-03 0. -1.
         11   -1    0    0    0    0 -0.00000000000E+00 -0.00000000000E+00 -0.45593999997E+02  0.45594000000E+02  0.51100000000E-03 0.  1.
         23    2    1    2    0    0 -0.35527136788E-14  0.88817841970E-15  0.00000000000E+00  0.91188000000E+02  0.91188000000E+02 0.  0.
    9900012    2    3    3    0    0 -0.31910649956E+02  0.61328005011E+01  0.28770190409E+02  0.47787254859E+02  0.19999926205E+02 0.  0.
        -12    1    3    3    0    0  0.31910649956E+02 -0.61328005011E+01 -0.28770190409E+02  0.43400745141E+02  0.00000000000E+00 0.  1.
         11    1    4    4    0    0 -0.98768834683E+01 -0.42317080480E+01  0.62346713134E+01  0.12423015202E+02  0.51100000000E-03 0. -1.
        -11    1    4    4    0    0 -0.11181438772E+02  0.11628634723E+02  0.15482797576E+02  0.22359936037E+02  0.51100000000E-03 0.  1.
        -12    1    4    4    0    0 -0.10852327715E+02 -0.12641261736E+01  0.70527215194E+01  0.13004303620E+02  0.00000000000E+00 0.  1.
</event>
<event>
 8    1  0.6469014E-010  0.9118800E+02  0.7816164E-02  0.1184000E+00
        -11   -1    0    0    0    0  0.00000000000E+00  0.00000000000E+00  0.45593999997E+02  0.45594000000E+02  0.51100000000E-03 0. -1.
         11   -1    0    0    0    0 -0.00000000000E+00 -0.00000000000E+00 -0.45593999997E+02  0.45594000000E+02  0.51100000000E-03 0.  1.
         23    2    1    2    0    0  0.00000000000E+00  0.00000000000E+00  0.00000000000E+00  0.91188000000E+02  0.91188000000E+02 0.  0.
    9900012    2    3    3    0    0  0.25926755911E+02 -0.16249904274E+02 -0.30779328762E+02  0.47787272587E+02  0.20000007032E+02 0.  0.
         12    1    3    3    0    0 -0.25926755911E+02  0.16249904274E+02  0.30779328762E+02  0.43400727413E+02  0.00000000000E+00 0. -1.
         11    1    4    4    0    0  0.47415623218E+01 -0.10457358695E+02 -0.75753254065E+01  0.13755883083E+02  0.51100000000E-03 0. -1.
        -11    1    4    4    0    0  0.13697572927E+02 -0.63438310484E+00 -0.20279488582E+02  0.24480269677E+02  0.51100000000E-03 0.  1.
        -12    1    4    4    0    0  0.74876206618E+01 -0.51581624743E+01 -0.29245147728E+01  0.95511198266E+01  0.00000000000E+00 0.  1.
</event>
<event>
 8    1  0.6469014E-010  0.9118800E+02  0.7816164E-02  0.1184000E+00
        -11   -1    0    0    0    0  0.00000000000E+00  0.00000000000E+00  0.45593999997E+02  0.45594000000E+02  0.51100000000E-03 0.  1.
         11   -1    0    0    0    0 -0.00000000000E+00 -0.00000000000E+00 -0.45593999997E+02  0.45594000000E+02  0.51100000000E-03 0. -1.
         23    2    1    2    0    0  0.00000000000E+00  0.00000000000E+00  0.35527136788E-14  0.91188000000E+02  0.91188000000E+02 0.  0.
    9900012    2    3    3    0    0 -0.29442636091E+02 -0.16729498183E+02 -0.27145502188E+02  0.47787271682E+02  0.20000002909E+02 0.  0.
         12    1    3    3    0    0  0.29442636091E+02  0.16729498183E+02  0.27145502188E+02  0.43400728318E+02  0.00000000000E+00 0. -1.
         11    1    4    4    0    0 -0.40827573922E+01 -0.62459100068E+01  0.57141795922E+00  0.74837703386E+01  0.51100000000E-03 0. -1.
        -11    1    4    4    0    0 -0.19997933815E+02 -0.58888618916E+01 -0.25426275943E+02  0.32879956810E+02  0.51100000000E-03 0.  1.
        -12    1    4    4    0    0 -0.53619448836E+01 -0.45947262851E+01 -0.22906442040E+01  0.74235445333E+01  0.00000000000E+00 0.  1.
</event>
<event>
 8    1  0.6469014E-010  0.9118800E+02  0.7816164E-02  0.1184000E+00
        -11   -1    0    0    0    0  0.00000000000E+00  0.00000000000E+00  0.45593999997E+02  0.45594000000E+02  0.51100000000E-03 0. -1.
         11   -1    0    0    0    0 -0.00000000000E+00 -0.00000000000E+00 -0.45593999997E+02  0.45594000000E+02  0.51100000000E-03 0.  1.
         23    2    1    2    0    0  0.00000000000E+00  0.00000000000E+00  0.00000000000E+00  0.91188000000E+02  0.91188000000E+02 0.  0.
    9900012    2    3    3    0    0 -0.20960159847E+02  0.68925311683E+00  0.37997632564E+02  0.47787269003E+02  0.19999990691E+02 0.  0.
        -12    1    3    3    0    0  0.20960159847E+02 -0.68925311683E+00 -0.37997632564E+02  0.43400730997E+02  0.00000000000E+00 0.  1.
         11    1    4    4    0    0 -0.11563830318E+02 -0.35636766525E+00  0.27460275989E+02  0.29797918168E+02  0.51100000000E-03 0. -1.
        -11    1    4    4    0    0 -0.53083737765E+01  0.25864569623E+01 -0.68698573976E+00  0.59447911180E+01  0.51100000000E-03 0.  1.
        -12    1    4    4    0    0 -0.40879557522E+01 -0.15408361802E+01  0.11224342315E+02  0.12044559716E+02  0.00000000000E+00 0.  1.
</event>
<event>
 8    1  0.6469014E-010  0.9118800E+02  0.7816164E-02  0.1184000E+00
        -11   -1    0    0    0    0  0.00000000000E+00  0.00000000000E+00  0.45593999997E+02  0.45594000000E+02  0.51100000000E-03 0. -1.
         11   -1    0    0    0    0 -0.00000000000E+00 -0.00000000000E+00 -0.45593999997E+02  0.45594000000E+02  0.51100000000E-03 0.  1.
         23    2    1    2    0    0  0.00000000000E+00  0.00000000000E+00  0.00000000000E+00  0.91188000000E+02  0.91188000000E+02 0.  0.
    9900012    2    3    3    0    0  0.17968156509E+02  0.21806173558E+02  0.32943274630E+02  0.47787271930E+02  0.20000004039E+02 0.  0.
        -12    1    3    3    0    0 -0.17968156509E+02 -0.21806173558E+02 -0.32943274630E+02  0.43400728070E+02  0.00000000000E+00 0.  1.
         11    1    4    4    0    0  0.19976511005E+01  0.54093159561E+01  0.20299044059E+02  0.21102191806E+02  0.51100000000E-03 0. -1.
        -11    1    4    4    0    0  0.15747693286E+02  0.16702986342E+02  0.11916391277E+02  0.25864647260E+02  0.51100000000E-03 0.  1.
        -12    1    4    4    0    0  0.22281212252E+00 -0.30612873919E+00  0.72783929419E+00  0.82043286445E+00  0.00000000000E+00 0.  1.
</event>
<event>
 8    1  0.6469014E-010  0.9118800E+02  0.7816164E-02  0.1184000E+00
        -11   -1    0    0    0    0  0.00000000000E+00  0.00000000000E+00  0.45593999997E+02  0.45594000000E+02  0.51100000000E-03 0. -1.
         11   -1    0    0    0    0 -0.00000000000E+00 -0.00000000000E+00 -0.45593999997E+02  0.45594000000E+02  0.51100000000E-03 0.  1.
         23    2    1    2    0    0  0.00000000000E+00  0.00000000000E+00 -0.35527136788E-14  0.91188000000E+02  0.91188000000E+02 0.  0.
    9900012    2    3    3    0    0 -0.69853738446E+01  0.29528002928E+02 -0.31031029184E+02  0.47787272162E+02  0.20000005095E+02 0.  0.
         12    1    3    3    0    0  0.69853738446E+01 -0.29528002928E+02  0.31031029184E+02  0.43400727838E+02  0.00000000000E+00 0. -1.
         11    1    4    4    0    0  0.48344210355E+01  0.34925238049E+01 -0.10667390449E+01  0.60586534583E+01  0.51100000000E-03 0. -1.
        -11    1    4    4    0    0 -0.68454332188E+01  0.20420594419E+02 -0.22477761076E+02  0.31130537670E+02  0.51100000000E-03 0.  1.
        -12    1    4    4    0    0 -0.49743616614E+01  0.56148847041E+01 -0.74865290628E+01  0.10598081033E+02  0.00000000000E+00 0.  1.
</event>
<event>
 8    1  0.6469014E-010  0.9118800E+02  0.7816164E-02  0.1184000E+00
        -11   -1    0    0    0    0  0.00000000000E+00  0.00000000000E+00  0.45593999997E+02  0.45594000000E+02  0.51100000000E-03 0. -1.
         11   -1    0    0    0    0 -0.00000000000E+00 -0.00000000000E+00 -0.45593999997E+02  0.45594000000E+02  0.51100000000E-03 0.  1.
         23    2    1    2    0    0 -0.35527136788E-14  0.11102230246E-14  0.71054273576E-14  0.91188000000E+02  0.91188000000E+02 0.  0.
    9900012    2    3    3    0    0  0.28366222663E+02  0.10384603796E+01 -0.32831422067E+02  0.47787271169E+02  0.20000000568E+02 0.  0.
         12    1    3    3    0    0 -0.28366222663E+02 -0.10384603796E+01  0.32831422067E+02  0.43400728831E+02  0.00000000000E+00 0. -1.
         11    1    4    4    0    0  0.17902251394E+02 -0.36852604895E+00 -0.14455112785E+02  0.23012533592E+02  0.51100000000E-03 0. -1.
        -11    1    4    4    0    0 -0.16692779608E+01 -0.32192980360E+01 -0.37743534226E+01  0.52341296101E+01  0.51100000000E-03 0.  1.
        -12    1    4    4    0    0  0.12133249230E+02  0.46262844646E+01 -0.14601955859E+02  0.19540607967E+02  0.00000000000E+00 0.  1.
</event>
<event>
 8    1  0.6469014E-010  0.9118800E+02  0.7816164E-02  0.1184000E+00
        -11   -1    0    0    0    0  0.00000000000E+00  0.00000000000E+00  0.45593999997E+02  0.45594000000E+02  0.51100000000E-03 0. -1.
         11   -1    0    0    0    0 -0.00000000000E+00 -0.00000000000E+00 -0.45593999997E+02  0.45594000000E+02  0.51100000000E-03 0.  1.
         23    2    1    2    0    0  0.00000000000E+00  0.35527136788E-14  0.00000000000E+00  0.91188000000E+02  0.91188000000E+02 0.  0.
    9900012    2    3    3    0    0 -0.29560001737E+02 -0.29086902805E+02  0.12797727543E+02  0.47787269041E+02  0.19999990866E+02 0.  0.
        -12    1    3    3    0    0  0.29560001737E+02  0.29086902805E+02 -0.12797727543E+02  0.43400730959E+02  0.00000000000E+00 0.  1.
         11    1    4    4    0    0 -0.12097218945E+02 -0.11449161429E+02  0.62166605085E+01  0.17778438395E+02  0.51100000000E-03 0. -1.
        -11    1    4    4    0    0 -0.28895354315E+01 -0.60039659899E+01  0.90076617666E+01  0.11204239973E+02  0.51100000000E-03 0.  1.
        -12    1    4    4    0    0 -0.14573247360E+02 -0.11633775386E+02 -0.24265947321E+01  0.18804590673E+02  0.00000000000E+00 0.  1.
</event>
<event>
 8    1  0.6469014E-010  0.9118800E+02  0.7816164E-02  0.1184000E+00
        -11   -1    0    0    0    0  0.00000000000E+00  0.00000000000E+00  0.45593999997E+02  0.45594000000E+02  0.51100000000E-03 0. -1.
         11   -1    0    0    0    0 -0.00000000000E+00 -0.00000000000E+00 -0.45593999997E+02  0.45594000000E+02  0.51100000000E-03 0.  1.
         23    2    1    2    0    0  0.00000000000E+00  0.00000000000E+00 -0.35527136788E-14  0.91188000000E+02  0.91188000000E+02 0.  0.
    9900012    2    3    3    0    0  0.24654547441E+02  0.21911733148E+02 -0.28207321816E+02  0.47787265408E+02  0.19999974302E+02 0.  0.
         12    1    3    3    0    0 -0.24654547441E+02 -0.21911733148E+02  0.28207321816E+02  0.43400734592E+02  0.00000000000E+00 0. -1.
         11    1    4    4    0    0  0.12554348798E+02  0.91622237467E+00 -0.11221802778E+02  0.16863570056E+02  0.51100000000E-03 0.  1.
        -11    1    4    4    0    0  0.61250767584E+01  0.11583827822E+02 -0.37720438266E+01  0.13635613195E+02  0.51100000000E-03 0. -1.
        -12    1    4    4    0    0  0.59751218847E+01  0.94116829510E+01 -0.13213475212E+02  0.17288082158E+02  0.00000000000E+00 0.  1.
</event>
<event>
 8    1  0.6469014E-010  0.9118800E+02  0.7816164E-02  0.1184000E+00
        -11   -1    0    0    0    0  0.00000000000E+00  0.00000000000E+00  0.45593999997E+02  0.45594000000E+02  0.51100000000E-03 0. -1.
         11   -1    0    0    0    0 -0.00000000000E+00 -0.00000000000E+00 -0.45593999997E+02  0.45594000000E+02  0.51100000000E-03 0.  1.
         23    2    1    2    0    0  0.00000000000E+00  0.00000000000E+00  0.00000000000E+00  0.91188000000E+02  0.91188000000E+02 0.  0.
    9900012    2    3    3    0    0 -0.11260281784E+02  0.13171524044E+02 -0.39791211795E+02  0.47787268122E+02  0.19999986674E+02 0.  0.
         12    1    3    3    0    0  0.11260281784E+02 -0.13171524044E+02  0.39791211795E+02  0.43400731878E+02  0.00000000000E+00 0. -1.
         11    1    4    4    0    0 -0.74097385389E+01  0.17721130619E+02 -0.25315847775E+02  0.31777898679E+02  0.51100000000E-03 0. -1.
        -11    1    4    4    0    0 -0.25633817273E+01 -0.21284530227E+01 -0.41280882508E+01  0.53049364762E+01  0.51100000000E-03 0.  1.
         12    1    4    4    0    0 -0.12871615182E+01 -0.24211535524E+01 -0.10347275769E+02  0.10704432966E+02  0.00000000000E+00 0. -1.
</event>
<event>
 8    1  0.6469014E-010  0.9118800E+02  0.7816164E-02  0.1184000E+00
        -11   -1    0    0    0    0  0.00000000000E+00  0.00000000000E+00  0.45593999997E+02  0.45594000000E+02  0.51100000000E-03 0.  1.
         11   -1    0    0    0    0 -0.00000000000E+00 -0.00000000000E+00 -0.45593999997E+02  0.45594000000E+02  0.51100000000E-03 0. -1.
         23    2    1    2    0    0  0.00000000000E+00  0.00000000000E+00  0.00000000000E+00  0.91188000000E+02  0.91188000000E+02 0.  0.
    9900012    2    3    3    0    0  0.39562093481E+02 -0.59080505921E+01 -0.16839215848E+02  0.47787268522E+02  0.19999988501E+02 0.  0.
         12    1    3    3    0    0 -0.39562093481E+02  0.59080505921E+01  0.16839215848E+02  0.43400731478E+02  0.00000000000E+00 0. -1.
         11    1    4    4    0    0  0.21760173065E+02 -0.83877261884E+01 -0.13966196925E+02  0.27182967815E+02  0.51100000000E-03 0. -1.
        -11    1    4    4    0    0  0.63328872604E+01 -0.33434637758E+01 -0.29404527647E+01  0.77414774943E+01  0.51100000000E-03 0.  1.
         12    1    4    4    0    0  0.11469033156E+02  0.58231393721E+01  0.67433842479E-01  0.12862823213E+02  0.00000000000E+00 0. -1.
</event>
<event>
 8    1  0.6469014E-010  0.9118800E+02  0.7816164E-02  0.1184000E+00
        -11   -1    0    0    0    0  0.00000000000E+00  0.00000000000E+00  0.45593999997E+02  0.45594000000E+02  0.51100000000E-03 0. -1.
         11   -1    0    0    0    0 -0.00000000000E+00 -0.00000000000E+00 -0.45593999997E+02  0.45594000000E+02  0.51100000000E-03 0.  1.
         23    2    1    2    0    0  0.00000000000E+00  0.00000000000E+00  0.00000000000E+00  0.91188000000E+02  0.91188000000E+02 0.  0.
    9900012    2    3    3    0    0 -0.19820273118E+02 -0.89451515041E+01  0.37560145524E+02  0.47787268512E+02  0.19999988453E+02 0.  0.
        -12    1    3    3    0    0  0.19820273118E+02  0.89451515041E+01 -0.37560145524E+02  0.43400731488E+02  0.00000000000E+00 0.  1.
         11    1    4    4    0    0 -0.52233911465E+01 -0.84098127933E+01  0.53694038899E+01  0.11262293935E+02  0.51100000000E-03 0. -1.
        -11    1    4    4    0    0 -0.15740488501E+02 -0.13789227972E+00  0.27559697539E+02  0.31738287938E+02  0.51100000000E-03 0.  1.
        -12    1    4    4    0    0  0.11436065302E+01 -0.39744643115E+00  0.46310440959E+01  0.47866866390E+01  0.00000000000E+00 0.  1.
</event>
<event>
 8    1  0.6469014E-010  0.9118800E+02  0.7816164E-02  0.1184000E+00
        -11   -1    0    0    0    0  0.00000000000E+00  0.00000000000E+00  0.45593999997E+02  0.45594000000E+02  0.51100000000E-03 0. -1.
         11   -1    0    0    0    0 -0.00000000000E+00 -0.00000000000E+00 -0.45593999997E+02  0.45594000000E+02  0.51100000000E-03 0.  1.
         23    2    1    2    0    0 -0.88817841970E-15  0.00000000000E+00  0.00000000000E+00  0.91188000000E+02  0.91188000000E+02 0.  0.
    9900012    2    3    3    0    0  0.49467861689E+01  0.16124815590E+02  0.39989284780E+02  0.47787271107E+02  0.20000000284E+02 0.  0.
        -12    1    3    3    0    0 -0.49467861689E+01 -0.16124815590E+02 -0.39989284780E+02  0.43400728893E+02  0.00000000000E+00 0.  1.
         11    1    4    4    0    0 -0.14609471725E+01  0.22382971875E+01  0.10710831987E-01  0.26729115068E+01  0.51100000000E-03 0.  1.
        -11    1    4    4    0    0  0.11007324286E+02  0.10260769559E+02  0.28712298160E+02  0.32416672343E+02  0.51100000000E-03 0. -1.
         12    1    4    4    0    0 -0.45995909451E+01  0.36257488435E+01  0.11266275789E+02  0.12697687257E+02  0.00000000000E+00 0. -1.
</event>
<event>
 8    1  0.6469014E-010  0.9118800E+02  0.7816164E-02  0.1184000E+00
        -11   -1    0    0    0    0  0.00000000000E+00  0.00000000000E+00  0.45593999997E+02  0.45594000000E+02  0.51100000000E-03 0. -1.
         11   -1    0    0    0    0 -0.00000000000E+00 -0.00000000000E+00 -0.45593999997E+02  0.45594000000E+02  0.51100000000E-03 0.  1.
         23    2    1    2    0    0 -0.88817841970E-15  0.00000000000E+00  0.00000000000E+00  0.91188000000E+02  0.91188000000E+02 0.  0.
    9900012    2    3    3    0    0  0.67894729603E+01 -0.20502915310E+02 -0.37645147801E+02  0.47787266916E+02  0.19999981176E+02 0.  0.
         12    1    3    3    0    0 -0.67894729603E+01  0.20502915310E+02  0.37645147801E+02  0.43400733084E+02  0.00000000000E+00 0. -1.
         11    1    4    4    0    0 -0.51774393779E+01 -0.39927463102E+01 -0.36843576185E+01  0.75048246436E+01  0.51100000000E-03 0. -1.
        -11    1    4    4    0    0  0.11023588149E+02 -0.13126423485E+02 -0.31889541894E+02  0.36204493805E+02  0.51100000000E-03 0.  1.
         12    1    4    4    0    0  0.94332418954E+00 -0.33837455143E+01 -0.20712482887E+01  0.40779484677E+01  0.00000000000E+00 0. -1.
</event>
<event>
 8    1  0.6469014E-010  0.9118800E+02  0.7816164E-02  0.1184000E+00
        -11   -1    0    0    0    0  0.00000000000E+00  0.00000000000E+00  0.45593999997E+02  0.45594000000E+02  0.51100000000E-03 0.  1.
         11   -1    0    0    0    0 -0.00000000000E+00 -0.00000000000E+00 -0.45593999997E+02  0.45594000000E+02  0.51100000000E-03 0. -1.
         23    2    1    2    0    0  0.00000000000E+00  0.00000000000E+00  0.00000000000E+00  0.91188000000E+02  0.91188000000E+02 0.  0.
    9900012    2    3    3    0    0  0.35392988371E+02  0.24758366613E+02 -0.42405376913E+01  0.47787279925E+02  0.20000040489E+02 0.  0.
         12    1    3    3    0    0 -0.35392988371E+02 -0.24758366613E+02  0.42405376913E+01  0.43400720075E+02  0.00000000000E+00 0. -1.
         11    1    4    4    0    0  0.31726362213E+01  0.46355237812E+01 -0.28106300584E+00  0.56242953330E+01  0.51100000000E-03 0. -1.
        -11    1    4    4    0    0  0.17712969226E+01  0.88969349391E+01  0.16752105570E+01  0.92249268166E+01  0.51100000000E-03 0.  1.
        -12    1    4    4    0    0  0.30449055227E+02  0.11225907892E+02 -0.56346852425E+01  0.32938057775E+02  0.00000000000E+00 0.  1.
</event>
<event>
 8    1  0.6469014E-010  0.9118800E+02  0.7816164E-02  0.1184000E+00
        -11   -1    0    0    0    0  0.00000000000E+00  0.00000000000E+00  0.45593999997E+02  0.45594000000E+02  0.51100000000E-03 0. -1.
         11   -1    0    0    0    0 -0.00000000000E+00 -0.00000000000E+00 -0.45593999997E+02  0.45594000000E+02  0.51100000000E-03 0.  1.
         23    2    1    2    0    0  0.88817841970E-15  0.35527136788E-14  0.00000000000E+00  0.91188000000E+02  0.91188000000E+02 0.  0.
    9900012    2    3    3    0    0  0.75032552632E+01  0.25692496396E+02  0.34164578283E+02  0.47787290099E+02  0.20000086877E+02 0.  0.
        -12    1    3    3    0    0 -0.75032552632E+01 -0.25692496396E+02 -0.34164578283E+02  0.43400709901E+02  0.00000000000E+00 0.  1.
         11    1    4    4    0    0 -0.13947016857E+01  0.15113696781E+01  0.76804308680E+01  0.79510030609E+01  0.51100000000E-03 0. -1.
        -11    1    4    4    0    0  0.12574158653E+02  0.19370357289E+02  0.23956921999E+02  0.33275431166E+02  0.51100000000E-03 0.  1.
        -12    1    4    4    0    0 -0.36762017041E+01  0.48107694292E+01  0.25272254163E+01  0.65608558721E+01  0.00000000000E+00 0.  1.
</event>
<event>
 8    1  0.6469014E-010  0.9118800E+02  0.7816164E-02  0.1184000E+00
        -11   -1    0    0    0    0  0.00000000000E+00  0.00000000000E+00  0.45593999997E+02  0.45594000000E+02  0.51100000000E-03 0. -1.
         11   -1    0    0    0    0 -0.00000000000E+00 -0.00000000000E+00 -0.45593999997E+02  0.45594000000E+02  0.51100000000E-03 0.  1.
         23    2    1    2    0    0 -0.17763568394E-14  0.00000000000E+00  0.00000000000E+00  0.91188000000E+02  0.91188000000E+02 0.  0.
    9900012    2    3    3    0    0 -0.77143794647E+01 -0.15501723342E+02  0.39797081765E+02  0.47787276572E+02  0.20000025202E+02 0.  0.
        -12    1    3    3    0    0  0.77143794647E+01  0.15501723342E+02 -0.39797081765E+02  0.43400723428E+02  0.00000000000E+00 0.  1.
         11    1    4    4    0    0 -0.59722765821E+01 -0.42205677168E+01  0.24054417736E+02  0.25141525258E+02  0.51100000000E-03 0. -1.
        -11    1    4    4    0    0 -0.25539028005E+01 -0.10070660318E+02  0.45221168881E+01  0.11330938185E+02  0.51100000000E-03 0.  1.
        -12    1    4    4    0    0  0.81179991790E+00 -0.12104953079E+01  0.11220547140E+02  0.11314813128E+02  0.00000000000E+00 0.  1.
</event>
<event>
 8    1  0.6469014E-010  0.9118800E+02  0.7816164E-02  0.1184000E+00
        -11   -1    0    0    0    0  0.00000000000E+00  0.00000000000E+00  0.45593999997E+02  0.45594000000E+02  0.51100000000E-03 0. -1.
         11   -1    0    0    0    0 -0.00000000000E+00 -0.00000000000E+00 -0.45593999997E+02  0.45594000000E+02  0.51100000000E-03 0.  1.
         23    2    1    2    0    0  0.00000000000E+00  0.00000000000E+00  0.00000000000E+00  0.91188000000E+02  0.91188000000E+02 0.  0.
    9900012    2    3    3    0    0 -0.30109424403E+01 -0.40182899782E+02 -0.16121166110E+02  0.47787271826E+02  0.20000003563E+02 0.  0.
         12    1    3    3    0    0  0.30109424403E+01  0.40182899782E+02  0.16121166110E+02  0.43400728174E+02  0.00000000000E+00 0. -1.
         11    1    4    4    0    0  0.72999662861E+00 -0.44160797541E+01  0.73608717092E+00  0.45361305158E+01  0.51100000000E-03 0. -1.
        -11    1    4    4    0    0  0.10842625975E+00  0.19155260896E+01 -0.44267119762E+00  0.19689983504E+01  0.51100000000E-03 0.  1.
        -12    1    4    4    0    0 -0.38493653287E+01 -0.37682346118E+02 -0.16414582083E+02  0.41282142960E+02  0.00000000000E+00 0.  1.
</event>
<event>
 8    1  0.6469014E-010  0.9118800E+02  0.7816164E-02  0.1184000E+00
        -11   -1    0    0    0    0  0.00000000000E+00  0.00000000000E+00  0.45593999997E+02  0.45594000000E+02  0.51100000000E-03 0. -1.
         11   -1    0    0    0    0 -0.00000000000E+00 -0.00000000000E+00 -0.45593999997E+02  0.45594000000E+02  0.51100000000E-03 0.  1.
         23    2    1    2    0    0  0.00000000000E+00 -0.35527136788E-14  0.00000000000E+00  0.91188000000E+02  0.91188000000E+02 0.  0.
    9900012    2    3    3    0    0 -0.89733469714E+01  0.21259455493E+02  0.36757801430E+02  0.47787292982E+02  0.20000100021E+02 0.  0.
        -12    1    3    3    0    0  0.89733469714E+01 -0.21259455493E+02 -0.36757801430E+02  0.43400707018E+02  0.00000000000E+00 0.  1.
         11    1    4    4    0    0 -0.11556751791E+02  0.10873987000E+02  0.22059441210E+02  0.27173903879E+02  0.51100000000E-03 0. -1.
        -11    1    4    4    0    0  0.38685430601E+01  0.54672031347E+00  0.17002451866E+01  0.42609109900E+01  0.51100000000E-03 0.  1.
         12    1    4    4    0    0 -0.12851382406E+01  0.98387481789E+01  0.12998115033E+02  0.16352478113E+02  0.00000000000E+00 0. -1.
</event>
<event>
 8    1  0.6469014E-010  0.9118800E+02  0.7816164E-02  0.1184000E+00
        -11   -1    0    0    0    0  0.00000000000E+00  0.00000000000E+00  0.45593999997E+02  0.45594000000E+02  0.51100000000E-03 0.  1.
         11   -1    0    0    0    0 -0.00000000000E+00 -0.00000000000E+00 -0.45593999997E+02  0.45594000000E+02  0.51100000000E-03 0. -1.
         23    2    1    2    0    0  0.00000000000E+00  0.00000000000E+00  0.00000000000E+00  0.91188000000E+02  0.91188000000E+02 0.  0.
    9900012    2    3    3    0    0 -0.35363664025E+02 -0.69378446396E+01 -0.24184728132E+02  0.47787268482E+02  0.19999988316E+02 0.  0.
         12    1    3    3    0    0  0.35363664025E+02  0.69378446396E+01  0.24184728132E+02  0.43400731518E+02  0.00000000000E+00 0. -1.
         11    1    4    4    0    0 -0.14475785296E+02  0.24691596302E+00 -0.63135238780E+00  0.14491650476E+02  0.51100000000E-03 0. -1.
        -11    1    4    4    0    0 -0.19031909186E+02 -0.62706142203E+01 -0.23909690827E+02  0.31196273586E+02  0.51100000000E-03 0.  1.
        -12    1    4    4    0    0 -0.18559695428E+01 -0.91414638233E+00  0.35631508294E+00  0.20993444192E+01  0.00000000000E+00 0.  1.
</event>
<event>
 8    1  0.6469014E-010  0.9118800E+02  0.7816164E-02  0.1184000E+00
        -11   -1    0    0    0    0  0.00000000000E+00  0.00000000000E+00  0.45593999997E+02  0.45594000000E+02  0.51100000000E-03 0.  1.
         11   -1    0    0    0    0 -0.00000000000E+00 -0.00000000000E+00 -0.45593999997E+02  0.45594000000E+02  0.51100000000E-03 0. -1.
         23    2    1    2    0    0  0.00000000000E+00  0.00000000000E+00 -0.88817841970E-15  0.91188000000E+02  0.91188000000E+02 0.  0.
    9900012    2    3    3    0    0 -0.40137579433E+02  0.16429605242E+02 -0.16328077769E+01  0.47787271061E+02  0.20000000077E+02 0.  0.
        -12    1    3    3    0    0  0.40137579433E+02 -0.16429605242E+02  0.16328077769E+01  0.43400728939E+02  0.00000000000E+00 0.  1.
         11    1    4    4    0    0 -0.16576117603E+02  0.87691657264E+01 -0.47681858999E+01  0.19349458374E+02  0.51100000000E-03 0. -1.
        -11    1    4    4    0    0 -0.21631529287E+02  0.23741209722E+01  0.53179737307E+01  0.22401793556E+02  0.51100000000E-03 0.  1.
        -12    1    4    4    0    0 -0.19299325432E+01  0.52863185434E+01 -0.21825956077E+01  0.60360191310E+01  0.00000000000E+00 0.  1.
</event>
<event>
 8    1  0.6469014E-010  0.9118800E+02  0.7816164E-02  0.1184000E+00
        -11   -1    0    0    0    0  0.00000000000E+00  0.00000000000E+00  0.45593999997E+02  0.45594000000E+02  0.51100000000E-03 0. -1.
         11   -1    0    0    0    0 -0.00000000000E+00 -0.00000000000E+00 -0.45593999997E+02  0.45594000000E+02  0.51100000000E-03 0.  1.
         23    2    1    2    0    0  0.00000000000E+00  0.00000000000E+00  0.00000000000E+00  0.91188000000E+02  0.91188000000E+02 0.  0.
    9900012    2    3    3    0    0  0.13699182569E+02 -0.30231937574E+02 -0.27964006392E+02  0.47787270674E+02  0.19999998311E+02 0.  0.
         12    1    3    3    0    0 -0.13699182569E+02  0.30231937574E+02  0.27964006392E+02  0.43400729326E+02  0.00000000000E+00 0. -1.
         11    1    4    4    0    0  0.17254597243E+02 -0.17496370275E+02 -0.17753682823E+02  0.30315628855E+02  0.51100000000E-03 0. -1.
        -11    1    4    4    0    0 -0.91449930759E+00 -0.10055306393E+02 -0.89812100035E+01  0.13513239028E+02  0.51100000000E-03 0.  1.
        -12    1    4    4    0    0 -0.26409153670E+01 -0.26802609066E+01 -0.12291135656E+01  0.39584027916E+01  0.00000000000E+00 0.  1.
</event>
<event>
 8    1  0.6469014E-010  0.9118800E+02  0.7816164E-02  0.1184000E+00
        -11   -1    0    0    0    0  0.00000000000E+00  0.00000000000E+00  0.45593999997E+02  0.45594000000E+02  0.51100000000E-03 0.  1.
         11   -1    0    0    0    0 -0.00000000000E+00 -0.00000000000E+00 -0.45593999997E+02  0.45594000000E+02  0.51100000000E-03 0. -1.
         23    2    1    2    0    0  0.00000000000E+00  0.00000000000E+00  0.00000000000E+00  0.91188000000E+02  0.91188000000E+02 0.  0.
    9900012    2    3    3    0    0 -0.22167155998E+02 -0.34005905114E+02 -0.15357049802E+02  0.47787269980E+02  0.19999995148E+02 0.  0.
         12    1    3    3    0    0  0.22167155998E+02  0.34005905114E+02  0.15357049802E+02  0.43400730020E+02  0.00000000000E+00 0. -1.
         11    1    4    4    0    0  0.92341420931E+00 -0.45152947900E+00 -0.39880795689E+01  0.41184161496E+01  0.51100000000E-03 0. -1.
        -11    1    4    4    0    0 -0.20226776151E+02 -0.30410438007E+02 -0.13467258608E+02  0.38926652411E+02  0.51100000000E-03 0.  1.
        -12    1    4    4    0    0 -0.28637940560E+01 -0.31439376277E+01  0.20982883750E+01  0.47422014199E+01  0.00000000000E+00 0.  1.
</event>
<event>
 8    1  0.6469014E-010  0.9118800E+02  0.7816164E-02  0.1184000E+00
        -11   -1    0    0    0    0  0.00000000000E+00  0.00000000000E+00  0.45593999997E+02  0.45594000000E+02  0.51100000000E-03 0. -1.
         11   -1    0    0    0    0 -0.00000000000E+00 -0.00000000000E+00 -0.45593999997E+02  0.45594000000E+02  0.51100000000E-03 0.  1.
         23    2    1    2    0    0  0.00000000000E+00  0.00000000000E+00 -0.17763568394E-14  0.91188000000E+02  0.91188000000E+02 0.  0.
    9900012    2    3    3    0    0  0.38306633306E+02  0.17830776446E+02 -0.99140638173E+01  0.47787269530E+02  0.19999993097E+02 0.  0.
         12    1    3    3    0    0 -0.38306633306E+02 -0.17830776446E+02  0.99140638173E+01  0.43400730470E+02  0.00000000000E+00 0. -1.
         11    1    4    4    0    0  0.10519670928E+02 -0.24845472429E+01 -0.48477233972E+01  0.11846386530E+02  0.51100000000E-03 0. -1.
        -11    1    4    4    0    0  0.13405286302E+02  0.15321316065E+02 -0.28818622477E+01  0.20560874424E+02  0.51100000000E-03 0.  1.
        -12    1    4    4    0    0  0.14381676077E+02  0.49940076237E+01 -0.21844781724E+01  0.15380008576E+02  0.00000000000E+00 0.  1.
</event>
<event>
 8    1  0.6469014E-010  0.9118800E+02  0.7816164E-02  0.1184000E+00
        -11   -1    0    0    0    0  0.00000000000E+00  0.00000000000E+00  0.45593999997E+02  0.45594000000E+02  0.51100000000E-03 0. -1.
         11   -1    0    0    0    0 -0.00000000000E+00 -0.00000000000E+00 -0.45593999997E+02  0.45594000000E+02  0.51100000000E-03 0.  1.
         23    2    1    2    0    0  0.00000000000E+00 -0.35527136788E-14  0.00000000000E+00  0.91188000000E+02  0.91188000000E+02 0.  0.
    9900012    2    3    3    0    0  0.33976560186E+02  0.21676426531E+02 -0.16104308379E+02  0.47787275840E+02  0.20000021864E+02 0.  0.
         12    1    3    3    0    0 -0.33976560186E+02 -0.21676426531E+02  0.16104308379E+02  0.43400724160E+02  0.00000000000E+00 0. -1.
         11    1    4    4    0    0  0.19270834947E+02  0.70284738058E+01 -0.14525170277E+02  0.25134539889E+02  0.51100000000E-03 0. -1.
        -11    1    4    4    0    0  0.14740522724E+02  0.14555750380E+02 -0.32583044073E+01  0.20970680179E+02  0.51100000000E-03 0.  1.
         12    1    4    4    0    0 -0.34797485607E-01  0.92202345952E-01  0.16791663051E+01  0.16820557713E+01  0.00000000000E+00 0. -1.
</event>
<event>
 8    1  0.6469014E-010  0.9118800E+02  0.7816164E-02  0.1184000E+00
        -11   -1    0    0    0    0  0.00000000000E+00  0.00000000000E+00  0.45593999997E+02  0.45594000000E+02  0.51100000000E-03 0.  1.
         11   -1    0    0    0    0 -0.00000000000E+00 -0.00000000000E+00 -0.45593999997E+02  0.45594000000E+02  0.51100000000E-03 0. -1.
         23    2    1    2    0    0 -0.71054273576E-14 -0.17763568394E-14 -0.35527136788E-14  0.91188000000E+02  0.91188000000E+02 0.  0.
    9900012    2    3    3    0    0 -0.37168864622E+02 -0.12346819485E+02 -0.18699065722E+02  0.47787268353E+02  0.19999987728E+02 0.  0.
        -12    1    3    3    0    0  0.37168864622E+02  0.12346819485E+02  0.18699065722E+02  0.43400731647E+02  0.00000000000E+00 0.  1.
         11    1    4    4    0    0 -0.12823886428E+02 -0.11925122912E+02 -0.11223171383E+02  0.20799523930E+02  0.51100000000E-03 0.  1.
        -11    1    4    4    0    0 -0.18914170829E+02 -0.29128293226E+00 -0.95282464343E+01  0.21180608685E+02  0.51100000000E-03 0. -1.
        -12    1    4    4    0    0 -0.54308073644E+01 -0.13041363997E+00  0.20523520951E+01  0.58071357371E+01  0.00000000000E+00 0.  1.
</event>
<event>
 8    1  0.6469014E-010  0.9118800E+02  0.7816164E-02  0.1184000E+00
        -11   -1    0    0    0    0  0.00000000000E+00  0.00000000000E+00  0.45593999997E+02  0.45594000000E+02  0.51100000000E-03 0. -1.
         11   -1    0    0    0    0 -0.00000000000E+00 -0.00000000000E+00 -0.45593999997E+02  0.45594000000E+02  0.51100000000E-03 0.  1.
         23    2    1    2    0    0  0.17763568394E-14 -0.22204460493E-15  0.00000000000E+00  0.91188000000E+02  0.91188000000E+02 0.  0.
    9900012    2    3    3    0    0  0.11076090121E+02  0.36848013573E+00  0.41961980859E+02  0.47787269735E+02  0.19999994028E+02 0.  0.
        -12    1    3    3    0    0 -0.11076090121E+02 -0.36848013573E+00 -0.41961980859E+02  0.43400730265E+02  0.00000000000E+00 0.  1.
         11    1    4    4    0    0 -0.12140495010E+01 -0.38203715391E+01  0.22901137999E+02  0.23249328524E+02  0.51100000000E-03 0. -1.
        -11    1    4    4    0    0  0.73921633264E+00 -0.97898916838E+00  0.68288764704E+01  0.69381852589E+01  0.51100000000E-03 0.  1.
         12    1    4    4    0    0  0.11550923289E+02  0.51678408432E+01  0.12231966389E+02  0.17599755952E+02  0.00000000000E+00 0. -1.
</event>
<event>
 8    1  0.6469014E-010  0.9118800E+02  0.7816164E-02  0.1184000E+00
        -11   -1    0    0    0    0  0.00000000000E+00  0.00000000000E+00  0.45593999997E+02  0.45594000000E+02  0.51100000000E-03 0. -1.
         11   -1    0    0    0    0 -0.00000000000E+00 -0.00000000000E+00 -0.45593999997E+02  0.45594000000E+02  0.51100000000E-03 0.  1.
         23    2    1    2    0    0  0.00000000000E+00  0.44408920985E-15  0.71054273576E-14  0.91188000000E+02  0.91188000000E+02 0.  0.
    9900012    2    3    3    0    0  0.33240405199E+01  0.11078008002E+01  0.43259063236E+02  0.47787273968E+02  0.20000013332E+02 0.  0.
        -12    1    3    3    0    0 -0.33240405199E+01 -0.11078008002E+01 -0.43259063236E+02  0.43400726032E+02  0.00000000000E+00 0.  1.
         11    1    4    4    0    0 -0.73344344969E+00 -0.53939781642E+01  0.17203471140E+02  0.18044177988E+02  0.51100000000E-03 0. -1.
        -11    1    4    4    0    0  0.79771443087E+01  0.59725784283E+01  0.21582989879E+02  0.23772504638E+02  0.51100000000E-03 0.  1.
         12    1    4    4    0    0 -0.39196603391E+01  0.52920053612E+00  0.44726022172E+01  0.59705913421E+01  0.00000000000E+00 0. -1.
</event>
<event>
 8    1  0.6469014E-010  0.9118800E+02  0.7816164E-02  0.1184000E+00
        -11   -1    0    0    0    0  0.00000000000E+00  0.00000000000E+00  0.45593999997E+02  0.45594000000E+02  0.51100000000E-03 0. -1.
         11   -1    0    0    0    0 -0.00000000000E+00 -0.00000000000E+00 -0.45593999997E+02  0.45594000000E+02  0.51100000000E-03 0.  1.
         23    2    1    2    0    0 -0.17763568394E-14  0.00000000000E+00  0.35527136788E-14  0.91188000000E+02  0.91188000000E+02 0.  0.
    9900012    2    3    3    0    0  0.11388763696E+02  0.33244110600E+02 -0.25470533524E+02  0.47787275281E+02  0.20000019316E+02 0.  0.
         12    1    3    3    0    0 -0.11388763696E+02 -0.33244110600E+02  0.25470533524E+02  0.43400724719E+02  0.00000000000E+00 0. -1.
         11    1    4    4    0    0  0.10680309723E+02  0.84074227485E+01 -0.98417620859E+01  0.16781360322E+02  0.51100000000E-03 0.  1.
        -11    1    4    4    0    0  0.22165456852E+01  0.21013750456E+02 -0.84969358133E+01  0.22774738231E+02  0.51100000000E-03 0. -1.
         12    1    4    4    0    0 -0.15080917119E+01  0.38229373960E+01 -0.71318356250E+01  0.82311767280E+01  0.00000000000E+00 0. -1.
</event>
<event>
 8    1  0.6469014E-010  0.9118800E+02  0.7816164E-02  0.1184000E+00
        -11   -1    0    0    0    0  0.00000000000E+00  0.00000000000E+00  0.45593999997E+02  0.45594000000E+02  0.51100000000E-03 0. -1.
         11   -1    0    0    0    0 -0.00000000000E+00 -0.00000000000E+00 -0.45593999997E+02  0.45594000000E+02  0.51100000000E-03 0.  1.
         23    2    1    2    0    0  0.17763568394E-14 -0.71054273576E-14  0.35527136788E-14  0.91188000000E+02  0.91188000000E+02 0.  0.
    9900012    2    3    3    0    0 -0.11099038368E+02 -0.35548501991E+02  0.22287634503E+02  0.47787270764E+02  0.19999998722E+02 0.  0.
        -12    1    3    3    0    0  0.11099038368E+02  0.35548501991E+02 -0.22287634503E+02  0.43400729236E+02  0.00000000000E+00 0.  1.
         11    1    4    4    0    0 -0.55151590744E+01 -0.67208096160E+01  0.61940313198E+00  0.87160726255E+01  0.51100000000E-03 0. -1.
        -11    1    4    4    0    0 -0.28801496434E+01  0.61428160247E+00  0.18572515215E+01  0.34816644483E+01  0.51100000000E-03 0.  1.
         12    1    4    4    0    0 -0.27037296498E+01 -0.29441973977E+02  0.19810979850E+02  0.35589533690E+02  0.00000000000E+00 0. -1.
</event>
<event>
 8    1  0.6469014E-010  0.9118800E+02  0.7816164E-02  0.1184000E+00
        -11   -1    0    0    0    0  0.00000000000E+00  0.00000000000E+00  0.45593999997E+02  0.45594000000E+02  0.51100000000E-03 0. -1.
         11   -1    0    0    0    0 -0.00000000000E+00 -0.00000000000E+00 -0.45593999997E+02  0.45594000000E+02  0.51100000000E-03 0.  1.
         23    2    1    2    0    0 -0.17763568394E-14  0.00000000000E+00  0.00000000000E+00  0.91188000000E+02  0.91188000000E+02 0.  0.
    9900012    2    3    3    0    0  0.10140854496E+02  0.24239576809E+02 -0.34543112168E+02  0.47787301710E+02  0.20000139817E+02 0.  0.
         12    1    3    3    0    0 -0.10140854496E+02 -0.24239576809E+02  0.34543112168E+02  0.43400698290E+02  0.00000000000E+00 0. -1.
         11    1    4    4    0    0  0.97171526258E+01  0.51444816830E+01 -0.45486873612E+01  0.11898710178E+02  0.51100000000E-03 0.  1.
        -11    1    4    4    0    0 -0.21427505787E+01  0.10880214258E+02 -0.16309571723E+02  0.19722387594E+02  0.51100000000E-03 0. -1.
        -12    1    4    4    0    0  0.25664524491E+01  0.82148808677E+01 -0.13684853083E+02  0.16166203938E+02  0.00000000000E+00 0.  1.
</event>
<event>
 8    1  0.6469014E-010  0.9118800E+02  0.7816164E-02  0.1184000E+00
        -11   -1    0    0    0    0  0.00000000000E+00  0.00000000000E+00  0.45593999997E+02  0.45594000000E+02  0.51100000000E-03 0. -1.
         11   -1    0    0    0    0 -0.00000000000E+00 -0.00000000000E+00 -0.45593999997E+02  0.45594000000E+02  0.51100000000E-03 0.  1.
         23    2    1    2    0    0  0.00000000000E+00  0.88817841970E-15  0.00000000000E+00  0.91188000000E+02  0.91188000000E+02 0.  0.
    9900012    2    3    3    0    0  0.32630546513E+02  0.54884939618E+01 -0.28084542828E+02  0.47787335517E+02  0.20000293955E+02 0.  0.
         12    1    3    3    0    0 -0.32630546513E+02 -0.54884939618E+01  0.28084542828E+02  0.43400664483E+02  0.00000000000E+00 0. -1.
         11    1    4    4    0    0  0.20104241445E+02  0.90312585818E+01 -0.17729404548E+02  0.28285613685E+02  0.51100000000E-03 0. -1.
        -11    1    4    4    0    0 -0.35618438326E+00 -0.22796405786E+01  0.77118905580E+00  0.24327682387E+01  0.51100000000E-03 0.  1.
        -12    1    4    4    0    0  0.12882489451E+02 -0.12631240415E+01 -0.11126327336E+02  0.17068953594E+02  0.00000000000E+00 0.  1.
</event>
<event>
 8    1  0.6469014E-010  0.9118800E+02  0.7816164E-02  0.1184000E+00
        -11   -1    0    0    0    0  0.00000000000E+00  0.00000000000E+00  0.45593999997E+02  0.45594000000E+02  0.51100000000E-03 0. -1.
         11   -1    0    0    0    0 -0.00000000000E+00 -0.00000000000E+00 -0.45593999997E+02  0.45594000000E+02  0.51100000000E-03 0.  1.
         23    2    1    2    0    0  0.00000000000E+00  0.71054273576E-14 -0.17763568394E-14  0.91188000000E+02  0.91188000000E+02 0.  0.
    9900012    2    3    3    0    0  0.37855600043E+01  0.41542026780E+02 -0.11981544203E+02  0.47787218267E+02  0.19999759367E+02 0.  0.
         12    1    3    3    0    0 -0.37855600043E+01 -0.41542026780E+02  0.11981544203E+02  0.43400781733E+02  0.00000000000E+00 0. -1.
         11    1    4    4    0    0  0.79179944259E+01  0.19347352878E+02 -0.89082755229E+00  0.20923868502E+02  0.51100000000E-03 0. -1.
        -11    1    4    4    0    0 -0.30778072470E+01  0.19371675080E+02 -0.12777932426E+02  0.23409618754E+02  0.51100000000E-03 0.  1.
        -12    1    4    4    0    0 -0.10546271747E+01  0.28229988225E+01  0.16872157756E+01  0.34537310119E+01  0.00000000000E+00 0.  1.
</event>
<event>
 8    1  0.6469014E-010  0.9118800E+02  0.7816164E-02  0.1184000E+00
        -11   -1    0    0    0    0  0.00000000000E+00  0.00000000000E+00  0.45593999997E+02  0.45594000000E+02  0.51100000000E-03 0. -1.
         11   -1    0    0    0    0 -0.00000000000E+00 -0.00000000000E+00 -0.45593999997E+02  0.45594000000E+02  0.51100000000E-03 0.  1.
         23    2    1    2    0    0  0.00000000000E+00  0.00000000000E+00  0.00000000000E+00  0.91188000000E+02  0.91188000000E+02 0.  0.
    9900012    2    3    3    0    0 -0.29357862529E+02  0.10490861052E+02 -0.30194016623E+02  0.47787298419E+02  0.20000124811E+02 0.  0.
         12    1    3    3    0    0  0.29357862529E+02 -0.10490861052E+02  0.30194016623E+02  0.43400701581E+02  0.00000000000E+00 0. -1.
         11    1    4    4    0    0 -0.11874260886E+01 -0.14031050737E+01 -0.33396687189E+01  0.38120954837E+01  0.51100000000E-03 0. -1.
        -11    1    4    4    0    0 -0.38528584006E+01  0.87863656273E+01 -0.11794079514E+02  0.15203455220E+02  0.51100000000E-03 0.  1.
        -12    1    4    4    0    0 -0.24317578040E+02  0.31076004989E+01 -0.15060268390E+02  0.28771747715E+02  0.00000000000E+00 0.  1.
</event>
<event>
 8    1  0.6469014E-010  0.9118800E+02  0.7816164E-02  0.1184000E+00
        -11   -1    0    0    0    0  0.00000000000E+00  0.00000000000E+00  0.45593999997E+02  0.45594000000E+02  0.51100000000E-03 0. -1.
         11   -1    0    0    0    0 -0.00000000000E+00 -0.00000000000E+00 -0.45593999997E+02  0.45594000000E+02  0.51100000000E-03 0.  1.
         23    2    1    2    0    0 -0.88817841970E-15  0.17763568394E-14  0.00000000000E+00  0.91188000000E+02  0.91188000000E+02 0.  0.
    9900012    2    3    3    0    0 -0.71052939736E+01 -0.13865037053E+02  0.40508008454E+02  0.47787271851E+02  0.20000003677E+02 0.  0.
        -12    1    3    3    0    0  0.71052939736E+01  0.13865037053E+02 -0.40508008454E+02  0.43400728149E+02  0.00000000000E+00 0.  1.
         11    1    4    4    0    0 -0.63084156705E+01 -0.80584508214E+01  0.11660527357E+02  0.15514594304E+02  0.51100000000E-03 0. -1.
        -11    1    4    4    0    0  0.59451708096E+01 -0.46188975837E+01  0.16938623457E+02  0.18536349040E+02  0.51100000000E-03 0.  1.
        -12    1    4    4    0    0 -0.67420491127E+01 -0.11876886481E+01  0.11908857640E+02  0.13736328507E+02  0.00000000000E+00 0.  1.
</event>
<event>
 8    1  0.6469014E-010  0.9118800E+02  0.7816164E-02  0.1184000E+00
        -11   -1    0    0    0    0  0.00000000000E+00  0.00000000000E+00  0.45593999997E+02  0.45594000000E+02  0.51100000000E-03 0.  1.
         11   -1    0    0    0    0 -0.00000000000E+00 -0.00000000000E+00 -0.45593999997E+02  0.45594000000E+02  0.51100000000E-03 0. -1.
         23    2    1    2    0    0  0.00000000000E+00  0.00000000000E+00  0.26645352591E-14  0.91188000000E+02  0.91188000000E+02 0.  0.
    9900012    2    3    3    0    0 -0.33897814061E+02  0.26912335470E+02 -0.32073515000E+01  0.47787277630E+02  0.20000030027E+02 0.  0.
         12    1    3    3    0    0  0.33897814061E+02 -0.26912335470E+02  0.32073515000E+01  0.43400722370E+02  0.00000000000E+00 0. -1.
         11    1    4    4    0    0 -0.16362554238E+02  0.11531849214E+02  0.77266345683E+01  0.21457343953E+02  0.51100000000E-03 0. -1.
        -11    1    4    4    0    0 -0.27877342392E+01  0.20917517496E+01  0.33783799759E+00  0.35015742665E+01  0.51100000000E-03 0.  1.
         12    1    4    4    0    0 -0.14747525583E+02  0.13288734507E+02 -0.11271824066E+02  0.22828359411E+02  0.00000000000E+00 0. -1.
</event>
<event>
 8    1  0.6469014E-010  0.9118800E+02  0.7816164E-02  0.1184000E+00
        -11   -1    0    0    0    0  0.00000000000E+00  0.00000000000E+00  0.45593999997E+02  0.45594000000E+02  0.51100000000E-03 0. -1.
         11   -1    0    0    0    0 -0.00000000000E+00 -0.00000000000E+00 -0.45593999997E+02  0.45594000000E+02  0.51100000000E-03 0.  1.
         23    2    1    2    0    0  0.88817841970E-15  0.00000000000E+00  0.00000000000E+00  0.91188000000E+02  0.91188000000E+02 0.  0.
    9900012    2    3    3    0    0  0.58320644169E+01  0.25039100310E+02 -0.34966476625E+02  0.47787262596E+02  0.19999961479E+02 0.  0.
         12    1    3    3    0    0 -0.58320644169E+01 -0.25039100310E+02  0.34966476625E+02  0.43400737404E+02  0.00000000000E+00 0. -1.
         11    1    4    4    0    0 -0.69960511636E+00  0.74662346457E+01 -0.18020644773E+01  0.77124278761E+01  0.51100000000E-03 0. -1.
        -11    1    4    4    0    0  0.75824707108E+01  0.19012962746E+02 -0.28563123354E+02  0.35140270780E+02  0.51100000000E-03 0.  1.
        -12    1    4    4    0    0 -0.10508011776E+01 -0.14400970817E+01 -0.46012887931E+01  0.49345639399E+01  0.00000000000E+00 0.  1.
</event>
<event>
 8    1  0.6469014E-010  0.9118800E+02  0.7816164E-02  0.1184000E+00
        -11   -1    0    0    0    0  0.00000000000E+00  0.00000000000E+00  0.45593999997E+02  0.45594000000E+02  0.51100000000E-03 0. -1.
         11   -1    0    0    0    0 -0.00000000000E+00 -0.00000000000E+00 -0.45593999997E+02  0.45594000000E+02  0.51100000000E-03 0.  1.
         23    2    1    2    0    0  0.00000000000E+00  0.17763568394E-14  0.00000000000E+00  0.91188000000E+02  0.91188000000E+02 0.  0.
    9900012    2    3    3    0    0  0.38378100244E+02 -0.90398527005E+01 -0.18139066674E+02  0.47787271262E+02  0.20000000992E+02 0.  0.
        -12    1    3    3    0    0 -0.38378100244E+02  0.90398527005E+01  0.18139066674E+02  0.43400728738E+02  0.00000000000E+00 0.  1.
         11    1    4    4    0    0  0.22835419528E+02 -0.69576645290E+01 -0.41820207609E+01  0.24235403414E+02  0.51100000000E-03 0. -1.
        -11    1    4    4    0    0  0.31593997893E+01 -0.30735625342E+01 -0.92874462409E+01  0.10280333245E+02  0.51100000000E-03 0.  1.
        -12    1    4    4    0    0  0.12383280927E+02  0.99137436264E+00 -0.46695996718E+01  0.13271534604E+02  0.00000000000E+00 0.  1.
</event>
<event>
 8    1  0.6469014E-010  0.9118800E+02  0.7816164E-02  0.1184000E+00
        -11   -1    0    0    0    0  0.00000000000E+00  0.00000000000E+00  0.45593999997E+02  0.45594000000E+02  0.51100000000E-03 0. -1.
         11   -1    0    0    0    0 -0.00000000000E+00 -0.00000000000E+00 -0.45593999997E+02  0.45594000000E+02  0.51100000000E-03 0.  1.
         23    2    1    2    0    0  0.00000000000E+00  0.00000000000E+00  0.00000000000E+00  0.91188000000E+02  0.91188000000E+02 0.  0.
    9900012    2    3    3    0    0 -0.14637668105E+02  0.20288887765E+02  0.35464399725E+02  0.47787263346E+02  0.19999964899E+02 0.  0.
        -12    1    3    3    0    0  0.14637668105E+02 -0.20288887765E+02 -0.35464399725E+02  0.43400736654E+02  0.00000000000E+00 0.  1.
         11    1    4    4    0    0 -0.42416328249E+01  0.77531831691E+01  0.25285370838E+02  0.26785318309E+02  0.51100000000E-03 0. -1.
        -11    1    4    4    0    0 -0.75226582441E+01  0.12830305589E+02  0.10331782517E+02  0.18109468761E+02  0.51100000000E-03 0.  1.
        -12    1    4    4    0    0 -0.28733770358E+01 -0.29460099238E+00 -0.15275362980E+00  0.28924762758E+01  0.00000000000E+00 0.  1.
</event>
<event>
 8    1  0.6469014E-010  0.9118800E+02  0.7816164E-02  0.1184000E+00
        -11   -1    0    0    0    0  0.00000000000E+00  0.00000000000E+00  0.45593999997E+02  0.45594000000E+02  0.51100000000E-03 0. -1.
         11   -1    0    0    0    0 -0.00000000000E+00 -0.00000000000E+00 -0.45593999997E+02  0.45594000000E+02  0.51100000000E-03 0.  1.
         23    2    1    2    0    0 -0.17763568394E-14  0.00000000000E+00  0.35527136788E-14  0.91188000000E+02  0.91188000000E+02 0.  0.
    9900012    2    3    3    0    0  0.81531177170E+01 -0.36393937617E+02  0.22195300294E+02  0.47787269834E+02  0.19999994481E+02 0.  0.
        -12    1    3    3    0    0 -0.81531177170E+01  0.36393937617E+02 -0.22195300294E+02  0.43400730166E+02  0.00000000000E+00 0.  1.
         11    1    4    4    0    0  0.25935483047E+00 -0.16377932427E+02  0.91628887125E+01  0.18768656461E+02  0.51100000000E-03 0. -1.
        -11    1    4    4    0    0  0.11998126107E+02 -0.13516006043E+02  0.10616160278E+02  0.20960446292E+02  0.51100000000E-03 0.  1.
        -12    1    4    4    0    0 -0.41043632203E+01 -0.64999991469E+01  0.24162513032E+01  0.80581670815E+01  0.00000000000E+00 0.  1.
</event>
<event>
 8    1  0.6469014E-010  0.9118800E+02  0.7816164E-02  0.1184000E+00
        -11   -1    0    0    0    0  0.00000000000E+00  0.00000000000E+00  0.45593999997E+02  0.45594000000E+02  0.51100000000E-03 0. -1.
         11   -1    0    0    0    0 -0.00000000000E+00 -0.00000000000E+00 -0.45593999997E+02  0.45594000000E+02  0.51100000000E-03 0.  1.
         23    2    1    2    0    0  0.17763568394E-14 -0.22204460493E-15  0.00000000000E+00  0.91188000000E+02  0.91188000000E+02 0.  0.
    9900012    2    3    3    0    0 -0.14949192858E+02 -0.18164200109E+01  0.40704372431E+02  0.47787266322E+02  0.19999978468E+02 0.  0.
        -12    1    3    3    0    0  0.14949192858E+02  0.18164200109E+01 -0.40704372431E+02  0.43400733678E+02  0.00000000000E+00 0.  1.
         11    1    4    4    0    0 -0.29951508486E+01  0.45526406747E+01  0.22971720255E+02  0.23609265077E+02  0.51100000000E-03 0. -1.
        -11    1    4    4    0    0 -0.12383665107E+02 -0.58929347779E+01  0.18593761699E+02  0.23104324620E+02  0.51100000000E-03 0.  1.
         12    1    4    4    0    0  0.42962309692E+00 -0.47612590768E+00 -0.86110952265E+00  0.10736766251E+01  0.00000000000E+00 0. -1.
</event>
<event>
 8    1  0.6469014E-010  0.9118800E+02  0.7816164E-02  0.1184000E+00
        -11   -1    0    0    0    0  0.00000000000E+00  0.00000000000E+00  0.45593999997E+02  0.45594000000E+02  0.51100000000E-03 0.  1.
         11   -1    0    0    0    0 -0.00000000000E+00 -0.00000000000E+00 -0.45593999997E+02  0.45594000000E+02  0.51100000000E-03 0. -1.
         23    2    1    2    0    0  0.17763568394E-14  0.00000000000E+00 -0.17763568394E-14  0.91188000000E+02  0.91188000000E+02 0.  0.
    9900012    2    3    3    0    0  0.71073357646E+01  0.41505023229E+02 -0.10509117133E+02  0.47787277450E+02  0.20000029206E+02 0.  0.
         12    1    3    3    0    0 -0.71073357646E+01 -0.41505023229E+02  0.10509117133E+02  0.43400722550E+02  0.00000000000E+00 0. -1.
         11    1    4    4    0    0 -0.45752381978E+00  0.14712144762E+02 -0.49153104048E+00  0.14727461918E+02  0.51100000000E-03 0. -1.
        -11    1    4    4    0    0 -0.48898504809E+00  0.21428556635E+02 -0.44349475531E+01  0.21888145328E+02  0.51100000000E-03 0.  1.
        -12    1    4    4    0    0  0.80538446325E+01  0.53643218329E+01 -0.55826385392E+01  0.11171670204E+02  0.00000000000E+00 0.  1.
</event>
<event>
 8    1  0.6469014E-010  0.9118800E+02  0.7816164E-02  0.1184000E+00
        -11   -1    0    0    0    0  0.00000000000E+00  0.00000000000E+00  0.45593999997E+02  0.45594000000E+02  0.51100000000E-03 0. -1.
         11   -1    0    0    0    0 -0.00000000000E+00 -0.00000000000E+00 -0.45593999997E+02  0.45594000000E+02  0.51100000000E-03 0.  1.
         23    2    1    2    0    0  0.00000000000E+00 -0.44408920985E-15  0.00000000000E+00  0.91188000000E+02  0.91188000000E+02 0.  0.
    9900012    2    3    3    0    0 -0.39319486630E+02 -0.25594900980E+01 -0.18194788421E+02  0.47787270235E+02  0.19999996312E+02 0.  0.
         12    1    3    3    0    0  0.39319486630E+02  0.25594900980E+01  0.18194788421E+02  0.43400729765E+02  0.00000000000E+00 0. -1.
         11    1    4    4    0    0 -0.50402551504E+01 -0.31165445751E+01 -0.10090391322E+02  0.11701838290E+02  0.51100000000E-03 0. -1.
        -11    1    4    4    0    0 -0.93088543590E+01  0.35327768493E+01 -0.13556927138E+01  0.10048541423E+02  0.51100000000E-03 0.  1.
         12    1    4    4    0    0 -0.24970377121E+02 -0.29757223722E+01 -0.67487043849E+01  0.26036890522E+02  0.00000000000E+00 0. -1.
</event>
<event>
 8    1  0.6560095E-010  0.9118800E+02  0.7816164E-02  0.1184000E+00
        -11   -1    0    0    0    0  0.00000000000E+00  0.00000000000E+00  0.45593999997E+02  0.45594000000E+02  0.51100000000E-03 0. -1.
         11   -1    0    0    0    0 -0.00000000000E+00 -0.00000000000E+00 -0.45593999997E+02  0.45594000000E+02  0.51100000000E-03 0.  1.
         23    2    1    2    0    0  0.88817841970E-15  0.00000000000E+00 -0.35527136788E-14  0.91188000000E+02  0.91188000000E+02 0.  0.
    9900012    2    3    3    0    0 -0.28864788060E+01 -0.32863995438E+02 -0.28200166304E+02  0.47787270333E+02  0.19999996756E+02 0.  0.
         12    1    3    3    0    0  0.28864788060E+01  0.32863995438E+02  0.28200166304E+02  0.43400729667E+02  0.00000000000E+00 0. -1.
         11    1    4    4    0    0 -0.78557034620E+01 -0.50677963111E+01 -0.38999887558E+01  0.10129390351E+02  0.51100000000E-03 0. -1.
        -11    1    4    4    0    0  0.41329734955E+01 -0.13651552537E+02 -0.93220465529E+01  0.17039568914E+02  0.51100000000E-03 0.  1.
         12    1    4    4    0    0  0.83625116044E+00 -0.14144646590E+02 -0.14978130995E+02  0.20618311067E+02  0.00000000000E+00 0. -1.
</event>
<event>
 8    1  0.6469014E-010  0.9118800E+02  0.7816164E-02  0.1184000E+00
        -11   -1    0    0    0    0  0.00000000000E+00  0.00000000000E+00  0.45593999997E+02  0.45594000000E+02  0.51100000000E-03 0. -1.
         11   -1    0    0    0    0 -0.00000000000E+00 -0.00000000000E+00 -0.45593999997E+02  0.45594000000E+02  0.51100000000E-03 0.  1.
         23    2    1    2    0    0  0.00000000000E+00  0.22204460493E-15  0.00000000000E+00  0.91188000000E+02  0.91188000000E+02 0.  0.
    9900012    2    3    3    0    0  0.18383642705E+02 -0.17009415334E+01 -0.39278130983E+02  0.47787273108E+02  0.20000009410E+02 0.  0.
         12    1    3    3    0    0 -0.18383642705E+02  0.17009415334E+01  0.39278130983E+02  0.43400726892E+02  0.00000000000E+00 0. -1.
         11    1    4    4    0    0  0.13684455597E+01 -0.86066369708E+00  0.12919605292E+01  0.20694316900E+01  0.51100000000E-03 0. -1.
        -11    1    4    4    0    0  0.88711640084E+01  0.49601068115E+01 -0.27094339390E+02  0.28937923866E+02  0.51100000000E-03 0.  1.
        -12    1    4    4    0    0  0.81440331369E+01 -0.58003846479E+01 -0.13475752122E+02  0.16779917552E+02  0.00000000000E+00 0.  1.
</event>
<event>
 8    1  0.6469014E-010  0.9118800E+02  0.7816164E-02  0.1184000E+00
        -11   -1    0    0    0    0  0.00000000000E+00  0.00000000000E+00  0.45593999997E+02  0.45594000000E+02  0.51100000000E-03 0. -1.
         11   -1    0    0    0    0 -0.00000000000E+00 -0.00000000000E+00 -0.45593999997E+02  0.45594000000E+02  0.51100000000E-03 0.  1.
         23    2    1    2    0    0  0.00000000000E+00  0.00000000000E+00  0.00000000000E+00  0.91188000000E+02  0.91188000000E+02 0.  0.
    9900012    2    3    3    0    0 -0.53721933418E+01  0.54042690114E+01  0.42726531376E+02  0.47787273413E+02  0.20000010801E+02 0.  0.
        -12    1    3    3    0    0  0.53721933418E+01 -0.54042690114E+01 -0.42726531376E+02  0.43400726587E+02  0.00000000000E+00 0.  1.
         11    1    4    4    0    0 -0.22935872050E+01  0.82747073601E+01  0.23795209068E+02  0.25297100605E+02  0.51100000000E-03 0. -1.
        -11    1    4    4    0    0 -0.15760261711E+00 -0.70447203259E+01  0.10942612029E+02  0.13015132782E+02  0.51100000000E-03 0.  1.
         12    1    4    4    0    0 -0.29210035196E+01  0.41742819772E+01  0.79887102788E+01  0.94750400265E+01  0.00000000000E+00 0. -1.
</event>
<event>
 8    1  0.6469014E-010  0.9118800E+02  0.7816164E-02  0.1184000E+00
        -11   -1    0    0    0    0  0.00000000000E+00  0.00000000000E+00  0.45593999997E+02  0.45594000000E+02  0.51100000000E-03 0. -1.
         11   -1    0    0    0    0 -0.00000000000E+00 -0.00000000000E+00 -0.45593999997E+02  0.45594000000E+02  0.51100000000E-03 0.  1.
         23    2    1    2    0    0  0.17763568394E-14  0.35527136788E-14  0.71054273576E-14  0.91188000000E+02  0.91188000000E+02 0.  0.
    9900012    2    3    3    0    0  0.92999677928E+01  0.23387164942E+02  0.35357820643E+02  0.47787258468E+02  0.19999942658E+02 0.  0.
        -12    1    3    3    0    0 -0.92999677928E+01 -0.23387164942E+02 -0.35357820643E+02  0.43400741532E+02  0.00000000000E+00 0.  1.
         11    1    4    4    0    0  0.69999109679E+01  0.51123585389E+00  0.15523932572E+02  0.17036801296E+02  0.51100000000E-03 0. -1.
        -11    1    4    4    0    0  0.11985371920E+01  0.14193223916E+02  0.91080677638E+01  0.16906832795E+02  0.51100000000E-03 0.  1.
         12    1    4    4    0    0  0.11015196330E+01  0.86827051720E+01  0.10725820307E+02  0.13843624376E+02  0.00000000000E+00 0. -1.
</event>
<event>
 8    1  0.6469014E-010  0.9118800E+02  0.7816164E-02  0.1184000E+00
        -11   -1    0    0    0    0  0.00000000000E+00  0.00000000000E+00  0.45593999997E+02  0.45594000000E+02  0.51100000000E-03 0. -1.
         11   -1    0    0    0    0 -0.00000000000E+00 -0.00000000000E+00 -0.45593999997E+02  0.45594000000E+02  0.51100000000E-03 0.  1.
         23    2    1    2    0    0  0.00000000000E+00  0.35527136788E-14  0.35527136788E-14  0.91188000000E+02  0.91188000000E+02 0.  0.
    9900012    2    3    3    0    0  0.24814423122E+02 -0.29103744641E+02 -0.20514372137E+02  0.47787274071E+02  0.20000013798E+02 0.  0.
         12    1    3    3    0    0 -0.24814423122E+02  0.29103744641E+02  0.20514372137E+02  0.43400725929E+02  0.00000000000E+00 0. -1.
         11    1    4    4    0    0  0.54626193721E+01 -0.15445673919E+01 -0.31210750699E+01  0.64781948631E+01  0.51100000000E-03 0. -1.
        -11    1    4    4    0    0  0.94205883404E+01 -0.62452775292E+01  0.11527612933E+01  0.11361330686E+02  0.51100000000E-03 0.  1.
        -12    1    4    4    0    0  0.99312154091E+01 -0.21313899720E+02 -0.18546058361E+02  0.29947748521E+02  0.00000000000E+00 0.  1.
</event>
<event>
 8    1  0.6469014E-010  0.9118800E+02  0.7816164E-02  0.1184000E+00
        -11   -1    0    0    0    0  0.00000000000E+00  0.00000000000E+00  0.45593999997E+02  0.45594000000E+02  0.51100000000E-03 0. -1.
         11   -1    0    0    0    0 -0.00000000000E+00 -0.00000000000E+00 -0.45593999997E+02  0.45594000000E+02  0.51100000000E-03 0.  1.
         23    2    1    2    0    0  0.35527136788E-14  0.00000000000E+00  0.00000000000E+00  0.91188000000E+02  0.91188000000E+02 0.  0.
    9900012    2    3    3    0    0  0.22938778673E+02  0.26039693525E+02 -0.26064732043E+02  0.47787268873E+02  0.19999990100E+02 0.  0.
         12    1    3    3    0    0 -0.22938778673E+02 -0.26039693525E+02  0.26064732043E+02  0.43400731127E+02  0.00000000000E+00 0. -1.
         11    1    4    4    0    0 -0.26313257900E+01  0.23593675241E+01 -0.54822785753E+01  0.65227194609E+01  0.51100000000E-03 0. -1.
        -11    1    4    4    0    0  0.15454673461E+02  0.94567672573E+01 -0.83427156565E+01  0.19946886562E+02  0.51100000000E-03 0.  1.
        -12    1    4    4    0    0  0.10115431002E+02  0.14223558743E+02 -0.12239737811E+02  0.21317662850E+02  0.00000000000E+00 0.  1.
</event>
<event>
 8    1  0.6469014E-010  0.9118800E+02  0.7816164E-02  0.1184000E+00
        -11   -1    0    0    0    0  0.00000000000E+00  0.00000000000E+00  0.45593999997E+02  0.45594000000E+02  0.51100000000E-03 0. -1.
         11   -1    0    0    0    0 -0.00000000000E+00 -0.00000000000E+00 -0.45593999997E+02  0.45594000000E+02  0.51100000000E-03 0.  1.
         23    2    1    2    0    0  0.00000000000E+00  0.00000000000E+00  0.00000000000E+00  0.91188000000E+02  0.91188000000E+02 0.  0.
    9900012    2    3    3    0    0  0.20536281758E+02 -0.23301593620E+02 -0.30313693829E+02  0.47787272273E+02  0.20000005603E+02 0.  0.
         12    1    3    3    0    0 -0.20536281758E+02  0.23301593620E+02  0.30313693829E+02  0.43400727727E+02  0.00000000000E+00 0. -1.
         11    1    4    4    0    0  0.50053000654E+01 -0.15542712328E+02 -0.52997446134E+01  0.17167301141E+02  0.51100000000E-03 0. -1.
        -11    1    4    4    0    0  0.77563740596E+01 -0.44647892625E+01 -0.10208920030E+02  0.13576366603E+02  0.51100000000E-03 0.  1.
         12    1    4    4    0    0  0.77746076333E+01 -0.32940920296E+01 -0.14805029186E+02  0.17043604529E+02  0.00000000000E+00 0. -1.
</event>
<event>
 8    1  0.6469014E-010  0.9118800E+02  0.7816164E-02  0.1184000E+00
        -11   -1    0    0    0    0  0.00000000000E+00  0.00000000000E+00  0.45593999997E+02  0.45594000000E+02  0.51100000000E-03 0. -1.
         11   -1    0    0    0    0 -0.00000000000E+00 -0.00000000000E+00 -0.45593999997E+02  0.45594000000E+02  0.51100000000E-03 0.  1.
         23    2    1    2    0    0  0.00000000000E+00 -0.35527136788E-14  0.71054273576E-14  0.91188000000E+02  0.91188000000E+02 0.  0.
    9900012    2    3    3    0    0  0.11474981375E+02 -0.18213499683E+02  0.37685756988E+02  0.47787273647E+02  0.20000011864E+02 0.  0.
        -12    1    3    3    0    0 -0.11474981375E+02  0.18213499683E+02 -0.37685756988E+02  0.43400726353E+02  0.00000000000E+00 0.  1.
         11    1    4    4    0    0 -0.59513643669E+00 -0.93570868116E+01  0.17689997296E+02  0.20021120487E+02  0.51100000000E-03 0. -1.
        -11    1    4    4    0    0  0.36367141718E+01  0.29177984477E+01  0.62599238712E+01  0.78055034997E+01  0.51100000000E-03 0.  1.
        -12    1    4    4    0    0  0.84334036403E+01 -0.11774211319E+02  0.13735835821E+02  0.19960649660E+02  0.00000000000E+00 0.  1.
</event>
<event>
 8    1  0.6469014E-010  0.9118800E+02  0.7816164E-02  0.1184000E+00
        -11   -1    0    0    0    0  0.00000000000E+00  0.00000000000E+00  0.45593999997E+02  0.45594000000E+02  0.51100000000E-03 0. -1.
         11   -1    0    0    0    0 -0.00000000000E+00 -0.00000000000E+00 -0.45593999997E+02  0.45594000000E+02  0.51100000000E-03 0.  1.
         23    2    1    2    0    0  0.00000000000E+00  0.00000000000E+00  0.00000000000E+00  0.91188000000E+02  0.91188000000E+02 0.  0.
    9900012    2    3    3    0    0 -0.11302703314E+02  0.63702196437E+01 -0.41416086358E+02  0.47787274087E+02  0.20000013874E+02 0.  0.
         12    1    3    3    0    0  0.11302703314E+02 -0.63702196437E+01  0.41416086358E+02  0.43400725913E+02  0.00000000000E+00 0. -1.
         11    1    4    4    0    0  0.40498915956E+01  0.39568240694E+01 -0.34847381857E+01  0.66484192960E+01  0.51100000000E-03 0. -1.
        -11    1    4    4    0    0 -0.81146701916E+01  0.30203048518E+01 -0.20194777495E+02  0.21972691051E+02  0.51100000000E-03 0.  1.
         12    1    4    4    0    0 -0.72379247179E+01 -0.60690927746E+00 -0.17736570678E+02  0.19166163740E+02  0.00000000000E+00 0. -1.
</event>
<event>
 8    1  0.6469014E-010  0.9118800E+02  0.7816164E-02  0.1184000E+00
        -11   -1    0    0    0    0  0.00000000000E+00  0.00000000000E+00  0.45593999997E+02  0.45594000000E+02  0.51100000000E-03 0. -1.
         11   -1    0    0    0    0 -0.00000000000E+00 -0.00000000000E+00 -0.45593999997E+02  0.45594000000E+02  0.51100000000E-03 0.  1.
         23    2    1    2    0    0 -0.17763568394E-14  0.17763568394E-14  0.00000000000E+00  0.91188000000E+02  0.91188000000E+02 0.  0.
    9900012    2    3    3    0    0 -0.12021385884E+02  0.86717177652E+01  0.40791063500E+02  0.47787271100E+02  0.20000000255E+02 0.  0.
        -12    1    3    3    0    0  0.12021385884E+02 -0.86717177652E+01 -0.40791063500E+02  0.43400728900E+02  0.00000000000E+00 0.  1.
         11    1    4    4    0    0 -0.24676894268E+01 -0.80055683505E-01  0.26313656797E+02  0.26429234463E+02  0.51100000000E-03 0. -1.
        -11    1    4    4    0    0 -0.99795475863E+01  0.70928729545E+01  0.79225112979E+01  0.14583086172E+02  0.51100000000E-03 0.  1.
         12    1    4    4    0    0  0.42585112869E+00  0.16589004943E+01  0.65548954050E+01  0.67749504651E+01  0.00000000000E+00 0. -1.
</event>
<event>
 8    1  0.6469014E-010  0.9118800E+02  0.7816164E-02  0.1184000E+00
        -11   -1    0    0    0    0  0.00000000000E+00  0.00000000000E+00  0.45593999997E+02  0.45594000000E+02  0.51100000000E-03 0. -1.
         11   -1    0    0    0    0 -0.00000000000E+00 -0.00000000000E+00 -0.45593999997E+02  0.45594000000E+02  0.51100000000E-03 0.  1.
         23    2    1    2    0    0  0.35527136788E-14  0.71054273576E-14 -0.17763568394E-14  0.91188000000E+02  0.91188000000E+02 0.  0.
    9900012    2    3    3    0    0  0.25130986811E+02  0.32852130083E+02 -0.13145138398E+02  0.47787267142E+02  0.19999982209E+02 0.  0.
        -12    1    3    3    0    0 -0.25130986811E+02 -0.32852130083E+02  0.13145138398E+02  0.43400732858E+02  0.00000000000E+00 0.  1.
         11    1    4    4    0    0  0.70023749486E+01  0.14759011342E+02 -0.11531766632E+02  0.19996082432E+02  0.51100000000E-03 0. -1.
        -11    1    4    4    0    0  0.10139350158E+02  0.94700718016E+01 -0.61694788151E+01  0.15183910915E+02  0.51100000000E-03 0.  1.
         12    1    4    4    0    0  0.79892617046E+01  0.86230469389E+01  0.45561070497E+01  0.12607273795E+02  0.00000000000E+00 0. -1.
</event>
<event>
 8    1  0.6469014E-010  0.9118800E+02  0.7816164E-02  0.1184000E+00
        -11   -1    0    0    0    0  0.00000000000E+00  0.00000000000E+00  0.45593999997E+02  0.45594000000E+02  0.51100000000E-03 0. -1.
         11   -1    0    0    0    0 -0.00000000000E+00 -0.00000000000E+00 -0.45593999997E+02  0.45594000000E+02  0.51100000000E-03 0.  1.
         23    2    1    2    0    0  0.22204460493E-15  0.00000000000E+00  0.00000000000E+00  0.91188000000E+02  0.91188000000E+02 0.  0.
    9900012    2    3    3    0    0  0.71498321097E+00  0.17649310645E+02 -0.39643584913E+02  0.47787271988E+02  0.20000004301E+02 0.  0.
         12    1    3    3    0    0 -0.71498321097E+00 -0.17649310645E+02  0.39643584913E+02  0.43400728012E+02  0.00000000000E+00 0. -1.
         11    1    4    4    0    0  0.15542388046E+01 -0.35989871534E+01 -0.30941257611E+01  0.49941947578E+01  0.51100000000E-03 0. -1.
        -11    1    4    4    0    0 -0.14799566386E-01  0.10961863078E+02 -0.25042922918E+02  0.27336983186E+02  0.51100000000E-03 0.  1.
        -12    1    4    4    0    0 -0.82445602726E+00  0.10286434720E+02 -0.11506536233E+02  0.15456094044E+02  0.00000000000E+00 0.  1.
</event>
<event>
 8    1  0.6469014E-010  0.9118800E+02  0.7816164E-02  0.1184000E+00
        -11   -1    0    0    0    0  0.00000000000E+00  0.00000000000E+00  0.45593999997E+02  0.45594000000E+02  0.51100000000E-03 0. -1.
         11   -1    0    0    0    0 -0.00000000000E+00 -0.00000000000E+00 -0.45593999997E+02  0.45594000000E+02  0.51100000000E-03 0.  1.
         23    2    1    2    0    0 -0.44408920985E-15 -0.17763568394E-14  0.00000000000E+00  0.91188000000E+02  0.91188000000E+02 0.  0.
    9900012    2    3    3    0    0  0.20711237864E+01  0.10940171139E+02  0.41948178299E+02  0.47787233176E+02  0.19999827340E+02 0.  0.
        -12    1    3    3    0    0 -0.20711237864E+01 -0.10940171139E+02 -0.41948178299E+02  0.43400766824E+02  0.00000000000E+00 0.  1.
         11    1    4    4    0    0 -0.25015753164E+01  0.27432092086E+01  0.17692736819E+02  0.18078053331E+02  0.51100000000E-03 0. -1.
        -11    1    4    4    0    0  0.63201380780E+01  0.10001206420E+02  0.10792510525E+02  0.16013948884E+02  0.51100000000E-03 0.  1.
        -12    1    4    4    0    0 -0.17474389752E+01 -0.18042444890E+01  0.13462930956E+02  0.13695230960E+02  0.00000000000E+00 0.  1.
</event>
<event>
 8    1  0.6469014E-010  0.9118800E+02  0.7816164E-02  0.1184000E+00
        -11   -1    0    0    0    0  0.00000000000E+00  0.00000000000E+00  0.45593999997E+02  0.45594000000E+02  0.51100000000E-03 0. -1.
         11   -1    0    0    0    0 -0.00000000000E+00 -0.00000000000E+00 -0.45593999997E+02  0.45594000000E+02  0.51100000000E-03 0.  1.
         23    2    1    2    0    0  0.00000000000E+00  0.00000000000E+00  0.00000000000E+00  0.91188000000E+02  0.91188000000E+02 0.  0.
    9900012    2    3    3    0    0  0.24397933098E+02 -0.34338036447E+02 -0.10452933855E+02  0.47787265989E+02  0.19999976951E+02 0.  0.
         12    1    3    3    0    0 -0.24397933098E+02  0.34338036447E+02  0.10452933855E+02  0.43400734011E+02  0.00000000000E+00 0. -1.
         11    1    4    4    0    0  0.67751927677E+00 -0.75919305429E+01  0.60130438344E+00  0.76457837375E+01  0.51100000000E-03 0. -1.
        -11    1    4    4    0    0  0.15474280617E+02 -0.92349931628E+01 -0.35151072873E+00  0.18023929077E+02  0.51100000000E-03 0.  1.
        -12    1    4    4    0    0  0.82461332038E+01 -0.17511112742E+02 -0.10702727510E+02  0.22117553174E+02  0.00000000000E+00 0.  1.
</event>
<event>
 8    1  0.6469014E-010  0.9118800E+02  0.7816164E-02  0.1184000E+00
        -11   -1    0    0    0    0  0.00000000000E+00  0.00000000000E+00  0.45593999997E+02  0.45594000000E+02  0.51100000000E-03 0. -1.
         11   -1    0    0    0    0 -0.00000000000E+00 -0.00000000000E+00 -0.45593999997E+02  0.45594000000E+02  0.51100000000E-03 0.  1.
         23    2    1    2    0    0  0.00000000000E+00  0.17763568394E-14 -0.14210854715E-13  0.91188000000E+02  0.91188000000E+02 0.  0.
    9900012    2    3    3    0    0  0.20535641297E+02 -0.15539907667E+02  0.34934547544E+02  0.47787263763E+02  0.19999966801E+02 0.  0.
        -12    1    3    3    0    0 -0.20535641297E+02  0.15539907667E+02 -0.34934547544E+02  0.43400736237E+02  0.00000000000E+00 0.  1.
         11    1    4    4    0    0  0.52881699932E+01 -0.38336050616E+00  0.18312179428E+00  0.53052088561E+01  0.51100000000E-03 0.  1.
        -11    1    4    4    0    0  0.91732301741E+01 -0.65412239223E+01  0.82591482867E+01  0.13969584565E+02  0.51100000000E-03 0. -1.
         12    1    4    4    0    0  0.60742411299E+01 -0.86153232387E+01  0.26492277463E+02  0.28512470342E+02  0.00000000000E+00 0. -1.
</event>
<event>
 8    1  0.6469014E-010  0.9118800E+02  0.7816164E-02  0.1184000E+00
        -11   -1    0    0    0    0  0.00000000000E+00  0.00000000000E+00  0.45593999997E+02  0.45594000000E+02  0.51100000000E-03 0. -1.
         11   -1    0    0    0    0 -0.00000000000E+00 -0.00000000000E+00 -0.45593999997E+02  0.45594000000E+02  0.51100000000E-03 0.  1.
         23    2    1    2    0    0  0.00000000000E+00  0.35527136788E-14 -0.17763568394E-14  0.91188000000E+02  0.91188000000E+02 0.  0.
    9900012    2    3    3    0    0 -0.30893246256E+02  0.26043447271E+02  0.15842021742E+02  0.47787268868E+02  0.19999990075E+02 0.  0.
        -12    1    3    3    0    0  0.30893246256E+02 -0.26043447271E+02 -0.15842021742E+02  0.43400731132E+02  0.00000000000E+00 0.  1.
         11    1    4    4    0    0 -0.14770817267E+02  0.53433359284E+01  0.51041054324E+01  0.16516058068E+02  0.51100000000E-03 0. -1.
        -11    1    4    4    0    0 -0.14983366313E+02  0.87547927676E+01  0.68655245620E+01  0.18662344179E+02  0.51100000000E-03 0.  1.
        -12    1    4    4    0    0 -0.11390626763E+01  0.11945318575E+02  0.38723917478E+01  0.12608866621E+02  0.00000000000E+00 0.  1.
</event>
<event>
 8    1  0.6469014E-010  0.9118800E+02  0.7816164E-02  0.1184000E+00
        -11   -1    0    0    0    0  0.00000000000E+00  0.00000000000E+00  0.45593999997E+02  0.45594000000E+02  0.51100000000E-03 0. -1.
         11   -1    0    0    0    0 -0.00000000000E+00 -0.00000000000E+00 -0.45593999997E+02  0.45594000000E+02  0.51100000000E-03 0.  1.
         23    2    1    2    0    0 -0.66613381478E-15  0.17763568394E-14  0.71054273576E-14  0.91188000000E+02  0.91188000000E+02 0.  0.
    9900012    2    3    3    0    0  0.11124117142E+01  0.10984233914E+02 -0.41972997374E+02  0.47787270017E+02  0.19999995315E+02 0.  0.
         12    1    3    3    0    0 -0.11124117142E+01 -0.10984233914E+02  0.41972997374E+02  0.43400729983E+02  0.00000000000E+00 0. -1.
         11    1    4    4    0    0 -0.61038395534E+01  0.42732109191E+01 -0.12607073076E+02  0.14644298571E+02  0.51100000000E-03 0. -1.
        -11    1    4    4    0    0  0.51652140488E+01  0.94339295548E+00 -0.29408672525E+01  0.60181497901E+01  0.51100000000E-03 0.  1.
        -12    1    4    4    0    0  0.20510372188E+01  0.57676300394E+01 -0.26425057046E+02  0.27124821655E+02  0.00000000000E+00 0.  1.
</event>
<event>
 8    1  0.6469014E-010  0.9118800E+02  0.7816164E-02  0.1184000E+00
        -11   -1    0    0    0    0  0.00000000000E+00  0.00000000000E+00  0.45593999997E+02  0.45594000000E+02  0.51100000000E-03 0. -1.
         11   -1    0    0    0    0 -0.00000000000E+00 -0.00000000000E+00 -0.45593999997E+02  0.45594000000E+02  0.51100000000E-03 0.  1.
         23    2    1    2    0    0  0.00000000000E+00  0.17763568394E-14  0.00000000000E+00  0.91188000000E+02  0.91188000000E+02 0.  0.
    9900012    2    3    3    0    0  0.34727022338E+02 -0.11684953397E+02  0.23261970889E+02  0.47787268370E+02  0.19999987805E+02 0.  0.
        -12    1    3    3    0    0 -0.34727022338E+02  0.11684953397E+02 -0.23261970889E+02  0.43400731630E+02  0.00000000000E+00 0.  1.
         11    1    4    4    0    0  0.30998379891E+02 -0.47876620457E+01  0.14107679596E+02  0.34392555700E+02  0.51100000000E-03 0. -1.
        -11    1    4    4    0    0  0.27814042323E+01 -0.79134982888E+01  0.79236370915E+01  0.11538790651E+02  0.51100000000E-03 0.  1.
        -12    1    4    4    0    0  0.94723821528E+00  0.10162069371E+01  0.12306542016E+01  0.18559220187E+01  0.00000000000E+00 0.  1.
</event>
<event>
 8    1  0.8073595E-010  0.9118800E+02  0.7816164E-02  0.1184000E+00
        -11   -1    0    0    0    0  0.00000000000E+00  0.00000000000E+00  0.45593999997E+02  0.45594000000E+02  0.51100000000E-03 0. -1.
         11   -1    0    0    0    0 -0.00000000000E+00 -0.00000000000E+00 -0.45593999997E+02  0.45594000000E+02  0.51100000000E-03 0.  1.
         23    2    1    2    0    0  0.17763568394E-14  0.00000000000E+00  0.00000000000E+00  0.91188000000E+02  0.91188000000E+02 0.  0.
    9900012    2    3    3    0    0 -0.15650151690E+02  0.96469128747E+01 -0.39314544503E+02  0.47787267455E+02  0.19999983636E+02 0.  0.
         12    1    3    3    0    0  0.15650151690E+02 -0.96469128747E+01  0.39314544503E+02  0.43400732545E+02  0.00000000000E+00 0. -1.
         11    1    4    4    0    0 -0.11490233247E+02  0.28394600384E+01 -0.93079373534E+01  0.15057413171E+02  0.51100000000E-03 0.  1.
        -11    1    4    4    0    0 -0.45768070816E+01  0.87120223198E+01 -0.28804910497E+02  0.30439601918E+02  0.51100000000E-03 0. -1.
         12    1    4    4    0    0  0.41688863779E+00 -0.19045694836E+01 -0.12016966526E+01  0.22902523658E+01  0.00000000000E+00 0. -1.
</event>
<event>
 8    1  0.6469014E-010  0.9118800E+02  0.7816164E-02  0.1184000E+00
        -11   -1    0    0    0    0  0.00000000000E+00  0.00000000000E+00  0.45593999997E+02  0.45594000000E+02  0.51100000000E-03 0. -1.
         11   -1    0    0    0    0 -0.00000000000E+00 -0.00000000000E+00 -0.45593999997E+02  0.45594000000E+02  0.51100000000E-03 0.  1.
         23    2    1    2    0    0  0.33306690739E-15 -0.88817841970E-15 -0.71054273576E-14  0.91188000000E+02  0.91188000000E+02 0.  0.
    9900012    2    3    3    0    0 -0.62512302681E+00 -0.45271442742E+01 -0.43159439757E+02  0.47787273575E+02  0.20000011539E+02 0.  0.
         12    1    3    3    0    0  0.62512302681E+00  0.45271442742E+01  0.43159439757E+02  0.43400726425E+02  0.00000000000E+00 0. -1.
         11    1    4    4    0    0  0.21078170745E+01  0.46470661850E+01 -0.17925991862E+02  0.18638114213E+02  0.51100000000E-03 0. -1.
        -11    1    4    4    0    0 -0.69808605732E+01 -0.49294120733E+01 -0.15889729244E+02  0.18042034626E+02  0.51100000000E-03 0.  1.
        -12    1    4    4    0    0  0.42479204719E+01 -0.42447983859E+01 -0.93437186513E+01  0.11107124736E+02  0.00000000000E+00 0.  1.
</event>
<event>
 8    1  0.6469014E-010  0.9118800E+02  0.7816164E-02  0.1184000E+00
        -11   -1    0    0    0    0  0.00000000000E+00  0.00000000000E+00  0.45593999997E+02  0.45594000000E+02  0.51100000000E-03 0. -1.
         11   -1    0    0    0    0 -0.00000000000E+00 -0.00000000000E+00 -0.45593999997E+02  0.45594000000E+02  0.51100000000E-03 0.  1.
         23    2    1    2    0    0 -0.17763568394E-14 -0.17763568394E-14  0.00000000000E+00  0.91188000000E+02  0.91188000000E+02 0.  0.
    9900012    2    3    3    0    0 -0.10519457377E+02 -0.12714574990E+02 -0.40141050265E+02  0.47787270547E+02  0.19999997732E+02 0.  0.
         12    1    3    3    0    0  0.10519457377E+02  0.12714574990E+02  0.40141050265E+02  0.43400729453E+02  0.00000000000E+00 0. -1.
         11    1    4    4    0    0  0.22255652668E+01 -0.75698092803E+01 -0.40196829633E+01  0.88551117827E+01  0.51100000000E-03 0. -1.
        -11    1    4    4    0    0 -0.12296927852E+02 -0.43534049492E+01 -0.35525834187E+02  0.37845098285E+02  0.51100000000E-03 0.  1.
        -12    1    4    4    0    0 -0.44809479175E+00 -0.79136075995E+00 -0.59553311478E+00  0.10870604793E+01  0.00000000000E+00 0.  1.
</event>
<event>
 8    1  0.6469014E-010  0.9118800E+02  0.7816164E-02  0.1184000E+00
        -11   -1    0    0    0    0  0.00000000000E+00  0.00000000000E+00  0.45593999997E+02  0.45594000000E+02  0.51100000000E-03 0. -1.
         11   -1    0    0    0    0 -0.00000000000E+00 -0.00000000000E+00 -0.45593999997E+02  0.45594000000E+02  0.51100000000E-03 0.  1.
         23    2    1    2    0    0 -0.88817841970E-15 -0.35527136788E-14 -0.35527136788E-14  0.91188000000E+02  0.91188000000E+02 0.  0.
    9900012    2    3    3    0    0 -0.39171466591E+01 -0.30919473880E+02  0.30203716863E+02  0.47787280936E+02  0.20000045098E+02 0.  0.
        -12    1    3    3    0    0  0.39171466591E+01  0.30919473880E+02 -0.30203716863E+02  0.43400719064E+02  0.00000000000E+00 0.  1.
         11    1    4    4    0    0  0.76164603769E+01 -0.87679332628E+01  0.12630442200E+02  0.17158531196E+02  0.51100000000E-03 0. -1.
        -11    1    4    4    0    0 -0.72071364039E+01 -0.12288640610E+02  0.11129632321E+02  0.18078224997E+02  0.51100000000E-03 0.  1.
         12    1    4    4    0    0 -0.43264706321E+01 -0.98629000064E+01  0.64436423422E+01  0.12550524742E+02  0.00000000000E+00 0. -1.
</event>
<event>
 8    1  0.6469014E-010  0.9118800E+02  0.7816164E-02  0.1184000E+00
        -11   -1    0    0    0    0  0.00000000000E+00  0.00000000000E+00  0.45593999997E+02  0.45594000000E+02  0.51100000000E-03 0. -1.
         11   -1    0    0    0    0 -0.00000000000E+00 -0.00000000000E+00 -0.45593999997E+02  0.45594000000E+02  0.51100000000E-03 0.  1.
         23    2    1    2    0    0  0.00000000000E+00  0.00000000000E+00  0.71054273576E-14  0.91188000000E+02  0.91188000000E+02 0.  0.
    9900012    2    3    3    0    0  0.83492268252E+01 -0.63588086719E+01  0.42112696175E+02  0.47787271717E+02  0.20000003068E+02 0.  0.
        -12    1    3    3    0    0 -0.83492268252E+01  0.63588086719E+01 -0.42112696175E+02  0.43400728283E+02  0.00000000000E+00 0.  1.
         11    1    4    4    0    0  0.93248987987E+00  0.33409384768E+01  0.72506154937E+00  0.35436029396E+01  0.51100000000E-03 0. -1.
        -11    1    4    4    0    0  0.32841542326E+00 -0.20710093564E+01  0.64882171991E+00  0.21949729679E+01  0.51100000000E-03 0.  1.
         12    1    4    4    0    0  0.70883215221E+01 -0.76287377923E+01  0.40738812906E+02  0.42048695810E+02  0.00000000000E+00 0. -1.
</event>
<event>
 8    1  0.6469014E-010  0.9118800E+02  0.7816164E-02  0.1184000E+00
        -11   -1    0    0    0    0  0.00000000000E+00  0.00000000000E+00  0.45593999997E+02  0.45594000000E+02  0.51100000000E-03 0. -1.
         11   -1    0    0    0    0 -0.00000000000E+00 -0.00000000000E+00 -0.45593999997E+02  0.45594000000E+02  0.51100000000E-03 0.  1.
         23    2    1    2    0    0  0.44408920985E-15 -0.88817841970E-15  0.00000000000E+00  0.91188000000E+02  0.91188000000E+02 0.  0.
    9900012    2    3    3    0    0  0.20270121684E+01  0.51788013209E+01 -0.43042934043E+02  0.47787274977E+02  0.20000017930E+02 0.  0.
         12    1    3    3    0    0 -0.20270121684E+01 -0.51788013209E+01  0.43042934043E+02  0.43400725023E+02  0.00000000000E+00 0. -1.
         11    1    4    4    0    0  0.75514248218E+01  0.34167629097E+01 -0.97436818366E+01  0.12792092152E+02  0.51100000000E-03 0. -1.
        -11    1    4    4    0    0 -0.45233619794E+01 -0.32371877634E+01 -0.14968480851E+02  0.15968581887E+02  0.51100000000E-03 0.  1.
         12    1    4    4    0    0 -0.10010506741E+01  0.49992261746E+01 -0.18330771356E+02  0.19026600939E+02  0.00000000000E+00 0. -1.
</event>
<event>
 8    1  0.6469014E-010  0.9118800E+02  0.7816164E-02  0.1184000E+00
        -11   -1    0    0    0    0  0.00000000000E+00  0.00000000000E+00  0.45593999997E+02  0.45594000000E+02  0.51100000000E-03 0.  1.
         11   -1    0    0    0    0 -0.00000000000E+00 -0.00000000000E+00 -0.45593999997E+02  0.45594000000E+02  0.51100000000E-03 0. -1.
         23    2    1    2    0    0  0.00000000000E+00  0.71054273576E-14 -0.35527136788E-14  0.91188000000E+02  0.91188000000E+02 0.  0.
    9900012    2    3    3    0    0  0.15804667546E+02  0.38195566946E+02 -0.13226277961E+02  0.47787270983E+02  0.19999999718E+02 0.  0.
         12    1    3    3    0    0 -0.15804667546E+02 -0.38195566946E+02  0.13226277961E+02  0.43400729017E+02  0.00000000000E+00 0. -1.
         11    1    4    4    0    0  0.67645503000E+01  0.69974144744E+01 -0.90896910079E+01  0.13317110534E+02  0.51100000000E-03 0. -1.
        -11    1    4    4    0    0 -0.55810348067E+00  0.12972345331E+02  0.16128681062E+01  0.13084134158E+02  0.51100000000E-03 0.  1.
        -12    1    4    4    0    0  0.95982207265E+01  0.18225807140E+02 -0.57494550593E+01  0.21386026291E+02  0.00000000000E+00 0.  1.
</event>
<event>
 8    1  0.6469014E-010  0.9118800E+02  0.7816164E-02  0.1184000E+00
        -11   -1    0    0    0    0  0.00000000000E+00  0.00000000000E+00  0.45593999997E+02  0.45594000000E+02  0.51100000000E-03 0. -1.
         11   -1    0    0    0    0 -0.00000000000E+00 -0.00000000000E+00 -0.45593999997E+02  0.45594000000E+02  0.51100000000E-03 0.  1.
         23    2    1    2    0    0  0.00000000000E+00  0.00000000000E+00  0.00000000000E+00  0.91188000000E+02  0.91188000000E+02 0.  0.
    9900012    2    3    3    0    0  0.31064218776E+02 -0.21421381213E+02 -0.21442071738E+02  0.47787266116E+02  0.19999977530E+02 0.  0.
         12    1    3    3    0    0 -0.31064218776E+02  0.21421381213E+02  0.21442071738E+02  0.43400733884E+02  0.00000000000E+00 0. -1.
         11    1    4    4    0    0  0.10415019815E+02 -0.16937199555E+02 -0.61041625113E+01  0.20799090527E+02  0.51100000000E-03 0. -1.
        -11    1    4    4    0    0  0.16183677382E+02 -0.58794177140E+01 -0.13791123223E+02  0.22060690068E+02  0.51100000000E-03 0.  1.
        -12    1    4    4    0    0  0.44655215794E+01  0.13952360558E+01 -0.15467860034E+01  0.49274855218E+01  0.00000000000E+00 0.  1.
</event>
<event>
 8    1  0.6469014E-010  0.9118800E+02  0.7816164E-02  0.1184000E+00
        -11   -1    0    0    0    0  0.00000000000E+00  0.00000000000E+00  0.45593999997E+02  0.45594000000E+02  0.51100000000E-03 0. -1.
         11   -1    0    0    0    0 -0.00000000000E+00 -0.00000000000E+00 -0.45593999997E+02  0.45594000000E+02  0.51100000000E-03 0.  1.
         23    2    1    2    0    0  0.17763568394E-14  0.88817841970E-15 -0.71054273576E-14  0.91188000000E+02  0.91188000000E+02 0.  0.
    9900012    2    3    3    0    0 -0.42613852223E+01 -0.71607643075E+01  0.42593277783E+02  0.47787271184E+02  0.20000000637E+02 0.  0.
        -12    1    3    3    0    0  0.42613852223E+01  0.71607643075E+01 -0.42593277783E+02  0.43400728816E+02  0.00000000000E+00 0.  1.
         11    1    4    4    0    0 -0.46359261292E+01  0.16034967856E+01  0.43851836928E+01  0.65797301842E+01  0.51100000000E-03 0. -1.
        -11    1    4    4    0    0  0.32088568556E+01 -0.11205197405E+02  0.30112893429E+02  0.32289929732E+02  0.51100000000E-03 0.  1.
        -12    1    4    4    0    0 -0.28343159488E+01  0.24409363120E+01  0.80952006611E+01  0.89176112676E+01  0.00000000000E+00 0.  1.
</event>
<event>
 8    1  0.6469014E-010  0.9118800E+02  0.7816164E-02  0.1184000E+00
        -11   -1    0    0    0    0  0.00000000000E+00  0.00000000000E+00  0.45593999997E+02  0.45594000000E+02  0.51100000000E-03 0. -1.
         11   -1    0    0    0    0 -0.00000000000E+00 -0.00000000000E+00 -0.45593999997E+02  0.45594000000E+02  0.51100000000E-03 0.  1.
         23    2    1    2    0    0  0.00000000000E+00  0.35527136788E-14 -0.35527136788E-14  0.91188000000E+02  0.91188000000E+02 0.  0.
    9900012    2    3    3    0    0 -0.14940678107E+02  0.29729126725E+02 -0.27867156606E+02  0.47787271257E+02  0.20000000970E+02 0.  0.
         12    1    3    3    0    0  0.14940678107E+02 -0.29729126725E+02  0.27867156606E+02  0.43400728743E+02  0.00000000000E+00 0. -1.
         11    1    4    4    0    0  0.24287371997E+01  0.12934394925E+02 -0.10460882294E+02  0.16811525662E+02  0.51100000000E-03 0. -1.
        -11    1    4    4    0    0 -0.94829170679E+01  0.45364812688E+01 -0.10458400633E+02  0.14828469998E+02  0.51100000000E-03 0.  1.
         12    1    4    4    0    0 -0.78864982389E+01  0.12258250531E+02 -0.69478736792E+01  0.16147275597E+02  0.00000000000E+00 0. -1.
</event>
<event>
 8    1  0.6469014E-010  0.9118800E+02  0.7816164E-02  0.1184000E+00
        -11   -1    0    0    0    0  0.00000000000E+00  0.00000000000E+00  0.45593999997E+02  0.45594000000E+02  0.51100000000E-03 0. -1.
         11   -1    0    0    0    0 -0.00000000000E+00 -0.00000000000E+00 -0.45593999997E+02  0.45594000000E+02  0.51100000000E-03 0.  1.
         23    2    1    2    0    0 -0.13877787808E-14  0.00000000000E+00  0.00000000000E+00  0.91188000000E+02  0.91188000000E+02 0.  0.
    9900012    2    3    3    0    0 -0.13004430620E+00 -0.25419688062E+02 -0.35177347120E+02  0.47787271860E+02  0.20000003719E+02 0.  0.
         12    1    3    3    0    0  0.13004430620E+00  0.25419688062E+02  0.35177347120E+02  0.43400728140E+02  0.00000000000E+00 0. -1.
         11    1    4    4    0    0 -0.17648877923E+01 -0.15873225271E+01 -0.13247760180E+01  0.27183549223E+01  0.51100000000E-03 0. -1.
        -11    1    4    4    0    0  0.88083537553E+01 -0.10177128544E+02 -0.10449041730E+02  0.17039469317E+02  0.51100000000E-03 0.  1.
        -12    1    4    4    0    0 -0.71735102692E+01 -0.13655236991E+02 -0.23403529372E+02  0.28029447621E+02  0.00000000000E+00 0.  1.
</event>
<event>
 8    1  0.6469014E-010  0.9118800E+02  0.7816164E-02  0.1184000E+00
        -11   -1    0    0    0    0  0.00000000000E+00  0.00000000000E+00  0.45593999997E+02  0.45594000000E+02  0.51100000000E-03 0. -1.
         11   -1    0    0    0    0 -0.00000000000E+00 -0.00000000000E+00 -0.45593999997E+02  0.45594000000E+02  0.51100000000E-03 0.  1.
         23    2    1    2    0    0  0.00000000000E+00  0.88817841970E-15  0.00000000000E+00  0.91188000000E+02  0.91188000000E+02 0.  0.
    9900012    2    3    3    0    0 -0.37215891493E+02 -0.61238486789E+01  0.21473218747E+02  0.47787271600E+02  0.20000002534E+02 0.  0.
        -12    1    3    3    0    0  0.37215891493E+02  0.61238486789E+01 -0.21473218747E+02  0.43400728400E+02  0.00000000000E+00 0.  1.
         11    1    4    4    0    0 -0.75514086630E+01  0.62685588112E+00  0.44053592994E+01  0.87649250943E+01  0.51100000000E-03 0.  1.
        -11    1    4    4    0    0 -0.24194000667E+02  0.18482616863E+01  0.15280924080E+02  0.28675292161E+02  0.51100000000E-03 0. -1.
        -12    1    4    4    0    0 -0.54704821639E+01 -0.85989662463E+01  0.17869353670E+01  0.10347054345E+02  0.00000000000E+00 0.  1.
</event>
<event>
 8    1  0.6469014E-010  0.9118800E+02  0.7816164E-02  0.1184000E+00
        -11   -1    0    0    0    0  0.00000000000E+00  0.00000000000E+00  0.45593999997E+02  0.45594000000E+02  0.51100000000E-03 0. -1.
         11   -1    0    0    0    0 -0.00000000000E+00 -0.00000000000E+00 -0.45593999997E+02  0.45594000000E+02  0.51100000000E-03 0.  1.
         23    2    1    2    0    0  0.49960036108E-15  0.00000000000E+00  0.00000000000E+00  0.91188000000E+02  0.91188000000E+02 0.  0.
    9900012    2    3    3    0    0  0.74813379430E-01  0.38729613597E+02  0.19586599143E+02  0.47787269218E+02  0.19999991672E+02 0.  0.
        -12    1    3    3    0    0 -0.74813379430E-01 -0.38729613597E+02 -0.19586599143E+02  0.43400730782E+02  0.00000000000E+00 0.  1.
         11    1    4    4    0    0 -0.70394315129E+01  0.11486713938E+02  0.11249990496E+02  0.17551651761E+02  0.51100000000E-03 0. -1.
        -11    1    4    4    0    0  0.85708029829E+01  0.21770936002E+02  0.69060846615E+01  0.24395211083E+02  0.51100000000E-03 0.  1.
         12    1    4    4    0    0 -0.14565580906E+01  0.54719636577E+01  0.14305239851E+01  0.58404063741E+01  0.00000000000E+00 0. -1.
</event>
<event>
 8    1  0.6469014E-010  0.9118800E+02  0.7816164E-02  0.1184000E+00
        -11   -1    0    0    0    0  0.00000000000E+00  0.00000000000E+00  0.45593999997E+02  0.45594000000E+02  0.51100000000E-03 0.  1.
         11   -1    0    0    0    0 -0.00000000000E+00 -0.00000000000E+00 -0.45593999997E+02  0.45594000000E+02  0.51100000000E-03 0. -1.
         23    2    1    2    0    0  0.00000000000E+00  0.35527136788E-14  0.00000000000E+00  0.91188000000E+02  0.91188000000E+02 0.  0.
    9900012    2    3    3    0    0  0.37925245216E+02 -0.19396760657E+02  0.83105226266E+01  0.47787270340E+02  0.19999996788E+02 0.  0.
         12    1    3    3    0    0 -0.37925245216E+02  0.19396760657E+02 -0.83105226266E+01  0.43400729660E+02  0.00000000000E+00 0. -1.
         11    1    4    4    0    0  0.45105203493E+01 -0.99931029967E+01  0.52960704532E+01  0.12176011820E+02  0.51100000000E-03 0. -1.
        -11    1    4    4    0    0  0.32944251751E+02 -0.10091389558E+02  0.35233890582E+01  0.34634868809E+02  0.51100000000E-03 0.  1.
         12    1    4    4    0    0  0.47047311586E+00  0.68773189817E+00 -0.50893688483E+00  0.97638971177E+00  0.00000000000E+00 0. -1.
</event>
<event>
 8    1  0.6469014E-010  0.9118800E+02  0.7816164E-02  0.1184000E+00
        -11   -1    0    0    0    0  0.00000000000E+00  0.00000000000E+00  0.45593999997E+02  0.45594000000E+02  0.51100000000E-03 0. -1.
         11   -1    0    0    0    0 -0.00000000000E+00 -0.00000000000E+00 -0.45593999997E+02  0.45594000000E+02  0.51100000000E-03 0.  1.
         23    2    1    2    0    0  0.00000000000E+00  0.00000000000E+00  0.00000000000E+00  0.91188000000E+02  0.91188000000E+02 0.  0.
    9900012    2    3    3    0    0 -0.25308372164E+02  0.13839180512E+02  0.32428184314E+02  0.47787265481E+02  0.19999974636E+02 0.  0.
        -12    1    3    3    0    0  0.25308372164E+02 -0.13839180512E+02 -0.32428184314E+02  0.43400734519E+02  0.00000000000E+00 0.  1.
         11    1    4    4    0    0 -0.17151215424E+02  0.16583264037E+02  0.19249786641E+02  0.30654903729E+02  0.51100000000E-03 0. -1.
        -11    1    4    4    0    0 -0.12971169932E+00 -0.21278935538E+01  0.59210680519E+01  0.62931552689E+01  0.51100000000E-03 0.  1.
        -12    1    4    4    0    0 -0.80274450402E+01 -0.61618997179E+00  0.72573296216E+01  0.10839206484E+02  0.00000000000E+00 0.  1.
</event>
<event>
 8    1  0.6469014E-010  0.9118800E+02  0.7816164E-02  0.1184000E+00
        -11   -1    0    0    0    0  0.00000000000E+00  0.00000000000E+00  0.45593999997E+02  0.45594000000E+02  0.51100000000E-03 0. -1.
         11   -1    0    0    0    0 -0.00000000000E+00 -0.00000000000E+00 -0.45593999997E+02  0.45594000000E+02  0.51100000000E-03 0.  1.
         23    2    1    2    0    0  0.00000000000E+00  0.00000000000E+00  0.00000000000E+00  0.91188000000E+02  0.91188000000E+02 0.  0.
    9900012    2    3    3    0    0  0.34426397253E+02 -0.43749259960E+01 -0.26063496383E+02  0.47787278243E+02  0.20000032823E+02 0.  0.
         12    1    3    3    0    0 -0.34426397253E+02  0.43749259960E+01  0.26063496383E+02  0.43400721757E+02  0.00000000000E+00 0. -1.
         11    1    4    4    0    0  0.76185820010E+01 -0.77674347575E+01 -0.12165748595E+02  0.16321190936E+02  0.51100000000E-03 0. -1.
        -11    1    4    4    0    0  0.13130872431E+02  0.49048207951E+01 -0.42031442563E+01  0.14633642736E+02  0.51100000000E-03 0.  1.
         12    1    4    4    0    0  0.13676942821E+02 -0.15123120336E+01 -0.96946035316E+01  0.16832444571E+02  0.00000000000E+00 0. -1.
</event>
<event>
 8    1  0.6469014E-010  0.9118800E+02  0.7816164E-02  0.1184000E+00
        -11   -1    0    0    0    0  0.00000000000E+00  0.00000000000E+00  0.45593999997E+02  0.45594000000E+02  0.51100000000E-03 0. -1.
         11   -1    0    0    0    0 -0.00000000000E+00 -0.00000000000E+00 -0.45593999997E+02  0.45594000000E+02  0.51100000000E-03 0.  1.
         23    2    1    2    0    0  0.00000000000E+00  0.17763568394E-14  0.71054273576E-14  0.91188000000E+02  0.91188000000E+02 0.  0.
    9900012    2    3    3    0    0 -0.14705420045E+02  0.11756021678E+02  0.39104600394E+02  0.47787271937E+02  0.20000004071E+02 0.  0.
        -12    1    3    3    0    0  0.14705420045E+02 -0.11756021678E+02 -0.39104600394E+02  0.43400728063E+02  0.00000000000E+00 0.  1.
         11    1    4    4    0    0 -0.33989245468E+01  0.99431144984E+01  0.17363554306E+02  0.20295596379E+02  0.51100000000E-03 0. -1.
        -11    1    4    4    0    0 -0.98476169053E+01 -0.39392000388E+01  0.16260566968E+02  0.19413884053E+02  0.51100000000E-03 0.  1.
        -12    1    4    4    0    0 -0.14588785932E+01  0.57521072187E+01  0.54804791205E+01  0.80777915048E+01  0.00000000000E+00 0.  1.
</event>
<event>
 8    1  0.6469014E-010  0.9118800E+02  0.7816164E-02  0.1184000E+00
        -11   -1    0    0    0    0  0.00000000000E+00  0.00000000000E+00  0.45593999997E+02  0.45594000000E+02  0.51100000000E-03 0.  1.
         11   -1    0    0    0    0 -0.00000000000E+00 -0.00000000000E+00 -0.45593999997E+02  0.45594000000E+02  0.51100000000E-03 0. -1.
         23    2    1    2    0    0  0.00000000000E+00  0.00000000000E+00  0.00000000000E+00  0.91188000000E+02  0.91188000000E+02 0.  0.
    9900012    2    3    3    0    0 -0.30848824162E+02  0.20005331000E+02  0.23059920661E+02  0.47787272339E+02  0.20000005904E+02 0.  0.
        -12    1    3    3    0    0  0.30848824162E+02 -0.20005331000E+02 -0.23059920661E+02  0.43400727661E+02  0.00000000000E+00 0.  1.
         11    1    4    4    0    0 -0.85642999557E+01 -0.57100633674E+00  0.10588356892E+02  0.13630355237E+02  0.51100000000E-03 0. -1.
        -11    1    4    4    0    0 -0.23018957070E+02  0.20783892384E+02  0.12359113188E+02  0.33385479572E+02  0.51100000000E-03 0.  1.
        -12    1    4    4    0    0  0.73443286364E+00 -0.20755504765E+00  0.11245058112E+00  0.77143752967E+00  0.00000000000E+00 0.  1.
</event>
<event>
 8    1  0.6469014E-010  0.9118800E+02  0.7816164E-02  0.1184000E+00
        -11   -1    0    0    0    0  0.00000000000E+00  0.00000000000E+00  0.45593999997E+02  0.45594000000E+02  0.51100000000E-03 0. -1.
         11   -1    0    0    0    0 -0.00000000000E+00 -0.00000000000E+00 -0.45593999997E+02  0.45594000000E+02  0.51100000000E-03 0.  1.
         23    2    1    2    0    0  0.00000000000E+00  0.17763568394E-14  0.00000000000E+00  0.91188000000E+02  0.91188000000E+02 0.  0.
    9900012    2    3    3    0    0  0.23544702811E+02  0.13549286210E+02 -0.33847999289E+02  0.47787271399E+02  0.20000001616E+02 0.  0.
         12    1    3    3    0    0 -0.23544702811E+02 -0.13549286210E+02  0.33847999289E+02  0.43400728601E+02  0.00000000000E+00 0. -1.
         11    1    4    4    0    0  0.77863447364E+01  0.19590209735E+01 -0.28993612021E+01  0.85364643249E+01  0.51100000000E-03 0. -1.
        -11    1    4    4    0    0  0.64208802550E+01  0.56087874922E+01 -0.25515754243E+02  0.26902414673E+02  0.51100000000E-03 0.  1.
        -12    1    4    4    0    0  0.93374778192E+01  0.59814777440E+01 -0.54328838434E+01  0.12348392401E+02  0.00000000000E+00 0.  1.
</event>
<event>
 8    1  0.6469014E-010  0.9118800E+02  0.7816164E-02  0.1184000E+00
        -11   -1    0    0    0    0  0.00000000000E+00  0.00000000000E+00  0.45593999997E+02  0.45594000000E+02  0.51100000000E-03 0. -1.
         11   -1    0    0    0    0 -0.00000000000E+00 -0.00000000000E+00 -0.45593999997E+02  0.45594000000E+02  0.51100000000E-03 0.  1.
         23    2    1    2    0    0  0.00000000000E+00  0.88817841970E-15  0.00000000000E+00  0.91188000000E+02  0.91188000000E+02 0.  0.
    9900012    2    3    3    0    0  0.23707525073E+02  0.49347798341E+01 -0.36017003361E+02  0.47787270419E+02  0.19999997146E+02 0.  0.
         12    1    3    3    0    0 -0.23707525073E+02 -0.49347798341E+01  0.36017003361E+02  0.43400729581E+02  0.00000000000E+00 0. -1.
         11    1    4    4    0    0  0.18283702309E+01 -0.15422501626E+01 -0.58750550699E+00  0.24630542518E+01  0.51100000000E-03 0. -1.
        -11    1    4    4    0    0  0.49086499741E+01  0.31553268908E+01  0.71304254126E-01  0.58357533287E+01  0.51100000000E-03 0.  1.
        -12    1    4    4    0    0  0.16970504868E+02  0.33217031060E+01 -0.35500802108E+02  0.39488462838E+02  0.00000000000E+00 0.  1.
</event>
<event>
 8    1  0.7771810E-010  0.9118800E+02  0.7816164E-02  0.1184000E+00
        -11   -1    0    0    0    0  0.00000000000E+00  0.00000000000E+00  0.45593999997E+02  0.45594000000E+02  0.51100000000E-03 0. -1.
         11   -1    0    0    0    0 -0.00000000000E+00 -0.00000000000E+00 -0.45593999997E+02  0.45594000000E+02  0.51100000000E-03 0.  1.
         23    2    1    2    0    0  0.00000000000E+00 -0.35527136788E-14  0.71054273576E-14  0.91188000000E+02  0.91188000000E+02 0.  0.
    9900012    2    3    3    0    0 -0.11489424887E+02  0.15244556334E+02 -0.38977169764E+02  0.47787272531E+02  0.20000006777E+02 0.  0.
         12    1    3    3    0    0  0.11489424887E+02 -0.15244556334E+02  0.38977169764E+02  0.43400727469E+02  0.00000000000E+00 0. -1.
         11    1    4    4    0    0  0.20543782262E+01 -0.32133733669E+01 -0.28522110985E+01  0.47624937483E+01  0.51100000000E-03 0. -1.
        -11    1    4    4    0    0 -0.73553393712E+01  0.91190577528E+01 -0.22652541679E+02  0.25502860160E+02  0.51100000000E-03 0.  1.
         12    1    4    4    0    0 -0.61884637416E+01  0.93388719485E+01 -0.13472416986E+02  0.17521918622E+02  0.00000000000E+00 0. -1.
</event>
<event>
 8    1  0.6469014E-010  0.9118800E+02  0.7816164E-02  0.1184000E+00
        -11   -1    0    0    0    0  0.00000000000E+00  0.00000000000E+00  0.45593999997E+02  0.45594000000E+02  0.51100000000E-03 0. -1.
         11   -1    0    0    0    0 -0.00000000000E+00 -0.00000000000E+00 -0.45593999997E+02  0.45594000000E+02  0.51100000000E-03 0.  1.
         23    2    1    2    0    0  0.00000000000E+00  0.00000000000E+00  0.71054273576E-14  0.91188000000E+02  0.91188000000E+02 0.  0.
    9900012    2    3    3    0    0  0.23974592330E+01 -0.77747771378E+01  0.42631311150E+02  0.47787266588E+02  0.19999979680E+02 0.  0.
        -12    1    3    3    0    0 -0.23974592330E+01  0.77747771378E+01 -0.42631311150E+02  0.43400733412E+02  0.00000000000E+00 0.  1.
         11    1    4    4    0    0  0.35987785026E+01 -0.90869147731E+01  0.11971249559E+02  0.15454256471E+02  0.51100000000E-03 0. -1.
        -11    1    4    4    0    0 -0.21861047268E+01  0.46827544272E+01  0.89014518918E+01  0.10292865925E+02  0.51100000000E-03 0.  1.
         12    1    4    4    0    0  0.98478545725E+00 -0.33706167920E+01  0.21758609699E+02  0.22040144192E+02  0.00000000000E+00 0. -1.
</event>
<event>
 8    1  0.6469014E-010  0.9118800E+02  0.7816164E-02  0.1184000E+00
        -11   -1    0    0    0    0  0.00000000000E+00  0.00000000000E+00  0.45593999997E+02  0.45594000000E+02  0.51100000000E-03 0. -1.
         11   -1    0    0    0    0 -0.00000000000E+00 -0.00000000000E+00 -0.45593999997E+02  0.45594000000E+02  0.51100000000E-03 0.  1.
         23    2    1    2    0    0  0.00000000000E+00 -0.35527136788E-14  0.71054273576E-14  0.91188000000E+02  0.91188000000E+02 0.  0.
    9900012    2    3    3    0    0 -0.84638945846E+01  0.24240662402E+02 -0.34991087152E+02  0.47787269531E+02  0.19999993099E+02 0.  0.
         12    1    3    3    0    0  0.84638945846E+01 -0.24240662402E+02  0.34991087152E+02  0.43400730469E+02  0.00000000000E+00 0. -1.
         11    1    4    4    0    0  0.64983673197E+00  0.12922716864E+01 -0.63781295667E+01  0.65400910483E+01  0.51100000000E-03 0. -1.
        -11    1    4    4    0    0  0.11556284004E+01  0.12632100196E+02 -0.21693586558E+02  0.25130004584E+02  0.51100000000E-03 0.  1.
        -12    1    4    4    0    0 -0.10269359717E+02  0.10316290519E+02 -0.69193710266E+01  0.16117173899E+02  0.00000000000E+00 0.  1.
</event>
<event>
 8    1  0.6469014E-010  0.9118800E+02  0.7816164E-02  0.1184000E+00
        -11   -1    0    0    0    0  0.00000000000E+00  0.00000000000E+00  0.45593999997E+02  0.45594000000E+02  0.51100000000E-03 0. -1.
         11   -1    0    0    0    0 -0.00000000000E+00 -0.00000000000E+00 -0.45593999997E+02  0.45594000000E+02  0.51100000000E-03 0.  1.
         23    2    1    2    0    0  0.00000000000E+00 -0.35527136788E-14  0.00000000000E+00  0.91188000000E+02  0.91188000000E+02 0.  0.
    9900012    2    3    3    0    0  0.20468721127E+02  0.28131762169E+02 -0.25947232437E+02  0.47787268918E+02  0.19999990304E+02 0.  0.
         12    1    3    3    0    0 -0.20468721127E+02 -0.28131762169E+02  0.25947232437E+02  0.43400731082E+02  0.00000000000E+00 0. -1.
         11    1    4    4    0    0  0.80739840122E+01  0.98056241707E+01 -0.15265435453E+01  0.12793350564E+02  0.51100000000E-03 0. -1.
        -11    1    4    4    0    0  0.14712285667E+02  0.16004088882E+02 -0.20482801750E+02  0.29868501440E+02  0.51100000000E-03 0.  1.
        -12    1    4    4    0    0 -0.23175485523E+01  0.23220491165E+01 -0.39378871422E+01  0.51254169134E+01  0.00000000000E+00 0.  1.
</event>
<event>
 8    1  0.6469014E-010  0.9118800E+02  0.7816164E-02  0.1184000E+00
        -11   -1    0    0    0    0  0.00000000000E+00  0.00000000000E+00  0.45593999997E+02  0.45594000000E+02  0.51100000000E-03 0. -1.
         11   -1    0    0    0    0 -0.00000000000E+00 -0.00000000000E+00 -0.45593999997E+02  0.45594000000E+02  0.51100000000E-03 0.  1.
         23    2    1    2    0    0  0.17763568394E-14 -0.88817841970E-15  0.00000000000E+00  0.91188000000E+02  0.91188000000E+02 0.  0.
    9900012    2    3    3    0    0 -0.92076991136E+01 -0.41869663095E+01 -0.42205575710E+02  0.47787273844E+02  0.20000012763E+02 0.  0.
         12    1    3    3    0    0  0.92076991136E+01  0.41869663095E+01  0.42205575710E+02  0.43400726156E+02  0.00000000000E+00 0. -1.
         11    1    4    4    0    0  0.72116665570E-01 -0.28803777893E+01  0.45771490688E+00  0.29174098478E+01  0.51100000000E-03 0.  1.
        -11    1    4    4    0    0 -0.10658788984E+02  0.93652483471E+00 -0.28054685041E+02  0.30025859095E+02  0.51100000000E-03 0. -1.
        -12    1    4    4    0    0  0.13789732050E+01 -0.22431133549E+01 -0.14608605576E+02  0.14844004901E+02  0.00000000000E+00 0.  1.
</event>
<event>
 8    1  0.6469014E-010  0.9118800E+02  0.7816164E-02  0.1184000E+00
        -11   -1    0    0    0    0  0.00000000000E+00  0.00000000000E+00  0.45593999997E+02  0.45594000000E+02  0.51100000000E-03 0. -1.
         11   -1    0    0    0    0 -0.00000000000E+00 -0.00000000000E+00 -0.45593999997E+02  0.45594000000E+02  0.51100000000E-03 0.  1.
         23    2    1    2    0    0  0.00000000000E+00  0.00000000000E+00  0.71054273576E-14  0.91188000000E+02  0.91188000000E+02 0.  0.
    9900012    2    3    3    0    0 -0.92568648070E+01 -0.23466175083E+02  0.35316742277E+02  0.47787271848E+02  0.20000003664E+02 0.  0.
        -12    1    3    3    0    0  0.92568648070E+01  0.23466175083E+02 -0.35316742277E+02  0.43400728152E+02  0.00000000000E+00 0.  1.
         11    1    4    4    0    0 -0.12971078796E+00 -0.15640475580E+02  0.24151450836E+02  0.28773840185E+02  0.51100000000E-03 0. -1.
        -11    1    4    4    0    0 -0.35946629997E+01  0.16684970381E+01  0.11025351464E+01  0.41135226337E+01  0.51100000000E-03 0.  1.
         12    1    4    4    0    0 -0.55324910193E+01 -0.94941965412E+01  0.10062756294E+02  0.14899909029E+02  0.00000000000E+00 0. -1.
</event>
<event>
 8    1  0.6469014E-010  0.9118800E+02  0.7816164E-02  0.1184000E+00
        -11   -1    0    0    0    0  0.00000000000E+00  0.00000000000E+00  0.45593999997E+02  0.45594000000E+02  0.51100000000E-03 0. -1.
         11   -1    0    0    0    0 -0.00000000000E+00 -0.00000000000E+00 -0.45593999997E+02  0.45594000000E+02  0.51100000000E-03 0.  1.
         23    2    1    2    0    0  0.00000000000E+00  0.17763568394E-14  0.00000000000E+00  0.91188000000E+02  0.91188000000E+02 0.  0.
    9900012    2    3    3    0    0  0.12799594901E+02  0.12945014226E+02  0.39398226974E+02  0.47787270610E+02  0.19999998018E+02 0.  0.
        -12    1    3    3    0    0 -0.12799594901E+02 -0.12945014226E+02 -0.39398226974E+02  0.43400729390E+02  0.00000000000E+00 0.  1.
         11    1    4    4    0    0  0.14858139848E+02  0.13987538818E+02  0.39207295212E+02  0.44199859276E+02  0.51100000000E-03 0. -1.
        -11    1    4    4    0    0 -0.10359200143E+01 -0.16927222428E-01 -0.11958410882E+01  0.15822303803E+01  0.51100000000E-03 0.  1.
         12    1    4    4    0    0 -0.10226249326E+01 -0.10255973703E+01  0.13867728502E+01  0.20051809537E+01  0.00000000000E+00 0. -1.
</event>
<event>
 8    1  0.6469014E-010  0.9118800E+02  0.7816164E-02  0.1184000E+00
        -11   -1    0    0    0    0  0.00000000000E+00  0.00000000000E+00  0.45593999997E+02  0.45594000000E+02  0.51100000000E-03 0. -1.
         11   -1    0    0    0    0 -0.00000000000E+00 -0.00000000000E+00 -0.45593999997E+02  0.45594000000E+02  0.51100000000E-03 0.  1.
         23    2    1    2    0    0 -0.35527136788E-14  0.00000000000E+00  0.00000000000E+00  0.91188000000E+02  0.91188000000E+02 0.  0.
    9900012    2    3    3    0    0 -0.27288628060E+02 -0.28815614722E+02 -0.17567434019E+02  0.47787267158E+02  0.19999982280E+02 0.  0.
         12    1    3    3    0    0  0.27288628060E+02  0.28815614722E+02  0.17567434019E+02  0.43400732842E+02  0.00000000000E+00 0. -1.
         11    1    4    4    0    0 -0.78461008170E+01  0.35749881243E+00 -0.23101939387E+01  0.81869469112E+01  0.51100000000E-03 0. -1.
        -11    1    4    4    0    0 -0.53036201652E+01 -0.14741689244E+02 -0.29454702441E+01  0.15941191419E+02  0.51100000000E-03 0.  1.
        -12    1    4    4    0    0 -0.14138907078E+02 -0.14431424291E+02 -0.12311769836E+02  0.23659128828E+02  0.00000000000E+00 0.  1.
</event>
<event>
 8    1  0.6469014E-010  0.9118800E+02  0.7816164E-02  0.1184000E+00
        -11   -1    0    0    0    0  0.00000000000E+00  0.00000000000E+00  0.45593999997E+02  0.45594000000E+02  0.51100000000E-03 0. -1.
         11   -1    0    0    0    0 -0.00000000000E+00 -0.00000000000E+00 -0.45593999997E+02  0.45594000000E+02  0.51100000000E-03 0.  1.
         23    2    1    2    0    0  0.00000000000E+00  0.71054273576E-14  0.00000000000E+00  0.91188000000E+02  0.91188000000E+02 0.  0.
    9900012    2    3    3    0    0  0.10827989832E+02 -0.38659305727E+02  0.16487474870E+02  0.47787261404E+02  0.19999956045E+02 0.  0.
        -12    1    3    3    0    0 -0.10827989832E+02  0.38659305727E+02 -0.16487474870E+02  0.43400738596E+02  0.00000000000E+00 0.  1.
         11    1    4    4    0    0  0.10293362200E+02 -0.14978584296E+02  0.14099552264E+02  0.23002362209E+02  0.51100000000E-03 0. -1.
        -11    1    4    4    0    0 -0.99031800553E+00 -0.20456289117E+02  0.40057186633E+01  0.20868307945E+02  0.51100000000E-03 0.  1.
         12    1    4    4    0    0  0.15249456381E+01 -0.32244323137E+01 -0.16177960566E+01  0.39165912507E+01  0.00000000000E+00 0. -1.
</event>
<event>
 8    1  0.6469014E-010  0.9118800E+02  0.7816164E-02  0.1184000E+00
        -11   -1    0    0    0    0  0.00000000000E+00  0.00000000000E+00  0.45593999997E+02  0.45594000000E+02  0.51100000000E-03 0. -1.
         11   -1    0    0    0    0 -0.00000000000E+00 -0.00000000000E+00 -0.45593999997E+02  0.45594000000E+02  0.51100000000E-03 0.  1.
         23    2    1    2    0    0  0.00000000000E+00  0.00000000000E+00 -0.35527136788E-14  0.91188000000E+02  0.91188000000E+02 0.  0.
    9900012    2    3    3    0    0 -0.11738674291E+02  0.27887540705E+02 -0.31114492012E+02  0.47787274039E+02  0.20000013655E+02 0.  0.
         12    1    3    3    0    0  0.11738674291E+02 -0.27887540705E+02  0.31114492012E+02  0.43400725961E+02  0.00000000000E+00 0. -1.
         11    1    4    4    0    0  0.11104757856E+01  0.73808355990E+01 -0.95647642998E+01  0.12132378455E+02  0.51100000000E-03 0. -1.
        -11    1    4    4    0    0 -0.49291510075E+01  0.19745640392E+02 -0.16788905890E+02  0.26382839222E+02  0.51100000000E-03 0.  1.
        -12    1    4    4    0    0 -0.79199990696E+01  0.76106471414E+00 -0.47608218226E+01  0.92720563624E+01  0.00000000000E+00 0.  1.
</event>
<event>
 8    1  0.6469014E-010  0.9118800E+02  0.7816164E-02  0.1184000E+00
        -11   -1    0    0    0    0  0.00000000000E+00  0.00000000000E+00  0.45593999997E+02  0.45594000000E+02  0.51100000000E-03 0. -1.
         11   -1    0    0    0    0 -0.00000000000E+00 -0.00000000000E+00 -0.45593999997E+02  0.45594000000E+02  0.51100000000E-03 0.  1.
         23    2    1    2    0    0 -0.88817841970E-15  0.00000000000E+00  0.00000000000E+00  0.91188000000E+02  0.91188000000E+02 0.  0.
    9900012    2    3    3    0    0 -0.33398994237E+01 -0.16953610393E+02  0.39812601057E+02  0.47787273779E+02  0.20000012470E+02 0.  0.
        -12    1    3    3    0    0  0.33398994237E+01  0.16953610393E+02 -0.39812601057E+02  0.43400726221E+02  0.00000000000E+00 0.  1.
         11    1    4    4    0    0 -0.98978218941E+01 -0.15412190116E+02  0.34609029984E+02  0.39157214394E+02  0.51100000000E-03 0. -1.
        -11    1    4    4    0    0  0.49477413832E+01 -0.12641173169E+01  0.46453840166E+01  0.69034578516E+01  0.51100000000E-03 0.  1.
         12    1    4    4    0    0  0.16101810873E+01 -0.27730296040E+00  0.55818705656E+00  0.17266015336E+01  0.00000000000E+00 0. -1.
</event>
<event>
 8    1  0.6469014E-010  0.9118800E+02  0.7816164E-02  0.1184000E+00
        -11   -1    0    0    0    0  0.00000000000E+00  0.00000000000E+00  0.45593999997E+02  0.45594000000E+02  0.51100000000E-03 0.  1.
         11   -1    0    0    0    0 -0.00000000000E+00 -0.00000000000E+00 -0.45593999997E+02  0.45594000000E+02  0.51100000000E-03 0. -1.
         23    2    1    2    0    0 -0.71054273576E-14  0.35527136788E-14  0.00000000000E+00  0.91188000000E+02  0.91188000000E+02 0.  0.
    9900012    2    3    3    0    0 -0.31511001805E+02  0.25939224630E+02  0.14759292177E+02  0.47787270574E+02  0.19999997855E+02 0.  0.
        -12    1    3    3    0    0  0.31511001805E+02 -0.25939224630E+02 -0.14759292177E+02  0.43400729426E+02  0.00000000000E+00 0.  1.
         11    1    4    4    0    0 -0.17994899968E+02  0.15000078266E+02  0.69184439864E+01  0.24427108717E+02  0.51100000000E-03 0. -1.
        -11    1    4    4    0    0  0.17372875466E+01 -0.54060759394E+00 -0.12581099116E+01  0.22120726482E+01  0.51100000000E-03 0.  1.
        -12    1    4    4    0    0 -0.15253389384E+02  0.11479753958E+02  0.90989581022E+01  0.21148089209E+02  0.00000000000E+00 0.  1.
</event>
<event>
 8    1  0.6469014E-010  0.9118800E+02  0.7816164E-02  0.1184000E+00
        -11   -1    0    0    0    0  0.00000000000E+00  0.00000000000E+00  0.45593999997E+02  0.45594000000E+02  0.51100000000E-03 0. -1.
         11   -1    0    0    0    0 -0.00000000000E+00 -0.00000000000E+00 -0.45593999997E+02  0.45594000000E+02  0.51100000000E-03 0.  1.
         23    2    1    2    0    0  0.00000000000E+00  0.00000000000E+00 -0.88817841970E-15  0.91188000000E+02  0.91188000000E+02 0.  0.
    9900012    2    3    3    0    0  0.41566506971E+02  0.11900175950E+02  0.37729000703E+01  0.47787268850E+02  0.19999989994E+02 0.  0.
        -12    1    3    3    0    0 -0.41566506971E+02 -0.11900175950E+02 -0.37729000703E+01  0.43400731150E+02  0.00000000000E+00 0.  1.
         11    1    4    4    0    0  0.20706692900E+02  0.69583493487E+01  0.91618559059E+01  0.23688084777E+02  0.51100000000E-03 0. -1.
        -11    1    4    4    0    0  0.20572599418E+02  0.22302638285E+01 -0.53441629787E+01  0.21372084637E+02  0.51100000000E-03 0.  1.
        -12    1    4    4    0    0  0.28721465334E+00  0.27115627732E+01 -0.44792856889E-01  0.27270994353E+01  0.00000000000E+00 0.  1.
</event>
<event>
 8    1  0.6469014E-010  0.9118800E+02  0.7816164E-02  0.1184000E+00
        -11   -1    0    0    0    0  0.00000000000E+00  0.00000000000E+00  0.45593999997E+02  0.45594000000E+02  0.51100000000E-03 0. -1.
         11   -1    0    0    0    0 -0.00000000000E+00 -0.00000000000E+00 -0.45593999997E+02  0.45594000000E+02  0.51100000000E-03 0.  1.
         23    2    1    2    0    0  0.35527136788E-14  0.00000000000E+00  0.35527136788E-14  0.91188000000E+02  0.91188000000E+02 0.  0.
    9900012    2    3    3    0    0  0.29235354862E+02 -0.17160874418E+02  0.27100213567E+02  0.47787272356E+02  0.20000005978E+02 0.  0.
        -12    1    3    3    0    0 -0.29235354862E+02  0.17160874418E+02 -0.27100213567E+02  0.43400727644E+02  0.00000000000E+00 0.  1.
         11    1    4    4    0    0  0.24475721064E+02 -0.50039254951E+01  0.21751039621E+02  0.33124128922E+02  0.51100000000E-03 0. -1.
        -11    1    4    4    0    0 -0.34804215812E-01 -0.51919766333E+01  0.22264265703E+01  0.56493192712E+01  0.51100000000E-03 0.  1.
         12    1    4    4    0    0  0.47944380134E+01 -0.69649722901E+01  0.31227473756E+01  0.90138241628E+01  0.00000000000E+00 0. -1.
</event>
<event>
 8    1  0.6469014E-010  0.9118800E+02  0.7816164E-02  0.1184000E+00
        -11   -1    0    0    0    0  0.00000000000E+00  0.00000000000E+00  0.45593999997E+02  0.45594000000E+02  0.51100000000E-03 0. -1.
         11   -1    0    0    0    0 -0.00000000000E+00 -0.00000000000E+00 -0.45593999997E+02  0.45594000000E+02  0.51100000000E-03 0.  1.
         23    2    1    2    0    0  0.44408920985E-15  0.35527136788E-14  0.35527136788E-14  0.91188000000E+02  0.91188000000E+02 0.  0.
    9900012    2    3    3    0    0 -0.20713808190E+01 -0.30848443616E+02 -0.30458253076E+02  0.47787282581E+02  0.20000052598E+02 0.  0.
         12    1    3    3    0    0  0.20713808190E+01  0.30848443616E+02  0.30458253076E+02  0.43400717419E+02  0.00000000000E+00 0. -1.
         11    1    4    4    0    0 -0.27384732475E+01  0.14265695945E+01 -0.10700805335E+01  0.32679365270E+01  0.51100000000E-03 0. -1.
        -11    1    4    4    0    0  0.42589985452E+01 -0.19383223533E+02 -0.19974930094E+02  0.28157525737E+02  0.51100000000E-03 0.  1.
        -12    1    4    4    0    0 -0.35919061167E+01 -0.12891789678E+02 -0.94132424492E+01  0.16361820316E+02  0.00000000000E+00 0.  1.
</event>
<event>
 8    1  0.6469014E-010  0.9118800E+02  0.7816164E-02  0.1184000E+00
        -11   -1    0    0    0    0  0.00000000000E+00  0.00000000000E+00  0.45593999997E+02  0.45594000000E+02  0.51100000000E-03 0. -1.
         11   -1    0    0    0    0 -0.00000000000E+00 -0.00000000000E+00 -0.45593999997E+02  0.45594000000E+02  0.51100000000E-03 0.  1.
         23    2    1    2    0    0 -0.35527136788E-14  0.00000000000E+00  0.00000000000E+00  0.91188000000E+02  0.91188000000E+02 0.  0.
    9900012    2    3    3    0    0  0.27181310184E+02 -0.24744605953E+02  0.23076049799E+02  0.47787271649E+02  0.20000002754E+02 0.  0.
        -12    1    3    3    0    0 -0.27181310184E+02  0.24744605953E+02 -0.23076049799E+02  0.43400728351E+02  0.00000000000E+00 0.  1.
         11    1    4    4    0    0  0.16781265131E+02 -0.35722730940E+01  0.11099796441E+02  0.20434712519E+02  0.51100000000E-03 0.  1.
        -11    1    4    4    0    0  0.10962590378E+02 -0.17537949747E+02  0.87380078354E+01  0.22452413018E+02  0.51100000000E-03 0. -1.
         12    1    4    4    0    0 -0.56254532505E+00 -0.36343831124E+01  0.32382455223E+01  0.49001461114E+01  0.00000000000E+00 0. -1.
</event>
<event>
 8    1  0.6469014E-010  0.9118800E+02  0.7816164E-02  0.1184000E+00
        -11   -1    0    0    0    0  0.00000000000E+00  0.00000000000E+00  0.45593999997E+02  0.45594000000E+02  0.51100000000E-03 0. -1.
         11   -1    0    0    0    0 -0.00000000000E+00 -0.00000000000E+00 -0.45593999997E+02  0.45594000000E+02  0.51100000000E-03 0.  1.
         23    2    1    2    0    0 -0.88817841970E-15  0.00000000000E+00 -0.71054273576E-14  0.91188000000E+02  0.91188000000E+02 0.  0.
    9900012    2    3    3    0    0  0.59718253214E+01  0.10601636546E+02  0.41660121766E+02  0.47787272579E+02  0.20000006997E+02 0.  0.
        -12    1    3    3    0    0 -0.59718253214E+01 -0.10601636546E+02 -0.41660121766E+02  0.43400727421E+02  0.00000000000E+00 0.  1.
         11    1    4    4    0    0 -0.21304306051E+01 -0.79221146379E+00  0.10313946654E+02  0.10561431219E+02  0.51100000000E-03 0. -1.
        -11    1    4    4    0    0  0.84008697014E+01  0.64155365381E-01  0.10026590540E+02  0.13080949727E+02  0.51100000000E-03 0.  1.
        -12    1    4    4    0    0 -0.29861377491E+00  0.11329692645E+02  0.21319584572E+02  0.24144891633E+02  0.00000000000E+00 0.  1.
</event>
<event>
 8    1  0.6469014E-010  0.9118800E+02  0.7816164E-02  0.1184000E+00
        -11   -1    0    0    0    0  0.00000000000E+00  0.00000000000E+00  0.45593999997E+02  0.45594000000E+02  0.51100000000E-03 0. -1.
         11   -1    0    0    0    0 -0.00000000000E+00 -0.00000000000E+00 -0.45593999997E+02  0.45594000000E+02  0.51100000000E-03 0.  1.
         23    2    1    2    0    0  0.00000000000E+00 -0.88817841970E-15  0.00000000000E+00  0.91188000000E+02  0.91188000000E+02 0.  0.
    9900012    2    3    3    0    0 -0.38291767649E+02 -0.53932690377E+01 -0.19704736776E+02  0.47787268762E+02  0.19999989592E+02 0.  0.
         12    1    3    3    0    0  0.38291767649E+02  0.53932690377E+01  0.19704736776E+02  0.43400731238E+02  0.00000000000E+00 0. -1.
         11    1    4    4    0    0 -0.14049477572E+02  0.66143768494E+00 -0.14546731380E+02  0.20234443752E+02  0.51100000000E-03 0. -1.
        -11    1    4    4    0    0 -0.10831399933E+02 -0.16437958872E+01  0.28527424293E+01  0.11320752142E+02  0.51100000000E-03 0.  1.
        -12    1    4    4    0    0 -0.13410890144E+02 -0.44109108354E+01 -0.80107478252E+01  0.16232072867E+02  0.00000000000E+00 0.  1.
</event>
<event>
 8    1  0.6469014E-010  0.9118800E+02  0.7816164E-02  0.1184000E+00
        -11   -1    0    0    0    0  0.00000000000E+00  0.00000000000E+00  0.45593999997E+02  0.45594000000E+02  0.51100000000E-03 0. -1.
         11   -1    0    0    0    0 -0.00000000000E+00 -0.00000000000E+00 -0.45593999997E+02  0.45594000000E+02  0.51100000000E-03 0.  1.
         23    2    1    2    0    0  0.00000000000E+00  0.00000000000E+00  0.00000000000E+00  0.91188000000E+02  0.91188000000E+02 0.  0.
    9900012    2    3    3    0    0 -0.31696101765E+02 -0.25768015434E+01 -0.29535408996E+02  0.47787272381E+02  0.20000006093E+02 0.  0.
         12    1    3    3    0    0  0.31696101765E+02  0.25768015434E+01  0.29535408996E+02  0.43400727619E+02  0.00000000000E+00 0. -1.
         11    1    4    4    0    0 -0.16978632183E+01 -0.28401468672E+01  0.22421513140E+01  0.39970509768E+01  0.51100000000E-03 0. -1.
        -11    1    4    4    0    0 -0.20409740487E+02 -0.10338065530E+01 -0.22256341151E+02  0.30215409718E+02  0.51100000000E-03 0.  1.
         12    1    4    4    0    0 -0.95884980600E+01  0.12971518768E+01 -0.95212191595E+01  0.13574811686E+02  0.00000000000E+00 0. -1.
</event>
<event>
 8    1  0.6469014E-010  0.9118800E+02  0.7816164E-02  0.1184000E+00
        -11   -1    0    0    0    0  0.00000000000E+00  0.00000000000E+00  0.45593999997E+02  0.45594000000E+02  0.51100000000E-03 0.  1.
         11   -1    0    0    0    0 -0.00000000000E+00 -0.00000000000E+00 -0.45593999997E+02  0.45594000000E+02  0.51100000000E-03 0. -1.
         23    2    1    2    0    0  0.00000000000E+00  0.00000000000E+00  0.00000000000E+00  0.91188000000E+02  0.91188000000E+02 0.  0.
    9900012    2    3    3    0    0  0.37514600656E+02 -0.20785823831E+02 -0.66503709939E+01  0.47787272252E+02  0.20000005505E+02 0.  0.
         12    1    3    3    0    0 -0.37514600656E+02  0.20785823831E+02  0.66503709939E+01  0.43400727748E+02  0.00000000000E+00 0. -1.
         11    1    4    4    0    0 -0.16164090602E+01 -0.48466932464E+00 -0.39006160650E+00  0.17320019983E+01  0.51100000000E-03 0. -1.
        -11    1    4    4    0    0  0.27937755482E+02 -0.19576688676E+02 -0.69601420757E+01  0.34816784729E+02  0.51100000000E-03 0.  1.
        -12    1    4    4    0    0  0.11193254234E+02 -0.72446583007E+00  0.69983268821E+00  0.11238485524E+02  0.00000000000E+00 0.  1.
</event>
<event>
 8    1  0.6469014E-010  0.9118800E+02  0.7816164E-02  0.1184000E+00
        -11   -1    0    0    0    0  0.00000000000E+00  0.00000000000E+00  0.45593999997E+02  0.45594000000E+02  0.51100000000E-03 0. -1.
         11   -1    0    0    0    0 -0.00000000000E+00 -0.00000000000E+00 -0.45593999997E+02  0.45594000000E+02  0.51100000000E-03 0.  1.
         23    2    1    2    0    0 -0.17763568394E-14  0.17763568394E-14  0.00000000000E+00  0.91188000000E+02  0.91188000000E+02 0.  0.
    9900012    2    3    3    0    0  0.13657520693E+02 -0.11733971108E+02 -0.39489428220E+02  0.47787206337E+02  0.19999704970E+02 0.  0.
         12    1    3    3    0    0 -0.13657520693E+02  0.11733971108E+02  0.39489428220E+02  0.43400793663E+02  0.00000000000E+00 0. -1.
         11    1    4    4    0    0  0.17032113911E+01  0.30856513614E+01 -0.79661224558E+00  0.36134145482E+01  0.51100000000E-03 0. -1.
        -11    1    4    4    0    0  0.27468648984E+01 -0.10986467196E+02 -0.21359812791E+02  0.24176214157E+02  0.51100000000E-03 0.  1.
         12    1    4    4    0    0  0.92074444038E+01 -0.38331552735E+01 -0.17333003183E+02  0.19997577632E+02  0.00000000000E+00 0. -1.
</event>
<event>
 8    1  0.6469014E-010  0.9118800E+02  0.7816164E-02  0.1184000E+00
        -11   -1    0    0    0    0  0.00000000000E+00  0.00000000000E+00  0.45593999997E+02  0.45594000000E+02  0.51100000000E-03 0. -1.
         11   -1    0    0    0    0 -0.00000000000E+00 -0.00000000000E+00 -0.45593999997E+02  0.45594000000E+02  0.51100000000E-03 0.  1.
         23    2    1    2    0    0  0.00000000000E+00  0.13877787808E-15  0.00000000000E+00  0.91188000000E+02  0.91188000000E+02 0.  0.
    9900012    2    3    3    0    0  0.19799924182E+02  0.10792137387E+00 -0.38620910760E+02  0.47787269677E+02  0.19999993765E+02 0.  0.
         12    1    3    3    0    0 -0.19799924182E+02 -0.10792137387E+00  0.38620910760E+02  0.43400730323E+02  0.00000000000E+00 0. -1.
         11    1    4    4    0    0  0.14927264990E+02  0.12407509533E+01 -0.12276705020E+02  0.19366987102E+02  0.51100000000E-03 0. -1.
        -11    1    4    4    0    0  0.38853782307E+01 -0.34140468640E+01 -0.25124688358E+02  0.25651546646E+02  0.51100000000E-03 0.  1.
        -12    1    4    4    0    0  0.98728096110E+00  0.22812172847E+01 -0.12195173821E+01  0.27687359284E+01  0.00000000000E+00 0.  1.
</event>
<event>
 8    1  0.6469014E-010  0.9118800E+02  0.7816164E-02  0.1184000E+00
        -11   -1    0    0    0    0  0.00000000000E+00  0.00000000000E+00  0.45593999997E+02  0.45594000000E+02  0.51100000000E-03 0. -1.
         11   -1    0    0    0    0 -0.00000000000E+00 -0.00000000000E+00 -0.45593999997E+02  0.45594000000E+02  0.51100000000E-03 0.  1.
         23    2    1    2    0    0  0.00000000000E+00  0.44408920985E-15 -0.71054273576E-14  0.91188000000E+02  0.91188000000E+02 0.  0.
    9900012    2    3    3    0    0 -0.20946226352E+02 -0.23000170896E+01  0.37941910366E+02  0.47787273748E+02  0.20000012325E+02 0.  0.
        -12    1    3    3    0    0  0.20946226352E+02  0.23000170896E+01 -0.37941910366E+02  0.43400726252E+02  0.00000000000E+00 0.  1.
         11    1    4    4    0    0 -0.11582997972E+02 -0.49313281228E-01  0.59844346973E+01  0.13037704273E+02  0.51100000000E-03 0.  1.
        -11    1    4    4    0    0 -0.39481288570E+01 -0.59072780115E+01  0.17248427988E+02  0.18654541626E+02  0.51100000000E-03 0. -1.
         12    1    4    4    0    0 -0.54150995236E+01  0.36565742031E+01  0.14709047681E+02  0.16095027848E+02  0.00000000000E+00 0. -1.
</event>
<event>
 8    1  0.6469014E-010  0.9118800E+02  0.7816164E-02  0.1184000E+00
        -11   -1    0    0    0    0  0.00000000000E+00  0.00000000000E+00  0.45593999997E+02  0.45594000000E+02  0.51100000000E-03 0. -1.
         11   -1    0    0    0    0 -0.00000000000E+00 -0.00000000000E+00 -0.45593999997E+02  0.45594000000E+02  0.51100000000E-03 0.  1.
         23    2    1    2    0    0  0.17763568394E-14 -0.35527136788E-14  0.71054273576E-14  0.91188000000E+02  0.91188000000E+02 0.  0.
    9900012    2    3    3    0    0  0.49975053395E+01 -0.19499649333E+02  0.38450125075E+02  0.47787268416E+02  0.19999988018E+02 0.  0.
        -12    1    3    3    0    0 -0.49975053395E+01  0.19499649333E+02 -0.38450125075E+02  0.43400731584E+02  0.00000000000E+00 0.  1.
         11    1    4    4    0    0 -0.45666526278E+01 -0.10620298549E+02  0.21914704574E+02  0.24776992035E+02  0.51100000000E-03 0. -1.
        -11    1    4    4    0    0  0.75346172619E+01 -0.10792296320E+02  0.14305500871E+02  0.19439430871E+02  0.51100000000E-03 0.  1.
        -12    1    4    4    0    0  0.20295407054E+01  0.19129455367E+01  0.22299196297E+01  0.35708455100E+01  0.00000000000E+00 0.  1.
</event>
<event>
 8    1  0.6469014E-010  0.9118800E+02  0.7816164E-02  0.1184000E+00
        -11   -1    0    0    0    0  0.00000000000E+00  0.00000000000E+00  0.45593999997E+02  0.45594000000E+02  0.51100000000E-03 0. -1.
         11   -1    0    0    0    0 -0.00000000000E+00 -0.00000000000E+00 -0.45593999997E+02  0.45594000000E+02  0.51100000000E-03 0.  1.
         23    2    1    2    0    0 -0.71054273576E-14  0.44408920985E-15 -0.35527136788E-14  0.91188000000E+02  0.91188000000E+02 0.  0.
    9900012    2    3    3    0    0  0.38539380113E+02 -0.34808938332E+01  0.19652555507E+02  0.47787269830E+02  0.19999994462E+02 0.  0.
        -12    1    3    3    0    0 -0.38539380113E+02  0.34808938332E+01 -0.19652555507E+02  0.43400730170E+02  0.00000000000E+00 0.  1.
         11    1    4    4    0    0  0.33630235644E+02 -0.29583808481E+01  0.19672532188E+02  0.39073690504E+02  0.51100000000E-03 0. -1.
        -11    1    4    4    0    0 -0.65130256460E+00 -0.22049850865E+01  0.14536772388E+01  0.27201713252E+01  0.51100000000E-03 0.  1.
         12    1    4    4    0    0  0.55604470334E+01  0.16824721015E+01 -0.14736539191E+01  0.59934080002E+01  0.00000000000E+00 0. -1.
</event>
<event>
 8    1  0.6469014E-010  0.9118800E+02  0.7816164E-02  0.1184000E+00
        -11   -1    0    0    0    0  0.00000000000E+00  0.00000000000E+00  0.45593999997E+02  0.45594000000E+02  0.51100000000E-03 0. -1.
         11   -1    0    0    0    0 -0.00000000000E+00 -0.00000000000E+00 -0.45593999997E+02  0.45594000000E+02  0.51100000000E-03 0.  1.
         23    2    1    2    0    0  0.00000000000E+00  0.00000000000E+00  0.00000000000E+00  0.91188000000E+02  0.91188000000E+02 0.  0.
    9900012    2    3    3    0    0 -0.11680558240E+01  0.32608868840E+02  0.28616792898E+02  0.47787268242E+02  0.19999987221E+02 0.  0.
        -12    1    3    3    0    0  0.11680558240E+01 -0.32608868840E+02 -0.28616792898E+02  0.43400731758E+02  0.00000000000E+00 0.  1.
         11    1    4    4    0    0  0.47579455570E+01  0.21380626898E+02  0.12184726994E+02  0.25064652893E+02  0.51100000000E-03 0. -1.
        -11    1    4    4    0    0  0.21032981258E+01  0.51163075246E+01  0.68764546166E+01  0.88253098556E+01  0.51100000000E-03 0.  1.
         12    1    4    4    0    0 -0.80292995067E+01  0.61119344165E+01  0.95556112873E+01  0.13897305493E+02  0.00000000000E+00 0. -1.
</event>
<event>
 8    1  0.6469014E-010  0.9118800E+02  0.7816164E-02  0.1184000E+00
        -11   -1    0    0    0    0  0.00000000000E+00  0.00000000000E+00  0.45593999997E+02  0.45594000000E+02  0.51100000000E-03 0. -1.
         11   -1    0    0    0    0 -0.00000000000E+00 -0.00000000000E+00 -0.45593999997E+02  0.45594000000E+02  0.51100000000E-03 0.  1.
         23    2    1    2    0    0  0.00000000000E+00  0.00000000000E+00  0.00000000000E+00  0.91188000000E+02  0.91188000000E+02 0.  0.
    9900012    2    3    3    0    0  0.34891767176E+02  0.10404105170E+02  0.23620807769E+02  0.47787269814E+02  0.19999994390E+02 0.  0.
        -12    1    3    3    0    0 -0.34891767176E+02 -0.10404105170E+02 -0.23620807769E+02  0.43400730186E+02  0.00000000000E+00 0.  1.
         11    1    4    4    0    0  0.16829740841E+01  0.63471602469E+01  0.71870185052E+01  0.97350952858E+01  0.51100000000E-03 0. -1.
        -11    1    4    4    0    0  0.96322781885E+01 -0.25967296662E+00  0.13434630809E+01  0.97289828071E+01  0.51100000000E-03 0.  1.
         12    1    4    4    0    0  0.23576514903E+02  0.43166178899E+01  0.15090326182E+02  0.28323191721E+02  0.00000000000E+00 0. -1.
</event>
<event>
 8    1  0.6469014E-010  0.9118800E+02  0.7816164E-02  0.1184000E+00
        -11   -1    0    0    0    0  0.00000000000E+00  0.00000000000E+00  0.45593999997E+02  0.45594000000E+02  0.51100000000E-03 0. -1.
         11   -1    0    0    0    0 -0.00000000000E+00 -0.00000000000E+00 -0.45593999997E+02  0.45594000000E+02  0.51100000000E-03 0.  1.
         23    2    1    2    0    0  0.00000000000E+00 -0.88817841970E-15  0.71054273576E-14  0.91188000000E+02  0.91188000000E+02 0.  0.
    9900012    2    3    3    0    0 -0.60131042736E+01  0.20949193848E+01 -0.42931074476E+02  0.47787271136E+02  0.20000000418E+02 0.  0.
         12    1    3    3    0    0  0.60131042736E+01 -0.20949193848E+01  0.42931074476E+02  0.43400728864E+02  0.00000000000E+00 0. -1.
         11    1    4    4    0    0 -0.20755204276E+01 -0.24591065998E+00 -0.23543976029E+02  0.23636562030E+02  0.51100000000E-03 0. -1.
        -11    1    4    4    0    0  0.12107137711E+00 -0.34163080360E+01  0.10997329351E+00  0.34202212299E+01  0.51100000000E-03 0.  1.
        -12    1    4    4    0    0 -0.40586552230E+01  0.57571380807E+01 -0.19497071741E+02  0.20730487876E+02  0.00000000000E+00 0.  1.
</event>
<event>
 8    1  0.6469014E-010  0.9118800E+02  0.7816164E-02  0.1184000E+00
        -11   -1    0    0    0    0  0.00000000000E+00  0.00000000000E+00  0.45593999997E+02  0.45594000000E+02  0.51100000000E-03 0. -1.
         11   -1    0    0    0    0 -0.00000000000E+00 -0.00000000000E+00 -0.45593999997E+02  0.45594000000E+02  0.51100000000E-03 0.  1.
         23    2    1    2    0    0  0.00000000000E+00  0.00000000000E+00  0.35527136788E-14  0.91188000000E+02  0.91188000000E+02 0.  0.
    9900012    2    3    3    0    0  0.43003117410E+01  0.30673589560E+02 -0.30401668544E+02  0.47787271575E+02  0.20000002420E+02 0.  0.
         12    1    3    3    0    0 -0.43003117410E+01 -0.30673589560E+02  0.30401668544E+02  0.43400728425E+02  0.00000000000E+00 0. -1.
         11    1    4    4    0    0 -0.24871297260E+01  0.22259646086E+02 -0.14393463855E+02  0.26624226940E+02  0.51100000000E-03 0.  1.
        -11    1    4    4    0    0  0.44247824610E+01  0.96698216607E-01 -0.23846899520E+01  0.50274045789E+01  0.51100000000E-03 0. -1.
        -12    1    4    4    0    0  0.23626590060E+01  0.83172452572E+01 -0.13623514737E+02  0.16135640056E+02  0.00000000000E+00 0.  1.
</event>
<event>
 8    1  0.6469014E-010  0.9118800E+02  0.7816164E-02  0.1184000E+00
        -11   -1    0    0    0    0  0.00000000000E+00  0.00000000000E+00  0.45593999997E+02  0.45594000000E+02  0.51100000000E-03 0. -1.
         11   -1    0    0    0    0 -0.00000000000E+00 -0.00000000000E+00 -0.45593999997E+02  0.45594000000E+02  0.51100000000E-03 0.  1.
         23    2    1    2    0    0  0.00000000000E+00  0.00000000000E+00  0.00000000000E+00  0.91188000000E+02  0.91188000000E+02 0.  0.
    9900012    2    3    3    0    0 -0.21715487371E+02 -0.92140469629E+01 -0.36430238608E+02  0.47787270303E+02  0.19999996620E+02 0.  0.
         12    1    3    3    0    0  0.21715487371E+02  0.92140469629E+01  0.36430238608E+02  0.43400729697E+02  0.00000000000E+00 0. -1.
         11    1    4    4    0    0 -0.25171763407E+01 -0.52242920510E+01 -0.70412856597E+01  0.91219026616E+01  0.51100000000E-03 0. -1.
        -11    1    4    4    0    0 -0.11945508302E+02 -0.61672705491E+01 -0.27868483344E+02  0.30941602395E+02  0.51100000000E-03 0.  1.
        -12    1    4    4    0    0 -0.72528027285E+01  0.21775156372E+01 -0.15204696041E+01  0.77237652466E+01  0.00000000000E+00 0.  1.
</event>
<event>
 8    1  0.6469014E-010  0.9118800E+02  0.7816164E-02  0.1184000E+00
        -11   -1    0    0    0    0  0.00000000000E+00  0.00000000000E+00  0.45593999997E+02  0.45594000000E+02  0.51100000000E-03 0. -1.
         11   -1    0    0    0    0 -0.00000000000E+00 -0.00000000000E+00 -0.45593999997E+02  0.45594000000E+02  0.51100000000E-03 0.  1.
         23    2    1    2    0    0  0.35527136788E-14  0.00000000000E+00  0.00000000000E+00  0.91188000000E+02  0.91188000000E+02 0.  0.
    9900012    2    3    3    0    0  0.17743464363E+02 -0.13619212244E+02  0.37192876233E+02  0.47787268298E+02  0.19999987479E+02 0.  0.
        -12    1    3    3    0    0 -0.17743464363E+02  0.13619212244E+02 -0.37192876233E+02  0.43400731702E+02  0.00000000000E+00 0.  1.
         11    1    4    4    0    0  0.11300315728E+02 -0.29876378803E+01  0.17179747323E+02  0.20778999831E+02  0.51100000000E-03 0. -1.
        -11    1    4    4    0    0 -0.87538659642E+00 -0.10779628781E+02  0.11793024668E+02  0.16001316491E+02  0.51100000000E-03 0.  1.
        -12    1    4    4    0    0  0.73185352316E+01  0.14805441785E+00  0.82201042424E+01  0.11006951976E+02  0.00000000000E+00 0.  1.
</event>
<event>
 8    1  0.6469014E-010  0.9118800E+02  0.7816164E-02  0.1184000E+00
        -11   -1    0    0    0    0  0.00000000000E+00  0.00000000000E+00  0.45593999997E+02  0.45594000000E+02  0.51100000000E-03 0. -1.
         11   -1    0    0    0    0 -0.00000000000E+00 -0.00000000000E+00 -0.45593999997E+02  0.45594000000E+02  0.51100000000E-03 0.  1.
         23    2    1    2    0    0  0.00000000000E+00  0.00000000000E+00  0.00000000000E+00  0.91188000000E+02  0.91188000000E+02 0.  0.
    9900012    2    3    3    0    0 -0.20178457300E+02  0.43303753694E+01 -0.38179846118E+02  0.47787274897E+02  0.20000017566E+02 0.  0.
         12    1    3    3    0    0  0.20178457300E+02 -0.43303753694E+01  0.38179846118E+02  0.43400725103E+02  0.00000000000E+00 0. -1.
         11    1    4    4    0    0 -0.65012801351E+01  0.26607478116E+01 -0.76134057337E+00  0.70658235218E+01  0.51100000000E-03 0. -1.
        -11    1    4    4    0    0 -0.13378861073E+02  0.31753625783E+01 -0.36314539551E+02  0.38830691909E+02  0.51100000000E-03 0.  1.
         12    1    4    4    0    0 -0.29831609247E+00 -0.15057350205E+01 -0.11039659937E+01  0.18907594660E+01  0.00000000000E+00 0. -1.
</event>
<event>
 8    1  0.8318333E-010  0.9118800E+02  0.7816164E-02  0.1184000E+00
        -11   -1    0    0    0    0  0.00000000000E+00  0.00000000000E+00  0.45593999997E+02  0.45594000000E+02  0.51100000000E-03 0. -1.
         11   -1    0    0    0    0 -0.00000000000E+00 -0.00000000000E+00 -0.45593999997E+02  0.45594000000E+02  0.51100000000E-03 0.  1.
         23    2    1    2    0    0  0.00000000000E+00  0.00000000000E+00  0.00000000000E+00  0.91188000000E+02  0.91188000000E+02 0.  0.
    9900012    2    3    3    0    0 -0.11600095412E+02 -0.15934098195E+02 -0.38667372514E+02  0.47787269638E+02  0.19999993588E+02 0.  0.
         12    1    3    3    0    0  0.11600095412E+02  0.15934098195E+02  0.38667372514E+02  0.43400730362E+02  0.00000000000E+00 0. -1.
         11    1    4    4    0    0 -0.47122381319E+01  0.23500310835E+01 -0.31130859767E+01  0.61171185100E+01  0.51100000000E-03 0. -1.
        -11    1    4    4    0    0 -0.92016581467E+01 -0.13313533435E+02 -0.25096193154E+02  0.29862009247E+02  0.51100000000E-03 0.  1.
         12    1    4    4    0    0  0.23138008663E+01 -0.49705958430E+01 -0.10458093383E+02  0.11808141881E+02  0.00000000000E+00 0. -1.
</event>
<event>
 8    1  0.6469014E-010  0.9118800E+02  0.7816164E-02  0.1184000E+00
        -11   -1    0    0    0    0  0.00000000000E+00  0.00000000000E+00  0.45593999997E+02  0.45594000000E+02  0.51100000000E-03 0. -1.
         11   -1    0    0    0    0 -0.00000000000E+00 -0.00000000000E+00 -0.45593999997E+02  0.45594000000E+02  0.51100000000E-03 0.  1.
         23    2    1    2    0    0  0.00000000000E+00  0.00000000000E+00 -0.35527136788E-14  0.91188000000E+02  0.91188000000E+02 0.  0.
    9900012    2    3    3    0    0 -0.24426205370E+02 -0.16573534386E+02 -0.31816699433E+02  0.47787263674E+02  0.19999966395E+02 0.  0.
         12    1    3    3    0    0  0.24426205370E+02  0.16573534386E+02  0.31816699433E+02  0.43400736326E+02  0.00000000000E+00 0. -1.
         11    1    4    4    0    0  0.23459703892E+01 -0.35103427437E+01 -0.63831390364E+01  0.76531397128E+01  0.51100000000E-03 0. -1.
        -11    1    4    4    0    0 -0.20194287895E+02 -0.73091158562E+01 -0.13589286837E+02  0.25414585482E+02  0.51100000000E-03 0.  1.
         12    1    4    4    0    0 -0.65778878642E+01 -0.57540757864E+01 -0.11844273559E+02  0.14719538479E+02  0.00000000000E+00 0. -1.
</event>
<event>
 8    1  0.6469014E-010  0.9118800E+02  0.7816164E-02  0.1184000E+00
        -11   -1    0    0    0    0  0.00000000000E+00  0.00000000000E+00  0.45593999997E+02  0.45594000000E+02  0.51100000000E-03 0.  1.
         11   -1    0    0    0    0 -0.00000000000E+00 -0.00000000000E+00 -0.45593999997E+02  0.45594000000E+02  0.51100000000E-03 0. -1.
         23    2    1    2    0    0  0.00000000000E+00  0.00000000000E+00  0.17763568394E-14  0.91188000000E+02  0.91188000000E+02 0.  0.
    9900012    2    3    3    0    0  0.11155253924E+02  0.39103677025E+02 -0.15168601656E+02  0.47787265868E+02  0.19999976398E+02 0.  0.
         12    1    3    3    0    0 -0.11155253924E+02 -0.39103677025E+02  0.15168601656E+02  0.43400734132E+02  0.00000000000E+00 0. -1.
         11    1    4    4    0    0 -0.15859808089E+01  0.38491300391E+01 -0.66657960892E+01  0.78590059771E+01  0.51100000000E-03 0. -1.
        -11    1    4    4    0    0  0.10586578814E+02  0.20016284387E+02 -0.65493479090E+00  0.22652951937E+02  0.51100000000E-03 0.  1.
        -12    1    4    4    0    0  0.21546559193E+01  0.15238262600E+02 -0.78478707758E+01  0.17275307954E+02  0.00000000000E+00 0.  1.
</event>
<event>
 8    1  0.6469014E-010  0.9118800E+02  0.7816164E-02  0.1184000E+00
        -11   -1    0    0    0    0  0.00000000000E+00  0.00000000000E+00  0.45593999997E+02  0.45594000000E+02  0.51100000000E-03 0. -1.
         11   -1    0    0    0    0 -0.00000000000E+00 -0.00000000000E+00 -0.45593999997E+02  0.45594000000E+02  0.51100000000E-03 0.  1.
         23    2    1    2    0    0  0.00000000000E+00  0.00000000000E+00 -0.35527136788E-14  0.91188000000E+02  0.91188000000E+02 0.  0.
    9900012    2    3    3    0    0  0.23589494740E+02  0.18945584376E+02  0.31116295655E+02  0.47787270920E+02  0.19999999431E+02 0.  0.
        -12    1    3    3    0    0 -0.23589494740E+02 -0.18945584376E+02 -0.31116295655E+02  0.43400729080E+02  0.00000000000E+00 0.  1.
         11    1    4    4    0    0  0.11458271188E+01 -0.10229055282E-02  0.56461718006E+01  0.57612652340E+01  0.51100000000E-03 0.  1.
        -11    1    4    4    0    0  0.20317420847E+02  0.81704466844E+01  0.20399600116E+02  0.29928205326E+02  0.51100000000E-03 0. -1.
        -12    1    4    4    0    0  0.21262467740E+01  0.10776160597E+02  0.50705237383E+01  0.12097800360E+02  0.00000000000E+00 0.  1.
</event>
<event>
 8    1  0.6469014E-010  0.9118800E+02  0.7816164E-02  0.1184000E+00
        -11   -1    0    0    0    0  0.00000000000E+00  0.00000000000E+00  0.45593999997E+02  0.45594000000E+02  0.51100000000E-03 0.  1.
         11   -1    0    0    0    0 -0.00000000000E+00 -0.00000000000E+00 -0.45593999997E+02  0.45594000000E+02  0.51100000000E-03 0. -1.
         23    2    1    2    0    0  0.00000000000E+00  0.00000000000E+00  0.17763568394E-14  0.91188000000E+02  0.91188000000E+02 0.  0.
    9900012    2    3    3    0    0  0.29129225786E+02 -0.30086178705E+02  0.11398757121E+02  0.47787290238E+02  0.20000087510E+02 0.  0.
        -12    1    3    3    0    0 -0.29129225786E+02  0.30086178705E+02 -0.11398757121E+02  0.43400709762E+02  0.00000000000E+00 0.  1.
         11    1    4    4    0    0  0.55236423688E+01 -0.14455891310E+02  0.75748414466E+01  0.17229673293E+02  0.51100000000E-03 0. -1.
        -11    1    4    4    0    0  0.15266319683E+02 -0.10213304177E+02 -0.28415248968E+01  0.18586187422E+02  0.51100000000E-03 0.  1.
        -12    1    4    4    0    0  0.83392637340E+01 -0.54169832178E+01  0.66654405717E+01  0.11971429523E+02  0.00000000000E+00 0.  1.
</event>
<event>
 8    1  0.6469014E-010  0.9118800E+02  0.7816164E-02  0.1184000E+00
        -11   -1    0    0    0    0  0.00000000000E+00  0.00000000000E+00  0.45593999997E+02  0.45594000000E+02  0.51100000000E-03 0. -1.
         11   -1    0    0    0    0 -0.00000000000E+00 -0.00000000000E+00 -0.45593999997E+02  0.45594000000E+02  0.51100000000E-03 0.  1.
         23    2    1    2    0    0 -0.35527136788E-14  0.71054273576E-14  0.00000000000E+00  0.91188000000E+02  0.91188000000E+02 0.  0.
    9900012    2    3    3    0    0 -0.19344099103E+02  0.34150464748E+02  0.18524963658E+02  0.47787277758E+02  0.20000030609E+02 0.  0.
        -12    1    3    3    0    0  0.19344099103E+02 -0.34150464748E+02 -0.18524963658E+02  0.43400722242E+02  0.00000000000E+00 0.  1.
         11    1    4    4    0    0 -0.10891982617E+02  0.17952832258E+02  0.19484537051E+02  0.28645883749E+02  0.51100000000E-03 0.  1.
        -11    1    4    4    0    0 -0.45450018673E+01  0.13681262976E+02 -0.10895257815E+00  0.14416860599E+02  0.51100000000E-03 0. -1.
        -12    1    4    4    0    0 -0.39071146186E+01  0.25163695132E+01 -0.85062081472E+00  0.47245334098E+01  0.00000000000E+00 0.  1.
</event>
<event>
 8    1  0.7193278E-010  0.9118800E+02  0.7816164E-02  0.1184000E+00
        -11   -1    0    0    0    0  0.00000000000E+00  0.00000000000E+00  0.45593999997E+02  0.45594000000E+02  0.51100000000E-03 0. -1.
         11   -1    0    0    0    0 -0.00000000000E+00 -0.00000000000E+00 -0.45593999997E+02  0.45594000000E+02  0.51100000000E-03 0.  1.
         23    2    1    2    0    0 -0.88817841970E-15  0.35527136788E-14 -0.14210854715E-13  0.91188000000E+02  0.91188000000E+02 0.  0.
    9900012    2    3    3    0    0 -0.64194237926E+01  0.17646308813E+02 -0.39128278784E+02  0.47787269394E+02  0.19999992473E+02 0.  0.
         12    1    3    3    0    0  0.64194237926E+01 -0.17646308813E+02  0.39128278784E+02  0.43400730606E+02  0.00000000000E+00 0. -1.
         11    1    4    4    0    0 -0.24252013204E+01 -0.99039192158E+00  0.10545071131E+01  0.28239091904E+01  0.51100000000E-03 0. -1.
        -11    1    4    4    0    0 -0.38611591047E+01  0.10717404171E+02 -0.16991369313E+02  0.20456733199E+02  0.51100000000E-03 0.  1.
         12    1    4    4    0    0 -0.13306336751E+00  0.79192965633E+01 -0.23191416585E+02  0.24506627004E+02  0.00000000000E+00 0. -1.
</event>
<event>
 8    1  0.6469014E-010  0.9118800E+02  0.7816164E-02  0.1184000E+00
        -11   -1    0    0    0    0  0.00000000000E+00  0.00000000000E+00  0.45593999997E+02  0.45594000000E+02  0.51100000000E-03 0. -1.
         11   -1    0    0    0    0 -0.00000000000E+00 -0.00000000000E+00 -0.45593999997E+02  0.45594000000E+02  0.51100000000E-03 0.  1.
         23    2    1    2    0    0  0.00000000000E+00  0.00000000000E+00  0.35527136788E-14  0.91188000000E+02  0.91188000000E+02 0.  0.
    9900012    2    3    3    0    0 -0.31801871137E+02  0.17343910796E+02 -0.23905155530E+02  0.47787231453E+02  0.19999819488E+02 0.  0.
         12    1    3    3    0    0  0.31801871137E+02 -0.17343910796E+02  0.23905155530E+02  0.43400768547E+02  0.00000000000E+00 0. -1.
         11    1    4    4    0    0  0.10358571108E+01  0.33181364973E+00  0.18487254280E+01  0.21449676504E+01  0.51100000000E-03 0. -1.
        -11    1    4    4    0    0 -0.25740470416E+02  0.14807203629E+02 -0.23520982482E+02  0.37882208406E+02  0.51100000000E-03 0.  1.
        -12    1    4    4    0    0 -0.70972578326E+01  0.22048935168E+01 -0.22328984762E+01  0.77600553972E+01  0.00000000000E+00 0.  1.
</event>
<event>
 8    1  0.6469014E-010  0.9118800E+02  0.7816164E-02  0.1184000E+00
        -11   -1    0    0    0    0  0.00000000000E+00  0.00000000000E+00  0.45593999997E+02  0.45594000000E+02  0.51100000000E-03 0. -1.
         11   -1    0    0    0    0 -0.00000000000E+00 -0.00000000000E+00 -0.45593999997E+02  0.45594000000E+02  0.51100000000E-03 0.  1.
         23    2    1    2    0    0  0.00000000000E+00 -0.17763568394E-14  0.00000000000E+00  0.91188000000E+02  0.91188000000E+02 0.  0.
    9900012    2    3    3    0    0  0.32826740550E+02 -0.10643856858E+02  0.26319884340E+02  0.47787275402E+02  0.20000019869E+02 0.  0.
        -12    1    3    3    0    0 -0.32826740550E+02  0.10643856858E+02 -0.26319884340E+02  0.43400724598E+02  0.00000000000E+00 0.  1.
         11    1    4    4    0    0  0.27949280376E+02 -0.55212827522E+01  0.24158181782E+02  0.37353240609E+02  0.51100000000E-03 0. -1.
        -11    1    4    4    0    0  0.16682491261E+00 -0.40113215793E+00 -0.23448411722E+01  0.23847469349E+01  0.51100000000E-03 0.  1.
         12    1    4    4    0    0  0.47106352616E+01 -0.47214419476E+01  0.45065437300E+01  0.80492878581E+01  0.00000000000E+00 0. -1.
</event>
<event>
 8    1  0.6469014E-010  0.9118800E+02  0.7816164E-02  0.1184000E+00
        -11   -1    0    0    0    0  0.00000000000E+00  0.00000000000E+00  0.45593999997E+02  0.45594000000E+02  0.51100000000E-03 0. -1.
         11   -1    0    0    0    0 -0.00000000000E+00 -0.00000000000E+00 -0.45593999997E+02  0.45594000000E+02  0.51100000000E-03 0.  1.
         23    2    1    2    0    0  0.17763568394E-14  0.35527136788E-14 -0.35527136788E-14  0.91188000000E+02  0.91188000000E+02 0.  0.
    9900012    2    3    3    0    0 -0.92043690407E+01  0.29425375923E+02  0.30545869378E+02  0.47787270817E+02  0.19999998961E+02 0.  0.
        -12    1    3    3    0    0  0.92043690407E+01 -0.29425375923E+02 -0.30545869378E+02  0.43400729183E+02  0.00000000000E+00 0.  1.
         11    1    4    4    0    0 -0.11058863795E+02  0.20496745698E+02  0.20289013966E+02  0.30887847783E+02  0.51100000000E-03 0. -1.
        -11    1    4    4    0    0  0.16799126606E+01  0.69318326227E+01  0.73657262027E+00  0.71704218525E+01  0.51100000000E-03 0.  1.
        -12    1    4    4    0    0  0.17458209352E+00  0.19967976017E+01  0.95202827910E+01  0.97290011815E+01  0.00000000000E+00 0.  1.
</event>
<event>
 8    1  0.6469014E-010  0.9118800E+02  0.7816164E-02  0.1184000E+00
        -11   -1    0    0    0    0  0.00000000000E+00  0.00000000000E+00  0.45593999997E+02  0.45594000000E+02  0.51100000000E-03 0. -1.
         11   -1    0    0    0    0 -0.00000000000E+00 -0.00000000000E+00 -0.45593999997E+02  0.45594000000E+02  0.51100000000E-03 0.  1.
         23    2    1    2    0    0  0.00000000000E+00  0.00000000000E+00  0.00000000000E+00  0.91188000000E+02  0.91188000000E+02 0.  0.
    9900012    2    3    3    0    0 -0.13564401635E+02  0.19432824775E+02 -0.36359255315E+02  0.47787272846E+02  0.20000008213E+02 0.  0.
         12    1    3    3    0    0  0.13564401635E+02 -0.19432824775E+02  0.36359255315E+02  0.43400727154E+02  0.00000000000E+00 0. -1.
         11    1    4    4    0    0 -0.16076617397E+00  0.70388932253E+00 -0.32669387361E+01  0.33457726921E+01  0.51100000000E-03 0. -1.
        -11    1    4    4    0    0  0.11606033570E+01  0.13751828555E+02 -0.19615504374E+02  0.23983907122E+02  0.51100000000E-03 0.  1.
        -12    1    4    4    0    0 -0.14564238818E+02  0.49771068976E+01 -0.13476812205E+02  0.20457593031E+02  0.00000000000E+00 0.  1.
</event>
<event>
 8    1  0.6469014E-010  0.9118800E+02  0.7816164E-02  0.1184000E+00
        -11   -1    0    0    0    0  0.00000000000E+00  0.00000000000E+00  0.45593999997E+02  0.45594000000E+02  0.51100000000E-03 0.  1.
         11   -1    0    0    0    0 -0.00000000000E+00 -0.00000000000E+00 -0.45593999997E+02  0.45594000000E+02  0.51100000000E-03 0. -1.
         23    2    1    2    0    0 -0.35527136788E-14  0.00000000000E+00  0.00000000000E+00  0.91188000000E+02  0.91188000000E+02 0.  0.
    9900012    2    3    3    0    0 -0.22206891910E+02  0.35584729117E+02  0.11144695906E+02  0.47787271417E+02  0.20000001700E+02 0.  0.
         12    1    3    3    0    0  0.22206891910E+02 -0.35584729117E+02 -0.11144695906E+02  0.43400728583E+02  0.00000000000E+00 0. -1.
         11    1    4    4    0    0 -0.53460103552E+01  0.81253257184E+01  0.59190221680E+01  0.11385761654E+02  0.51100000000E-03 0. -1.
        -11    1    4    4    0    0 -0.16120781513E+02  0.11107055884E+02  0.16473083094E+01  0.19645862463E+02  0.51100000000E-03 0.  1.
        -12    1    4    4    0    0 -0.74010004241E+00  0.16352347515E+02  0.35783654284E+01  0.16755647301E+02  0.00000000000E+00 0.  1.
</event>
<event>
 8    1  0.6469014E-010  0.9118800E+02  0.7816164E-02  0.1184000E+00
        -11   -1    0    0    0    0  0.00000000000E+00  0.00000000000E+00  0.45593999997E+02  0.45594000000E+02  0.51100000000E-03 0.  1.
         11   -1    0    0    0    0 -0.00000000000E+00 -0.00000000000E+00 -0.45593999997E+02  0.45594000000E+02  0.51100000000E-03 0. -1.
         23    2    1    2    0    0 -0.88817841970E-15  0.00000000000E+00  0.00000000000E+00  0.91188000000E+02  0.91188000000E+02 0.  0.
    9900012    2    3    3    0    0  0.65747217842E+01  0.42283134451E+02 -0.72479408371E+01  0.47787273371E+02  0.20000010608E+02 0.  0.
         12    1    3    3    0    0 -0.65747217842E+01 -0.42283134451E+02  0.72479408371E+01  0.43400726629E+02  0.00000000000E+00 0. -1.
         11    1    4    4    0    0  0.57160372045E+01  0.17410195925E+02 -0.32220517408E+01  0.18605634124E+02  0.51100000000E-03 0. -1.
        -11    1    4    4    0    0  0.65883342145E+01  0.12300874494E+02  0.20218370388E+01  0.14099839940E+02  0.51100000000E-03 0.  1.
         12    1    4    4    0    0 -0.57296496349E+01  0.12572064031E+02 -0.60477261350E+01  0.15081799307E+02  0.00000000000E+00 0. -1.
</event>
<event>
 8    1  0.6469014E-010  0.9118800E+02  0.7816164E-02  0.1184000E+00
        -11   -1    0    0    0    0  0.00000000000E+00  0.00000000000E+00  0.45593999997E+02  0.45594000000E+02  0.51100000000E-03 0. -1.
         11   -1    0    0    0    0 -0.00000000000E+00 -0.00000000000E+00 -0.45593999997E+02  0.45594000000E+02  0.51100000000E-03 0.  1.
         23    2    1    2    0    0 -0.35527136788E-14  0.00000000000E+00  0.00000000000E+00  0.91188000000E+02  0.91188000000E+02 0.  0.
    9900012    2    3    3    0    0 -0.27513846400E+02 -0.57557546293E+01 -0.33067839607E+02  0.47787280290E+02  0.20000042154E+02 0.  0.
         12    1    3    3    0    0  0.27513846400E+02  0.57557546293E+01  0.33067839607E+02  0.43400719710E+02  0.00000000000E+00 0. -1.
         11    1    4    4    0    0 -0.80260508857E+01  0.31433543768E+01 -0.93414435936E+00  0.86701093133E+01  0.51100000000E-03 0. -1.
        -11    1    4    4    0    0 -0.13175815754E+02 -0.90630794734E+01 -0.22926476879E+02  0.27952904549E+02  0.51100000000E-03 0.  1.
         12    1    4    4    0    0 -0.63119797602E+01  0.16397046725E+00 -0.92072183678E+01  0.11164266428E+02  0.00000000000E+00 0. -1.
</event>
<event>
 8    1  0.6469014E-010  0.9118800E+02  0.7816164E-02  0.1184000E+00
        -11   -1    0    0    0    0  0.00000000000E+00  0.00000000000E+00  0.45593999997E+02  0.45594000000E+02  0.51100000000E-03 0. -1.
         11   -1    0    0    0    0 -0.00000000000E+00 -0.00000000000E+00 -0.45593999997E+02  0.45594000000E+02  0.51100000000E-03 0.  1.
         23    2    1    2    0    0  0.00000000000E+00 -0.88817841970E-15  0.00000000000E+00  0.91188000000E+02  0.91188000000E+02 0.  0.
    9900012    2    3    3    0    0  0.15783191478E+02  0.77838435444E+01  0.39672752433E+02  0.47787255315E+02  0.19999928285E+02 0.  0.
        -12    1    3    3    0    0 -0.15783191478E+02 -0.77838435444E+01 -0.39672752433E+02  0.43400744685E+02  0.00000000000E+00 0.  1.
         11    1    4    4    0    0  0.46834798015E+00  0.86921702094E+01  0.67341694741E+01  0.11005553668E+02  0.51100000000E-03 0. -1.
        -11    1    4    4    0    0  0.10090567189E+02 -0.32976859858E+01  0.21932465483E+02  0.24366520504E+02  0.51100000000E-03 0.  1.
        -12    1    4    4    0    0  0.52242763088E+01  0.23893593208E+01  0.11006117476E+02  0.12415181143E+02  0.00000000000E+00 0.  1.
</event>
<event>
 8    1  0.6469014E-010  0.9118800E+02  0.7816164E-02  0.1184000E+00
        -11   -1    0    0    0    0  0.00000000000E+00  0.00000000000E+00  0.45593999997E+02  0.45594000000E+02  0.51100000000E-03 0.  1.
         11   -1    0    0    0    0 -0.00000000000E+00 -0.00000000000E+00 -0.45593999997E+02  0.45594000000E+02  0.51100000000E-03 0. -1.
         23    2    1    2    0    0  0.00000000000E+00  0.00000000000E+00  0.00000000000E+00  0.91188000000E+02  0.91188000000E+02 0.  0.
    9900012    2    3    3    0    0  0.37504767488E+02  0.13196605461E+02 -0.17403048160E+02  0.47787261927E+02  0.19999958432E+02 0.  0.
         12    1    3    3    0    0 -0.37504767488E+02 -0.13196605461E+02  0.17403048160E+02  0.43400738073E+02  0.00000000000E+00 0. -1.
         11    1    4    4    0    0  0.16149626373E+02  0.80437426854E+01 -0.85221805395E+01  0.19953440550E+02  0.51100000000E-03 0. -1.
        -11    1    4    4    0    0  0.16186762421E+02 -0.29837930930E+01 -0.75304320925E+01  0.18100323385E+02  0.51100000000E-03 0.  1.
        -12    1    4    4    0    0  0.51683786931E+01  0.81366558685E+01 -0.13504355280E+01  0.97334979916E+01  0.00000000000E+00 0.  1.
</event>
<event>
 8    1  0.6469014E-010  0.9118800E+02  0.7816164E-02  0.1184000E+00
        -11   -1    0    0    0    0  0.00000000000E+00  0.00000000000E+00  0.45593999997E+02  0.45594000000E+02  0.51100000000E-03 0. -1.
         11   -1    0    0    0    0 -0.00000000000E+00 -0.00000000000E+00 -0.45593999997E+02  0.45594000000E+02  0.51100000000E-03 0.  1.
         23    2    1    2    0    0 -0.17763568394E-14  0.22204460493E-14 -0.71054273576E-14  0.91188000000E+02  0.91188000000E+02 0.  0.
    9900012    2    3    3    0    0  0.11646898473E+02 -0.35025668949E+01  0.41661794110E+02  0.47787270658E+02  0.19999998240E+02 0.  0.
        -12    1    3    3    0    0 -0.11646898473E+02  0.35025668949E+01 -0.41661794110E+02  0.43400729342E+02  0.00000000000E+00 0.  1.
         11    1    4    4    0    0  0.20482047278E+01 -0.76997625325E+01  0.10393157332E+02  0.13095770510E+02  0.51100000000E-03 0. -1.
        -11    1    4    4    0    0  0.72710170326E+01  0.76081652459E+01  0.25595573911E+02  0.27674632268E+02  0.51100000000E-03 0.  1.
        -12    1    4    4    0    0  0.23276767122E+01 -0.34109696084E+01  0.56730628680E+01  0.70168678803E+01  0.00000000000E+00 0.  1.
</event>
<event>
 8    1  0.6469014E-010  0.9118800E+02  0.7816164E-02  0.1184000E+00
        -11   -1    0    0    0    0  0.00000000000E+00  0.00000000000E+00  0.45593999997E+02  0.45594000000E+02  0.51100000000E-03 0. -1.
         11   -1    0    0    0    0 -0.00000000000E+00 -0.00000000000E+00 -0.45593999997E+02  0.45594000000E+02  0.51100000000E-03 0.  1.
         23    2    1    2    0    0  0.00000000000E+00  0.00000000000E+00  0.35527136788E-14  0.91188000000E+02  0.91188000000E+02 0.  0.
    9900012    2    3    3    0    0 -0.21115471267E+02 -0.33296710113E+02  0.18140822417E+02  0.47787268794E+02  0.19999989741E+02 0.  0.
        -12    1    3    3    0    0  0.21115471267E+02  0.33296710113E+02 -0.18140822417E+02  0.43400731206E+02  0.00000000000E+00 0.  1.
         11    1    4    4    0    0  0.75088578661E-01 -0.16497679347E+01  0.15975172216E+01  0.22977019100E+01  0.51100000000E-03 0. -1.
        -11    1    4    4    0    0 -0.40345325788E+01  0.19957698642E+01  0.78510436810E+00  0.45691289772E+01  0.51100000000E-03 0.  1.
        -12    1    4    4    0    0 -0.17156027267E+02 -0.33642712043E+02  0.15758200827E+02  0.40920437907E+02  0.00000000000E+00 0.  1.
</event>
<event>
 8    1  0.6469014E-010  0.9118800E+02  0.7816164E-02  0.1184000E+00
        -11   -1    0    0    0    0  0.00000000000E+00  0.00000000000E+00  0.45593999997E+02  0.45594000000E+02  0.51100000000E-03 0. -1.
         11   -1    0    0    0    0 -0.00000000000E+00 -0.00000000000E+00 -0.45593999997E+02  0.45594000000E+02  0.51100000000E-03 0.  1.
         23    2    1    2    0    0 -0.16653345369E-15  0.44408920985E-15  0.00000000000E+00  0.91188000000E+02  0.91188000000E+02 0.  0.
    9900012    2    3    3    0    0 -0.29627169500E+00  0.27066313602E+01  0.43315236546E+02  0.47787270199E+02  0.19999996145E+02 0.  0.
        -12    1    3    3    0    0  0.29627169500E+00 -0.27066313602E+01 -0.43315236546E+02  0.43400729801E+02  0.00000000000E+00 0.  1.
         11    1    4    4    0    0  0.36717918145E+01  0.18069250285E+01  0.44481797952E+01  0.60442813418E+01  0.51100000000E-03 0. -1.
        -11    1    4    4    0    0 -0.72937045890E+01 -0.45391662912E+01  0.18413088603E+02  0.20318562681E+02  0.51100000000E-03 0.  1.
        -12    1    4    4    0    0  0.33256410795E+01  0.54388726229E+01  0.20453968148E+02  0.21424426176E+02  0.00000000000E+00 0.  1.
</event>
<event>
 8    1  0.6469014E-010  0.9118800E+02  0.7816164E-02  0.1184000E+00
        -11   -1    0    0    0    0  0.00000000000E+00  0.00000000000E+00  0.45593999997E+02  0.45594000000E+02  0.51100000000E-03 0. -1.
         11   -1    0    0    0    0 -0.00000000000E+00 -0.00000000000E+00 -0.45593999997E+02  0.45594000000E+02  0.51100000000E-03 0.  1.
         23    2    1    2    0    0 -0.17763568394E-14 -0.17763568394E-14  0.00000000000E+00  0.91188000000E+02  0.91188000000E+02 0.  0.
    9900012    2    3    3    0    0 -0.97680241321E+01 -0.14661416147E+02 -0.39664233550E+02  0.47787276020E+02  0.20000022684E+02 0.  0.
         12    1    3    3    0    0  0.97680241321E+01  0.14661416147E+02  0.39664233550E+02  0.43400723980E+02  0.00000000000E+00 0. -1.
         11    1    4    4    0    0 -0.79016256896E+01 -0.53357774765E+01 -0.60568604979E+01  0.11295652667E+02  0.51100000000E-03 0. -1.
        -11    1    4    4    0    0  0.37889033791E+01 -0.12913445703E+01 -0.13989805718E+02  0.14551220701E+02  0.51100000000E-03 0.  1.
        -12    1    4    4    0    0 -0.56553018216E+01 -0.80342941006E+01 -0.19617567335E+02  0.21940402652E+02  0.00000000000E+00 0.  1.
</event>
<event>
 8    1  0.6469014E-010  0.9118800E+02  0.7816164E-02  0.1184000E+00
        -11   -1    0    0    0    0  0.00000000000E+00  0.00000000000E+00  0.45593999997E+02  0.45594000000E+02  0.51100000000E-03 0. -1.
         11   -1    0    0    0    0 -0.00000000000E+00 -0.00000000000E+00 -0.45593999997E+02  0.45594000000E+02  0.51100000000E-03 0.  1.
         23    2    1    2    0    0  0.00000000000E+00  0.00000000000E+00 -0.35527136788E-14  0.91188000000E+02  0.91188000000E+02 0.  0.
    9900012    2    3    3    0    0 -0.34321836846E+02 -0.13517974464E+02  0.22866985943E+02  0.47787272308E+02  0.20000005761E+02 0.  0.
        -12    1    3    3    0    0  0.34321836846E+02  0.13517974464E+02 -0.22866985943E+02  0.43400727692E+02  0.00000000000E+00 0.  1.
         11    1    4    4    0    0 -0.25050868123E+02 -0.15915733413E+02  0.14443444924E+02  0.33007115374E+02  0.51100000000E-03 0. -1.
        -11    1    4    4    0    0  0.67987654156E+00  0.42959358923E+00  0.33372055583E+01  0.34327429212E+01  0.51100000000E-03 0.  1.
         12    1    4    4    0    0 -0.99508452645E+01  0.19681653592E+01  0.50863354602E+01  0.11347414013E+02  0.00000000000E+00 0. -1.
</event>
<event>
 8    1  0.6469014E-010  0.9118800E+02  0.7816164E-02  0.1184000E+00
        -11   -1    0    0    0    0  0.00000000000E+00  0.00000000000E+00  0.45593999997E+02  0.45594000000E+02  0.51100000000E-03 0. -1.
         11   -1    0    0    0    0 -0.00000000000E+00 -0.00000000000E+00 -0.45593999997E+02  0.45594000000E+02  0.51100000000E-03 0.  1.
         23    2    1    2    0    0  0.00000000000E+00 -0.35527136788E-14  0.00000000000E+00  0.91188000000E+02  0.91188000000E+02 0.  0.
    9900012    2    3    3    0    0 -0.20668218037E+02 -0.28273639965E+02  0.25632984614E+02  0.47787264362E+02  0.19999969534E+02 0.  0.
        -12    1    3    3    0    0  0.20668218037E+02  0.28273639965E+02 -0.25632984614E+02  0.43400735638E+02  0.00000000000E+00 0.  1.
         11    1    4    4    0    0  0.26017963880E+00 -0.45691576162E+00  0.18105349781E+01  0.18853388623E+01  0.51100000000E-03 0. -1.
        -11    1    4    4    0    0 -0.18117203200E+02 -0.21240744247E+02  0.88130578918E+01  0.29275796447E+02  0.51100000000E-03 0.  1.
        -12    1    4    4    0    0 -0.28111944757E+01 -0.65759799566E+01  0.15009391744E+02  0.16626129053E+02  0.00000000000E+00 0.  1.
</event>
<event>
 8    1  0.6469014E-010  0.9118800E+02  0.7816164E-02  0.1184000E+00
        -11   -1    0    0    0    0  0.00000000000E+00  0.00000000000E+00  0.45593999997E+02  0.45594000000E+02  0.51100000000E-03 0. -1.
         11   -1    0    0    0    0 -0.00000000000E+00 -0.00000000000E+00 -0.45593999997E+02  0.45594000000E+02  0.51100000000E-03 0.  1.
         23    2    1    2    0    0  0.00000000000E+00  0.88817841970E-15  0.00000000000E+00  0.91188000000E+02  0.91188000000E+02 0.  0.
    9900012    2    3    3    0    0 -0.15014601017E+02 -0.48910275049E+01  0.40426018930E+02  0.47787269588E+02  0.19999993358E+02 0.  0.
        -12    1    3    3    0    0  0.15014601017E+02  0.48910275049E+01 -0.40426018930E+02  0.43400730412E+02  0.00000000000E+00 0.  1.
         11    1    4    4    0    0 -0.16710084547E+02 -0.55704199712E+01  0.36158336755E+02  0.40220415480E+02  0.51100000000E-03 0. -1.
        -11    1    4    4    0    0  0.26796888664E+01  0.18742622099E+01  0.49030513971E+01  0.58935137665E+01  0.51100000000E-03 0.  1.
        -12    1    4    4    0    0 -0.98420533708E+00 -0.11948697436E+01 -0.63536922187E+00  0.16733403413E+01  0.00000000000E+00 0.  1.
</event>
<event>
 8    1  0.6469014E-010  0.9118800E+02  0.7816164E-02  0.1184000E+00
        -11   -1    0    0    0    0  0.00000000000E+00  0.00000000000E+00  0.45593999997E+02  0.45594000000E+02  0.51100000000E-03 0. -1.
         11   -1    0    0    0    0 -0.00000000000E+00 -0.00000000000E+00 -0.45593999997E+02  0.45594000000E+02  0.51100000000E-03 0.  1.
         23    2    1    2    0    0  0.00000000000E+00  0.00000000000E+00  0.00000000000E+00  0.91188000000E+02  0.91188000000E+02 0.  0.
    9900012    2    3    3    0    0  0.15114874087E+02  0.77952092552E+00 -0.40676234657E+02  0.47787272617E+02  0.20000007169E+02 0.  0.
         12    1    3    3    0    0 -0.15114874087E+02 -0.77952092552E+00  0.40676234657E+02  0.43400727383E+02  0.00000000000E+00 0. -1.
         11    1    4    4    0    0  0.21933365287E+01 -0.65089193373E+01 -0.22469830567E+02  0.23496170795E+02  0.51100000000E-03 0. -1.
        -11    1    4    4    0    0  0.13050814882E+02  0.56612151031E+01 -0.14881931311E+02  0.20587496335E+02  0.51100000000E-03 0.  1.
        -12    1    4    4    0    0 -0.12927732330E+00  0.16272251597E+01 -0.33244727787E+01  0.37036054870E+01  0.00000000000E+00 0.  1.
</event>
<event>
 8    1  0.6469014E-010  0.9118800E+02  0.7816164E-02  0.1184000E+00
        -11   -1    0    0    0    0  0.00000000000E+00  0.00000000000E+00  0.45593999997E+02  0.45594000000E+02  0.51100000000E-03 0. -1.
         11   -1    0    0    0    0 -0.00000000000E+00 -0.00000000000E+00 -0.45593999997E+02  0.45594000000E+02  0.51100000000E-03 0.  1.
         23    2    1    2    0    0  0.00000000000E+00  0.44408920985E-15  0.00000000000E+00  0.91188000000E+02  0.91188000000E+02 0.  0.
    9900012    2    3    3    0    0 -0.21999137023E+02  0.20951775152E+01  0.37353329880E+02  0.47787273604E+02  0.20000011670E+02 0.  0.
        -12    1    3    3    0    0  0.21999137023E+02 -0.20951775152E+01 -0.37353329880E+02  0.43400726396E+02  0.00000000000E+00 0.  1.
         11    1    4    4    0    0 -0.14402200007E+02  0.19806214640E+01  0.27844651518E+02  0.31411317146E+02  0.51100000000E-03 0. -1.
        -11    1    4    4    0    0 -0.93674357274E+00  0.42449589706E+01  0.40839489262E+00  0.43662285594E+01  0.51100000000E-03 0.  1.
        -12    1    4    4    0    0 -0.66601934433E+01 -0.41304029195E+01  0.91002834691E+01  0.12009727899E+02  0.00000000000E+00 0.  1.
</event>
<event>
 8    1  0.6469014E-010  0.9118800E+02  0.7816164E-02  0.1184000E+00
        -11   -1    0    0    0    0  0.00000000000E+00  0.00000000000E+00  0.45593999997E+02  0.45594000000E+02  0.51100000000E-03 0. -1.
         11   -1    0    0    0    0 -0.00000000000E+00 -0.00000000000E+00 -0.45593999997E+02  0.45594000000E+02  0.51100000000E-03 0.  1.
         23    2    1    2    0    0  0.00000000000E+00  0.00000000000E+00  0.00000000000E+00  0.91188000000E+02  0.91188000000E+02 0.  0.
    9900012    2    3    3    0    0 -0.39508741051E+01 -0.33776129386E+02 -0.26966402501E+02  0.47787272053E+02  0.20000004597E+02 0.  0.
         12    1    3    3    0    0  0.39508741051E+01  0.33776129386E+02  0.26966402501E+02  0.43400727947E+02  0.00000000000E+00 0. -1.
         11    1    4    4    0    0 -0.39005351801E+01 -0.52853740046E+01 -0.13269181724E+02  0.14806097965E+02  0.51100000000E-03 0. -1.
        -11    1    4    4    0    0  0.12162428080E+01 -0.15005128415E+02 -0.12154718510E+02  0.19348651314E+02  0.51100000000E-03 0.  1.
         12    1    4    4    0    0 -0.12665817331E+01 -0.13485626966E+02 -0.15425022671E+01  0.13632522774E+02  0.00000000000E+00 0. -1.
</event>
<event>
 8    1  0.6469014E-010  0.9118800E+02  0.7816164E-02  0.1184000E+00
        -11   -1    0    0    0    0  0.00000000000E+00  0.00000000000E+00  0.45593999997E+02  0.45594000000E+02  0.51100000000E-03 0. -1.
         11   -1    0    0    0    0 -0.00000000000E+00 -0.00000000000E+00 -0.45593999997E+02  0.45594000000E+02  0.51100000000E-03 0.  1.
         23    2    1    2    0    0  0.35527136788E-14  0.00000000000E+00  0.00000000000E+00  0.91188000000E+02  0.91188000000E+02 0.  0.
    9900012    2    3    3    0    0 -0.18758319023E+02 -0.16582550374E+02  0.35450919103E+02  0.47787272186E+02  0.20000005206E+02 0.  0.
        -12    1    3    3    0    0  0.18758319023E+02  0.16582550374E+02 -0.35450919103E+02  0.43400727814E+02  0.00000000000E+00 0.  1.
         11    1    4    4    0    0 -0.92602013260E+01 -0.12012300895E+02  0.18647332135E+02  0.24036840420E+02  0.51100000000E-03 0. -1.
        -11    1    4    4    0    0 -0.26694706516E+01  0.25854995536E+01  0.12360666938E+02  0.12907244822E+02  0.51100000000E-03 0.  1.
        -12    1    4    4    0    0 -0.68286470457E+01 -0.71557490329E+01  0.44429200312E+01  0.10843186944E+02  0.00000000000E+00 0.  1.
</event>
<event>
 8    1  0.6469014E-010  0.9118800E+02  0.7816164E-02  0.1184000E+00
        -11   -1    0    0    0    0  0.00000000000E+00  0.00000000000E+00  0.45593999997E+02  0.45594000000E+02  0.51100000000E-03 0. -1.
         11   -1    0    0    0    0 -0.00000000000E+00 -0.00000000000E+00 -0.45593999997E+02  0.45594000000E+02  0.51100000000E-03 0.  1.
         23    2    1    2    0    0  0.00000000000E+00  0.00000000000E+00  0.00000000000E+00  0.91188000000E+02  0.91188000000E+02 0.  0.
    9900012    2    3    3    0    0 -0.22256363501E+02  0.61959202098E+01 -0.36740822275E+02  0.47787272299E+02  0.20000005719E+02 0.  0.
         12    1    3    3    0    0  0.22256363501E+02 -0.61959202098E+01  0.36740822275E+02  0.43400727701E+02  0.00000000000E+00 0. -1.
         11    1    4    4    0    0 -0.22085190927E+01 -0.20786955428E+01 -0.16241937720E+02  0.16522683586E+02  0.51100000000E-03 0. -1.
        -11    1    4    4    0    0 -0.70999922230E+01  0.24028308022E+01 -0.13446323611E+02  0.15394385481E+02  0.51100000000E-03 0.  1.
         12    1    4    4    0    0 -0.12947852186E+02  0.58717849505E+01 -0.70525609440E+01  0.15870203231E+02  0.00000000000E+00 0. -1.
</event>
<event>
 8    1  0.6469014E-010  0.9118800E+02  0.7816164E-02  0.1184000E+00
        -11   -1    0    0    0    0  0.00000000000E+00  0.00000000000E+00  0.45593999997E+02  0.45594000000E+02  0.51100000000E-03 0. -1.
         11   -1    0    0    0    0 -0.00000000000E+00 -0.00000000000E+00 -0.45593999997E+02  0.45594000000E+02  0.51100000000E-03 0.  1.
         23    2    1    2    0    0  0.35527136788E-14  0.00000000000E+00  0.00000000000E+00  0.91188000000E+02  0.91188000000E+02 0.  0.
    9900012    2    3    3    0    0  0.17603580197E+02 -0.23010498150E+02  0.32314925860E+02  0.47787268506E+02  0.19999988425E+02 0.  0.
        -12    1    3    3    0    0 -0.17603580197E+02  0.23010498150E+02 -0.32314925860E+02  0.43400731494E+02  0.00000000000E+00 0.  1.
         11    1    4    4    0    0  0.17820836236E+01 -0.12166092185E+02  0.12913701208E+02  0.17831245056E+02  0.51100000000E-03 0. -1.
        -11    1    4    4    0    0  0.47262802850E+01  0.24374085864E+01  0.29651596766E+01  0.60885842458E+01  0.51100000000E-03 0.  1.
         12    1    4    4    0    0  0.11095216289E+02 -0.13281814552E+02  0.16436064975E+02  0.23867439204E+02  0.00000000000E+00 0. -1.
</event>
<event>
 8    1  0.6469014E-010  0.9118800E+02  0.7816164E-02  0.1184000E+00
        -11   -1    0    0    0    0  0.00000000000E+00  0.00000000000E+00  0.45593999997E+02  0.45594000000E+02  0.51100000000E-03 0.  1.
         11   -1    0    0    0    0 -0.00000000000E+00 -0.00000000000E+00 -0.45593999997E+02  0.45594000000E+02  0.51100000000E-03 0. -1.
         23    2    1    2    0    0  0.17763568394E-14  0.00000000000E+00 -0.17763568394E-14  0.91188000000E+02  0.91188000000E+02 0.  0.
    9900012    2    3    3    0    0 -0.12939513474E+02  0.39777652364E+02  0.11572787998E+02  0.47787285046E+02  0.20000063837E+02 0.  0.
        -12    1    3    3    0    0  0.12939513474E+02 -0.39777652364E+02 -0.11572787998E+02  0.43400714954E+02  0.00000000000E+00 0.  1.
         11    1    4    4    0    0 -0.58103828628E+01  0.17119807330E+02  0.26960568193E+01  0.18278869622E+02  0.51100000000E-03 0. -1.
        -11    1    4    4    0    0 -0.77926419522E+01  0.11461302813E+02  0.11477103548E+02  0.17994739144E+02  0.51100000000E-03 0.  1.
        -12    1    4    4    0    0  0.66351134135E+00  0.11196542221E+02 -0.26003723691E+01  0.11513676280E+02  0.00000000000E+00 0.  1.
</event>
<event>
 8    1  0.6469014E-010  0.9118800E+02  0.7816164E-02  0.1184000E+00
        -11   -1    0    0    0    0  0.00000000000E+00  0.00000000000E+00  0.45593999997E+02  0.45594000000E+02  0.51100000000E-03 0. -1.
         11   -1    0    0    0    0 -0.00000000000E+00 -0.00000000000E+00 -0.45593999997E+02  0.45594000000E+02  0.51100000000E-03 0.  1.
         23    2    1    2    0    0  0.00000000000E+00  0.00000000000E+00  0.00000000000E+00  0.91188000000E+02  0.91188000000E+02 0.  0.
    9900012    2    3    3    0    0  0.72920323529E+01  0.21197510985E+02 -0.37163357594E+02  0.47787270105E+02  0.19999995718E+02 0.  0.
         12    1    3    3    0    0 -0.72920323529E+01 -0.21197510985E+02  0.37163357594E+02  0.43400729895E+02  0.00000000000E+00 0. -1.
         11    1    4    4    0    0  0.48697299083E+01  0.18071337906E+02 -0.27866156324E+02  0.33567993560E+02  0.51100000000E-03 0. -1.
        -11    1    4    4    0    0  0.51729099606E+01  0.22627745005E+00 -0.87745143245E+01  0.10188341417E+02  0.51100000000E-03 0.  1.
         12    1    4    4    0    0 -0.27506075160E+01  0.28998956281E+01 -0.52268694474E+00  0.40309351277E+01  0.00000000000E+00 0. -1.
</event>
<event>
 8    1  0.6469014E-010  0.9118800E+02  0.7816164E-02  0.1184000E+00
        -11   -1    0    0    0    0  0.00000000000E+00  0.00000000000E+00  0.45593999997E+02  0.45594000000E+02  0.51100000000E-03 0. -1.
         11   -1    0    0    0    0 -0.00000000000E+00 -0.00000000000E+00 -0.45593999997E+02  0.45594000000E+02  0.51100000000E-03 0.  1.
         23    2    1    2    0    0  0.00000000000E+00  0.00000000000E+00  0.00000000000E+00  0.91188000000E+02  0.91188000000E+02 0.  0.
    9900012    2    3    3    0    0  0.16851268412E+02 -0.12060108536E+02  0.38134128828E+02  0.47787271361E+02  0.20000001441E+02 0.  0.
        -12    1    3    3    0    0 -0.16851268412E+02  0.12060108536E+02 -0.38134128828E+02  0.43400728639E+02  0.00000000000E+00 0.  1.
         11    1    4    4    0    0 -0.43889395384E+00 -0.50796740779E+01  0.67812250753E+01  0.84841458276E+01  0.51100000000E-03 0. -1.
        -11    1    4    4    0    0  0.95484634163E+01  0.35556173892E+01  0.17533095749E+02  0.20278683770E+02  0.51100000000E-03 0.  1.
        -12    1    4    4    0    0  0.77416989494E+01 -0.10536051847E+02  0.13819808004E+02  0.19024441763E+02  0.00000000000E+00 0.  1.
</event>
<event>
 8    1  0.6469014E-010  0.9118800E+02  0.7816164E-02  0.1184000E+00
        -11   -1    0    0    0    0  0.00000000000E+00  0.00000000000E+00  0.45593999997E+02  0.45594000000E+02  0.51100000000E-03 0. -1.
         11   -1    0    0    0    0 -0.00000000000E+00 -0.00000000000E+00 -0.45593999997E+02  0.45594000000E+02  0.51100000000E-03 0.  1.
         23    2    1    2    0    0  0.00000000000E+00 -0.35527136788E-14  0.00000000000E+00  0.91188000000E+02  0.91188000000E+02 0.  0.
    9900012    2    3    3    0    0 -0.21566223056E+02  0.16299054162E+02  0.33953815716E+02  0.47787277135E+02  0.20000027771E+02 0.  0.
        -12    1    3    3    0    0  0.21566223056E+02 -0.16299054162E+02 -0.33953815716E+02  0.43400722865E+02  0.00000000000E+00 0.  1.
         11    1    4    4    0    0 -0.15252055717E+02  0.77822199549E+01  0.18337893359E+02  0.25089170655E+02  0.51100000000E-03 0. -1.
        -11    1    4    4    0    0 -0.26165599214E+01  0.51700440430E+01 -0.51164290181E+00  0.58170026602E+01  0.51100000000E-03 0.  1.
        -12    1    4    4    0    0 -0.36976074168E+01  0.33467901641E+01  0.16127565259E+02  0.16881103820E+02  0.00000000000E+00 0.  1.
</event>
<event>
 8    1  0.6469014E-010  0.9118800E+02  0.7816164E-02  0.1184000E+00
        -11   -1    0    0    0    0  0.00000000000E+00  0.00000000000E+00  0.45593999997E+02  0.45594000000E+02  0.51100000000E-03 0. -1.
         11   -1    0    0    0    0 -0.00000000000E+00 -0.00000000000E+00 -0.45593999997E+02  0.45594000000E+02  0.51100000000E-03 0.  1.
         23    2    1    2    0    0  0.00000000000E+00 -0.17763568394E-14  0.71054273576E-14  0.91188000000E+02  0.91188000000E+02 0.  0.
    9900012    2    3    3    0    0 -0.17843427949E+02 -0.15104296313E+02  0.36566314779E+02  0.47787273456E+02  0.20000010994E+02 0.  0.
        -12    1    3    3    0    0  0.17843427949E+02  0.15104296313E+02 -0.36566314779E+02  0.43400726544E+02  0.00000000000E+00 0.  1.
         11    1    4    4    0    0 -0.91133037540E+01 -0.15536093705E+02  0.27867223306E+02  0.33181390086E+02  0.51100000000E-03 0. -1.
        -11    1    4    4    0    0 -0.65297695721E+01  0.12302528869E+00  0.10178906554E+01  0.66097751500E+01  0.51100000000E-03 0.  1.
         12    1    4    4    0    0 -0.22003546231E+01  0.30877210411E+00  0.76812008168E+01  0.79961082201E+01  0.00000000000E+00 0. -1.
</event>
<event>
 8    1  0.6469014E-010  0.9118800E+02  0.7816164E-02  0.1184000E+00
        -11   -1    0    0    0    0  0.00000000000E+00  0.00000000000E+00  0.45593999997E+02  0.45594000000E+02  0.51100000000E-03 0.  1.
         11   -1    0    0    0    0 -0.00000000000E+00 -0.00000000000E+00 -0.45593999997E+02  0.45594000000E+02  0.51100000000E-03 0. -1.
         23    2    1    2    0    0  0.00000000000E+00  0.00000000000E+00  0.35527136788E-14  0.91188000000E+02  0.91188000000E+02 0.  0.
    9900012    2    3    3    0    0 -0.37227051920E+02 -0.12895779266E+02  0.18206306112E+02  0.47787261530E+02  0.19999956621E+02 0.  0.
        -12    1    3    3    0    0  0.37227051920E+02  0.12895779266E+02 -0.18206306112E+02  0.43400738470E+02  0.00000000000E+00 0.  1.
         11    1    4    4    0    0 -0.25945794116E+02 -0.63425335693E+01  0.10787272911E+02  0.28805853945E+02  0.51100000000E-03 0. -1.
        -11    1    4    4    0    0  0.91217164577E+00  0.90487789537E+00 -0.16215038290E+01  0.20688489663E+01  0.51100000000E-03 0.  1.
        -12    1    4    4    0    0 -0.12193429449E+02 -0.74581235917E+01  0.90405370299E+01  0.16912558619E+02  0.00000000000E+00 0.  1.
</event>
<event>
 8    1  0.6469014E-010  0.9118800E+02  0.7816164E-02  0.1184000E+00
        -11   -1    0    0    0    0  0.00000000000E+00  0.00000000000E+00  0.45593999997E+02  0.45594000000E+02  0.51100000000E-03 0.  1.
         11   -1    0    0    0    0 -0.00000000000E+00 -0.00000000000E+00 -0.45593999997E+02  0.45594000000E+02  0.51100000000E-03 0. -1.
         23    2    1    2    0    0  0.71054273576E-14  0.00000000000E+00 -0.88817841970E-15  0.91188000000E+02  0.91188000000E+02 0.  0.
    9900012    2    3    3    0    0  0.42166284027E+02 -0.94612042565E+01  0.40143471264E+01  0.47787252571E+02  0.19999915770E+02 0.  0.
         12    1    3    3    0    0 -0.42166284027E+02  0.94612042565E+01 -0.40143471264E+01  0.43400747429E+02  0.00000000000E+00 0. -1.
         11    1    4    4    0    0  0.47047683467E+01  0.18549276048E+01 -0.47194824721E+01  0.69173055940E+01  0.51100000000E-03 0. -1.
        -11    1    4    4    0    0  0.19297347713E+02 -0.18050765297E+01  0.51660152930E+01  0.20058256262E+02  0.51100000000E-03 0.  1.
         12    1    4    4    0    0  0.18164167967E+02 -0.95110553316E+01  0.35678143055E+01  0.20811690714E+02  0.00000000000E+00 0. -1.
</event>
<event>
 8    1  0.6469014E-010  0.9118800E+02  0.7816164E-02  0.1184000E+00
        -11   -1    0    0    0    0  0.00000000000E+00  0.00000000000E+00  0.45593999997E+02  0.45594000000E+02  0.51100000000E-03 0. -1.
         11   -1    0    0    0    0 -0.00000000000E+00 -0.00000000000E+00 -0.45593999997E+02  0.45594000000E+02  0.51100000000E-03 0.  1.
         23    2    1    2    0    0 -0.35527136788E-14  0.71054273576E-14  0.00000000000E+00  0.91188000000E+02  0.91188000000E+02 0.  0.
    9900012    2    3    3    0    0 -0.18771583465E+02  0.36156800351E+02  0.14964511875E+02  0.47787272206E+02  0.20000005297E+02 0.  0.
        -12    1    3    3    0    0  0.18771583465E+02 -0.36156800351E+02 -0.14964511875E+02  0.43400727794E+02  0.00000000000E+00 0.  1.
         11    1    4    4    0    0 -0.16855729392E+02  0.35535993324E+02  0.84342192129E+01  0.40225097748E+02  0.51100000000E-03 0. -1.
        -11    1    4    4    0    0  0.76928666523E+00  0.17300760069E+00  0.30131600627E+01  0.31146215545E+01  0.51100000000E-03 0.  1.
         12    1    4    4    0    0 -0.26851407385E+01  0.44779942617E+00  0.35171325992E+01  0.44475529038E+01  0.00000000000E+00 0. -1.
</event>
<event>
 8    1  0.6469014E-010  0.9118800E+02  0.7816164E-02  0.1184000E+00
        -11   -1    0    0    0    0  0.00000000000E+00  0.00000000000E+00  0.45593999997E+02  0.45594000000E+02  0.51100000000E-03 0.  1.
         11   -1    0    0    0    0 -0.00000000000E+00 -0.00000000000E+00 -0.45593999997E+02  0.45594000000E+02  0.51100000000E-03 0. -1.
         23    2    1    2    0    0  0.00000000000E+00 -0.88817841970E-15  0.00000000000E+00  0.91188000000E+02  0.91188000000E+02 0.  0.
    9900012    2    3    3    0    0  0.42206726483E+02  0.58474421813E+01 -0.82475976699E+01  0.47787271806E+02  0.20000003471E+02 0.  0.
        -12    1    3    3    0    0 -0.42206726483E+02 -0.58474421813E+01  0.82475976699E+01  0.43400728194E+02  0.00000000000E+00 0.  1.
         11    1    4    4    0    0  0.36513663172E+02  0.12204770262E+02 -0.63450057942E+01  0.39018753366E+02  0.51100000000E-03 0. -1.
        -11    1    4    4    0    0  0.22667305795E+01 -0.27116045648E+01 -0.10998493178E+01  0.37014234584E+01  0.51100000000E-03 0.  1.
         12    1    4    4    0    0  0.34263327312E+01 -0.36457235160E+01 -0.80274255787E+00  0.50670949818E+01  0.00000000000E+00 0. -1.
</event>
<event>
 8    1  0.6469014E-010  0.9118800E+02  0.7816164E-02  0.1184000E+00
        -11   -1    0    0    0    0  0.00000000000E+00  0.00000000000E+00  0.45593999997E+02  0.45594000000E+02  0.51100000000E-03 0. -1.
         11   -1    0    0    0    0 -0.00000000000E+00 -0.00000000000E+00 -0.45593999997E+02  0.45594000000E+02  0.51100000000E-03 0.  1.
         23    2    1    2    0    0  0.00000000000E+00  0.00000000000E+00  0.00000000000E+00  0.91188000000E+02  0.91188000000E+02 0.  0.
    9900012    2    3    3    0    0  0.21532362607E+02 -0.17392759887E+02 -0.33428672546E+02  0.47787229452E+02  0.19999810363E+02 0.  0.
         12    1    3    3    0    0 -0.21532362607E+02  0.17392759887E+02  0.33428672546E+02  0.43400770548E+02  0.00000000000E+00 0. -1.
         11    1    4    4    0    0  0.11837130994E+02 -0.43987635142E+01 -0.35592961021E+01  0.13120037333E+02  0.51100000000E-03 0. -1.
        -11    1    4    4    0    0  0.69543087751E+01 -0.11888571945E+02 -0.19422945500E+02  0.23810740551E+02  0.51100000000E-03 0.  1.
         12    1    4    4    0    0  0.27409228382E+01 -0.11054244280E+01 -0.10446430944E+02  0.10856451568E+02  0.00000000000E+00 0. -1.
</event>
<event>
 8    1  0.6469014E-010  0.9118800E+02  0.7816164E-02  0.1184000E+00
        -11   -1    0    0    0    0  0.00000000000E+00  0.00000000000E+00  0.45593999997E+02  0.45594000000E+02  0.51100000000E-03 0. -1.
         11   -1    0    0    0    0 -0.00000000000E+00 -0.00000000000E+00 -0.45593999997E+02  0.45594000000E+02  0.51100000000E-03 0.  1.
         23    2    1    2    0    0  0.00000000000E+00  0.00000000000E+00  0.71054273576E-14  0.91188000000E+02  0.91188000000E+02 0.  0.
    9900012    2    3    3    0    0 -0.13307269755E+02  0.44909263298E+01  0.41065452691E+02  0.47787271292E+02  0.20000001130E+02 0.  0.
        -12    1    3    3    0    0  0.13307269755E+02 -0.44909263298E+01 -0.41065452691E+02  0.43400728708E+02  0.00000000000E+00 0.  1.
         11    1    4    4    0    0  0.12152924563E+01  0.47243449642E+01  0.99333733574E+01  0.11066538646E+02  0.51100000000E-03 0. -1.
        -11    1    4    4    0    0 -0.13250319410E+02 -0.33763401913E+01  0.30280637837E+02  0.33224804975E+02  0.51100000000E-03 0.  1.
        -12    1    4    4    0    0 -0.12722428009E+01  0.31429215569E+01  0.85144149693E+00  0.34959276709E+01  0.00000000000E+00 0.  1.
</event>
<event>
 8    1  0.7007617E-010  0.9118800E+02  0.7816164E-02  0.1184000E+00
        -11   -1    0    0    0    0  0.00000000000E+00  0.00000000000E+00  0.45593999997E+02  0.45594000000E+02  0.51100000000E-03 0. -1.
         11   -1    0    0    0    0 -0.00000000000E+00 -0.00000000000E+00 -0.45593999997E+02  0.45594000000E+02  0.51100000000E-03 0.  1.
         23    2    1    2    0    0 -0.26645352591E-14  0.00000000000E+00  0.00000000000E+00  0.91188000000E+02  0.91188000000E+02 0.  0.
    9900012    2    3    3    0    0 -0.47012886456E+01  0.21127863093E+02 -0.37618275923E+02  0.47787269623E+02  0.19999993521E+02 0.  0.
         12    1    3    3    0    0  0.47012886456E+01 -0.21127863093E+02  0.37618275923E+02  0.43400730377E+02  0.00000000000E+00 0. -1.
         11    1    4    4    0    0  0.31402469782E+01  0.23638438413E+01 -0.14176944478E+02  0.14711718587E+02  0.51100000000E-03 0.  1.
        -11    1    4    4    0    0 -0.93072923533E+01  0.14577487602E+02 -0.22763179120E+02  0.28588304596E+02  0.51100000000E-03 0. -1.
         12    1    4    4    0    0  0.14657567295E+01  0.41865316499E+01 -0.67815232485E+00  0.44872464409E+01  0.00000000000E+00 0. -1.
</event>
<event>
 8    1  0.6469014E-010  0.9118800E+02  0.7816164E-02  0.1184000E+00
        -11   -1    0    0    0    0  0.00000000000E+00  0.00000000000E+00  0.45593999997E+02  0.45594000000E+02  0.51100000000E-03 0. -1.
         11   -1    0    0    0    0 -0.00000000000E+00 -0.00000000000E+00 -0.45593999997E+02  0.45594000000E+02  0.51100000000E-03 0.  1.
         23    2    1    2    0    0 -0.44408920985E-15  0.00000000000E+00  0.00000000000E+00  0.91188000000E+02  0.91188000000E+02 0.  0.
    9900012    2    3    3    0    0 -0.33030986200E+01 -0.31375739760E+01 -0.43160959026E+02  0.47787271723E+02  0.20000003095E+02 0.  0.
         12    1    3    3    0    0  0.33030986200E+01  0.31375739760E+01  0.43160959026E+02  0.43400728277E+02  0.00000000000E+00 0. -1.
         11    1    4    4    0    0  0.55763677399E+01  0.89280152956E+00 -0.23674779292E+02  0.24339025176E+02  0.51100000000E-03 0. -1.
        -11    1    4    4    0    0 -0.10337358817E+02 -0.40487871769E+01 -0.18808058250E+02  0.21840254585E+02  0.51100000000E-03 0.  1.
        -12    1    4    4    0    0  0.14578924568E+01  0.18411671284E-01 -0.67812148321E+00  0.16079919624E+01  0.00000000000E+00 0.  1.
</event>
<event>
 8    1  0.6469014E-010  0.9118800E+02  0.7816164E-02  0.1184000E+00
        -11   -1    0    0    0    0  0.00000000000E+00  0.00000000000E+00  0.45593999997E+02  0.45594000000E+02  0.51100000000E-03 0. -1.
         11   -1    0    0    0    0 -0.00000000000E+00 -0.00000000000E+00 -0.45593999997E+02  0.45594000000E+02  0.51100000000E-03 0.  1.
         23    2    1    2    0    0  0.00000000000E+00  0.11657341759E-14  0.00000000000E+00  0.91188000000E+02  0.91188000000E+02 0.  0.
    9900012    2    3    3    0    0  0.17314580783E+02 -0.30729618786E+00 -0.39796148166E+02  0.47787279413E+02  0.20000038155E+02 0.  0.
         12    1    3    3    0    0 -0.17314580783E+02  0.30729618786E+00  0.39796148166E+02  0.43400720587E+02  0.00000000000E+00 0. -1.
         11    1    4    4    0    0  0.64227240497E+01  0.68823895077E+01 -0.10786652644E+02  0.14316792416E+02  0.51100000000E-03 0. -1.
        -11    1    4    4    0    0  0.12458962684E+02 -0.67103029359E+01 -0.21187737285E+02  0.25478895741E+02  0.51100000000E-03 0.  1.
        -12    1    4    4    0    0 -0.15671059505E+01 -0.47938275959E+00 -0.78217582363E+01  0.79915912556E+01  0.00000000000E+00 0.  1.
</event>
<event>
 8    1  0.6469014E-010  0.9118800E+02  0.7816164E-02  0.1184000E+00
        -11   -1    0    0    0    0  0.00000000000E+00  0.00000000000E+00  0.45593999997E+02  0.45594000000E+02  0.51100000000E-03 0. -1.
         11   -1    0    0    0    0 -0.00000000000E+00 -0.00000000000E+00 -0.45593999997E+02  0.45594000000E+02  0.51100000000E-03 0.  1.
         23    2    1    2    0    0 -0.71054273576E-14  0.88817841970E-15  0.35527136788E-14  0.91188000000E+02  0.91188000000E+02 0.  0.
    9900012    2    3    3    0    0  0.37250427722E+02 -0.42454792019E+01 -0.21863319240E+02  0.47787272042E+02  0.20000004546E+02 0.  0.
         12    1    3    3    0    0 -0.37250427722E+02  0.42454792019E+01  0.21863319240E+02  0.43400727958E+02  0.00000000000E+00 0. -1.
         11    1    4    4    0    0  0.34676219924E+00 -0.46563047487E+01 -0.17005179658E+01  0.49692232340E+01  0.51100000000E-03 0. -1.
        -11    1    4    4    0    0  0.22968247146E+02  0.39502701238E+01 -0.11021094262E+02  0.25780021917E+02  0.51100000000E-03 0.  1.
         12    1    4    4    0    0  0.13935418377E+02 -0.35394445770E+01 -0.91417070115E+01  0.17038026891E+02  0.00000000000E+00 0. -1.
</event>
<event>
 8    1  0.6990499E-010  0.9118800E+02  0.7816164E-02  0.1184000E+00
        -11   -1    0    0    0    0  0.00000000000E+00  0.00000000000E+00  0.45593999997E+02  0.45594000000E+02  0.51100000000E-03 0. -1.
         11   -1    0    0    0    0 -0.00000000000E+00 -0.00000000000E+00 -0.45593999997E+02  0.45594000000E+02  0.51100000000E-03 0.  1.
         23    2    1    2    0    0  0.00000000000E+00  0.00000000000E+00  0.00000000000E+00  0.91188000000E+02  0.91188000000E+02 0.  0.
    9900012    2    3    3    0    0  0.28846864333E+02  0.13645402086E+02 -0.29415723750E+02  0.47787269780E+02  0.19999994234E+02 0.  0.
         12    1    3    3    0    0 -0.28846864333E+02 -0.13645402086E+02  0.29415723750E+02  0.43400730220E+02  0.00000000000E+00 0. -1.
         11    1    4    4    0    0  0.14036030048E+02  0.12879461575E+00 -0.15726723572E+02  0.21079766653E+02  0.51100000000E-03 0. -1.
        -11    1    4    4    0    0  0.63265189849E+01  0.36126563084E+01 -0.11306660266E+02  0.13450527674E+02  0.51100000000E-03 0.  1.
         12    1    4    4    0    0  0.84843152998E+01  0.99039511615E+01 -0.23823399118E+01  0.13256975453E+02  0.00000000000E+00 0. -1.
</event>
<event>
 8    1  0.6469014E-010  0.9118800E+02  0.7816164E-02  0.1184000E+00
        -11   -1    0    0    0    0  0.00000000000E+00  0.00000000000E+00  0.45593999997E+02  0.45594000000E+02  0.51100000000E-03 0. -1.
         11   -1    0    0    0    0 -0.00000000000E+00 -0.00000000000E+00 -0.45593999997E+02  0.45594000000E+02  0.51100000000E-03 0.  1.
         23    2    1    2    0    0  0.00000000000E+00 -0.88817841970E-15  0.00000000000E+00  0.91188000000E+02  0.91188000000E+02 0.  0.
    9900012    2    3    3    0    0 -0.22573819640E+02 -0.40819888586E+01  0.36842684076E+02  0.47787270328E+02  0.19999996733E+02 0.  0.
        -12    1    3    3    0    0  0.22573819640E+02  0.40819888586E+01 -0.36842684076E+02  0.43400729672E+02  0.00000000000E+00 0.  1.
         11    1    4    4    0    0 -0.43331410742E+01  0.14661410598E+01  0.15934662496E+02  0.16578273441E+02  0.51100000000E-03 0. -1.
        -11    1    4    4    0    0 -0.91271910555E+01 -0.40042771612E+01  0.20043610675E+01  0.10166480005E+02  0.51100000000E-03 0.  1.
        -12    1    4    4    0    0 -0.91134875100E+01 -0.15438527573E+01  0.18903660512E+02  0.21042516881E+02  0.00000000000E+00 0.  1.
</event>
<event>
 8    1  0.6469014E-010  0.9118800E+02  0.7816164E-02  0.1184000E+00
        -11   -1    0    0    0    0  0.00000000000E+00  0.00000000000E+00  0.45593999997E+02  0.45594000000E+02  0.51100000000E-03 0. -1.
         11   -1    0    0    0    0 -0.00000000000E+00 -0.00000000000E+00 -0.45593999997E+02  0.45594000000E+02  0.51100000000E-03 0.  1.
         23    2    1    2    0    0  0.35527136788E-14  0.00000000000E+00  0.00000000000E+00  0.91188000000E+02  0.91188000000E+02 0.  0.
    9900012    2    3    3    0    0  0.19380209936E+02 -0.12642772837E+02  0.36717697631E+02  0.47787290772E+02  0.20000089946E+02 0.  0.
        -12    1    3    3    0    0 -0.19380209936E+02  0.12642772837E+02 -0.36717697631E+02  0.43400709228E+02  0.00000000000E+00 0.  1.
         11    1    4    4    0    0  0.14840865997E+02 -0.36205797887E+01  0.13163803335E+02  0.20165456108E+02  0.51100000000E-03 0. -1.
        -11    1    4    4    0    0  0.99387396929E+00 -0.99201572395E+01  0.12562375955E+02  0.16037786475E+02  0.51100000000E-03 0.  1.
        -12    1    4    4    0    0  0.35454699692E+01  0.89796419115E+00  0.10991518341E+02  0.11584048189E+02  0.00000000000E+00 0.  1.
</event>
<event>
 8    1  0.6469014E-010  0.9118800E+02  0.7816164E-02  0.1184000E+00
        -11   -1    0    0    0    0  0.00000000000E+00  0.00000000000E+00  0.45593999997E+02  0.45594000000E+02  0.51100000000E-03 0. -1.
         11   -1    0    0    0    0 -0.00000000000E+00 -0.00000000000E+00 -0.45593999997E+02  0.45594000000E+02  0.51100000000E-03 0.  1.
         23    2    1    2    0    0  0.88817841970E-15  0.35527136788E-14 -0.35527136788E-14  0.91188000000E+02  0.91188000000E+02 0.  0.
    9900012    2    3    3    0    0  0.67738433562E+01  0.31521833185E+02 -0.29053615322E+02  0.47787268619E+02  0.19999988940E+02 0.  0.
         12    1    3    3    0    0 -0.67738433562E+01 -0.31521833185E+02  0.29053615322E+02  0.43400731381E+02  0.00000000000E+00 0. -1.
         11    1    4    4    0    0  0.10173351411E+02  0.12796698584E+02 -0.58145676003E+01  0.17351131670E+02  0.51100000000E-03 0. -1.
        -11    1    4    4    0    0 -0.28379345601E+01  0.39299930849E+01 -0.58837966864E+01  0.76235019461E+01  0.51100000000E-03 0.  1.
         12    1    4    4    0    0 -0.56157349444E+00  0.14795141515E+02 -0.17355251036E+02  0.22812635003E+02  0.00000000000E+00 0. -1.
</event>
<event>
 8    1  0.6469014E-010  0.9118800E+02  0.7816164E-02  0.1184000E+00
        -11   -1    0    0    0    0  0.00000000000E+00  0.00000000000E+00  0.45593999997E+02  0.45594000000E+02  0.51100000000E-03 0. -1.
         11   -1    0    0    0    0 -0.00000000000E+00 -0.00000000000E+00 -0.45593999997E+02  0.45594000000E+02  0.51100000000E-03 0.  1.
         23    2    1    2    0    0  0.00000000000E+00 -0.17763568394E-14 -0.35527136788E-14  0.91188000000E+02  0.91188000000E+02 0.  0.
    9900012    2    3    3    0    0  0.29117089121E+02  0.14883735232E+02  0.28535815333E+02  0.47787271780E+02  0.20000003353E+02 0.  0.
        -12    1    3    3    0    0 -0.29117089121E+02 -0.14883735232E+02 -0.28535815333E+02  0.43400728220E+02  0.00000000000E+00 0.  1.
         11    1    4    4    0    0  0.82785403334E+01  0.38950797759E+01  0.15897335001E+02  0.18342059233E+02  0.51100000000E-03 0. -1.
        -11    1    4    4    0    0  0.16948085877E+02  0.26546324944E+01  0.62987448314E+01  0.18274541726E+02  0.51100000000E-03 0.  1.
        -12    1    4    4    0    0  0.38904629111E+01  0.83340229612E+01  0.63397355003E+01  0.11170670821E+02  0.00000000000E+00 0.  1.
</event>
<event>
 8    1  0.6469014E-010  0.9118800E+02  0.7816164E-02  0.1184000E+00
        -11   -1    0    0    0    0  0.00000000000E+00  0.00000000000E+00  0.45593999997E+02  0.45594000000E+02  0.51100000000E-03 0. -1.
         11   -1    0    0    0    0 -0.00000000000E+00 -0.00000000000E+00 -0.45593999997E+02  0.45594000000E+02  0.51100000000E-03 0.  1.
         23    2    1    2    0    0  0.00000000000E+00  0.35527136788E-14 -0.35527136788E-14  0.91188000000E+02  0.91188000000E+02 0.  0.
    9900012    2    3    3    0    0  0.20575188291E+02  0.25612194696E+02 -0.28360210311E+02  0.47787257849E+02  0.19999939837E+02 0.  0.
         12    1    3    3    0    0 -0.20575188291E+02 -0.25612194696E+02  0.28360210311E+02  0.43400742151E+02  0.00000000000E+00 0. -1.
         11    1    4    4    0    0  0.13260516212E+00  0.14946743170E+01 -0.40882410837E+01  0.43549226012E+01  0.51100000000E-03 0. -1.
        -11    1    4    4    0    0  0.23280758040E+01  0.71415806762E+01 -0.15283283194E+02  0.17029411527E+02  0.51100000000E-03 0.  1.
        -12    1    4    4    0    0  0.18114507325E+02  0.16975939703E+02 -0.89886860334E+01  0.26402923721E+02  0.00000000000E+00 0.  1.
</event>
<event>
 8    1  0.6469014E-010  0.9118800E+02  0.7816164E-02  0.1184000E+00
        -11   -1    0    0    0    0  0.00000000000E+00  0.00000000000E+00  0.45593999997E+02  0.45594000000E+02  0.51100000000E-03 0. -1.
         11   -1    0    0    0    0 -0.00000000000E+00 -0.00000000000E+00 -0.45593999997E+02  0.45594000000E+02  0.51100000000E-03 0.  1.
         23    2    1    2    0    0  0.00000000000E+00  0.00000000000E+00 -0.35527136788E-14  0.91188000000E+02  0.91188000000E+02 0.  0.
    9900012    2    3    3    0    0 -0.27868702360E+02 -0.11199489144E+02  0.31329377718E+02  0.47787273779E+02  0.20000012467E+02 0.  0.
        -12    1    3    3    0    0  0.27868702360E+02  0.11199489144E+02 -0.31329377718E+02  0.43400726221E+02  0.00000000000E+00 0.  1.
         11    1    4    4    0    0  0.26523381346E+00 -0.14211911014E+01  0.18989915691E+01  0.23866927668E+01  0.51100000000E-03 0. -1.
        -11    1    4    4    0    0 -0.13382921892E+02 -0.78908000570E+01  0.25761209403E+02  0.30083338147E+02  0.51100000000E-03 0.  1.
        -12    1    4    4    0    0 -0.14751014282E+02 -0.18874979854E+01  0.36691767457E+01  0.15317242865E+02  0.00000000000E+00 0.  1.
</event>
<event>
 8    1  0.6469014E-010  0.9118800E+02  0.7816164E-02  0.1184000E+00
        -11   -1    0    0    0    0  0.00000000000E+00  0.00000000000E+00  0.45593999997E+02  0.45594000000E+02  0.51100000000E-03 0. -1.
         11   -1    0    0    0    0 -0.00000000000E+00 -0.00000000000E+00 -0.45593999997E+02  0.45594000000E+02  0.51100000000E-03 0.  1.
         23    2    1    2    0    0  0.00000000000E+00  0.00000000000E+00  0.00000000000E+00  0.91188000000E+02  0.91188000000E+02 0.  0.
    9900012    2    3    3    0    0 -0.31228259051E+02  0.16246567596E+02 -0.25386388015E+02  0.47787264770E+02  0.19999971393E+02 0.  0.
         12    1    3    3    0    0  0.31228259051E+02 -0.16246567596E+02  0.25386388015E+02  0.43400735230E+02  0.00000000000E+00 0. -1.
         11    1    4    4    0    0 -0.22946560002E+02  0.31090788099E+01 -0.96406146487E+01  0.25082911275E+02  0.51100000000E-03 0. -1.
        -11    1    4    4    0    0 -0.41104411272E+01  0.74079355020E+01 -0.50165506568E+01  0.98457612918E+01  0.51100000000E-03 0.  1.
         12    1    4    4    0    0 -0.41712579216E+01  0.57295532843E+01 -0.10729222710E+02  0.12858592203E+02  0.00000000000E+00 0. -1.
</event>
<event>
 8    1  0.6469014E-010  0.9118800E+02  0.7816164E-02  0.1184000E+00
        -11   -1    0    0    0    0  0.00000000000E+00  0.00000000000E+00  0.45593999997E+02  0.45594000000E+02  0.51100000000E-03 0. -1.
         11   -1    0    0    0    0 -0.00000000000E+00 -0.00000000000E+00 -0.45593999997E+02  0.45594000000E+02  0.51100000000E-03 0.  1.
         23    2    1    2    0    0  0.00000000000E+00  0.00000000000E+00 -0.71054273576E-14  0.91188000000E+02  0.91188000000E+02 0.  0.
    9900012    2    3    3    0    0  0.24682983057E+02  0.11687170742E+02  0.33731044849E+02  0.47787274209E+02  0.20000014430E+02 0.  0.
        -12    1    3    3    0    0 -0.24682983057E+02 -0.11687170742E+02 -0.33731044849E+02  0.43400725791E+02  0.00000000000E+00 0.  1.
         11    1    4    4    0    0  0.11242230454E+02 -0.23333765114E+01  0.52513010404E+01  0.12625710055E+02  0.51100000000E-03 0. -1.
        -11    1    4    4    0    0  0.42214141950E+01  0.52494490933E+01  0.15899739914E+02  0.17267854041E+02  0.51100000000E-03 0.  1.
         12    1    4    4    0    0  0.92193384080E+01  0.87710981601E+01  0.12580003894E+02  0.17893710113E+02  0.00000000000E+00 0. -1.
</event>
<event>
 8    1  0.6469014E-010  0.9118800E+02  0.7816164E-02  0.1184000E+00
        -11   -1    0    0    0    0  0.00000000000E+00  0.00000000000E+00  0.45593999997E+02  0.45594000000E+02  0.51100000000E-03 0. -1.
         11   -1    0    0    0    0 -0.00000000000E+00 -0.00000000000E+00 -0.45593999997E+02  0.45594000000E+02  0.51100000000E-03 0.  1.
         23    2    1    2    0    0  0.35527136788E-14  0.00000000000E+00  0.00000000000E+00  0.91188000000E+02  0.91188000000E+02 0.  0.
    9900012    2    3    3    0    0 -0.27242552527E+02  0.17018009426E+02  0.29186535983E+02  0.47787271946E+02  0.20000004109E+02 0.  0.
        -12    1    3    3    0    0  0.27242552527E+02 -0.17018009426E+02 -0.29186535983E+02  0.43400728054E+02  0.00000000000E+00 0.  1.
         11    1    4    4    0    0 -0.15058136328E+02  0.23316864004E+01  0.19052654878E+02  0.24396472887E+02  0.51100000000E-03 0. -1.
        -11    1    4    4    0    0 -0.28252885323E+01  0.68351876105E+01 -0.18705351035E+00  0.73984480966E+01  0.51100000000E-03 0.  1.
        -12    1    4    4    0    0 -0.93591276659E+01  0.78511354150E+01  0.10320934615E+02  0.15992350962E+02  0.00000000000E+00 0.  1.
</event>
<event>
 8    1  0.6469014E-010  0.9118800E+02  0.7816164E-02  0.1184000E+00
        -11   -1    0    0    0    0  0.00000000000E+00  0.00000000000E+00  0.45593999997E+02  0.45594000000E+02  0.51100000000E-03 0.  1.
         11   -1    0    0    0    0 -0.00000000000E+00 -0.00000000000E+00 -0.45593999997E+02  0.45594000000E+02  0.51100000000E-03 0. -1.
         23    2    1    2    0    0  0.00000000000E+00  0.00000000000E+00  0.11102230246E-15  0.91188000000E+02  0.91188000000E+02 0.  0.
    9900012    2    3    3    0    0 -0.11073025403E+02 -0.41962219234E+02 -0.42846700902E+00  0.47787270529E+02  0.19999997650E+02 0.  0.
         12    1    3    3    0    0  0.11073025403E+02  0.41962219234E+02  0.42846700902E+00  0.43400729471E+02  0.00000000000E+00 0. -1.
         11    1    4    4    0    0  0.47858386104E+01 -0.91517189232E+01  0.44373783076E+00  0.10337074730E+02  0.51100000000E-03 0. -1.
        -11    1    4    4    0    0 -0.11883889062E+02 -0.16389445894E+02  0.18822167008E+01  0.20331834543E+02  0.51100000000E-03 0.  1.
         12    1    4    4    0    0 -0.39749749517E+01 -0.16421054417E+02 -0.27544215406E+01  0.17118361255E+02  0.00000000000E+00 0. -1.
</event>
<event>
 8    1  0.6469014E-010  0.9118800E+02  0.7816164E-02  0.1184000E+00
        -11   -1    0    0    0    0  0.00000000000E+00  0.00000000000E+00  0.45593999997E+02  0.45594000000E+02  0.51100000000E-03 0. -1.
         11   -1    0    0    0    0 -0.00000000000E+00 -0.00000000000E+00 -0.45593999997E+02  0.45594000000E+02  0.51100000000E-03 0.  1.
         23    2    1    2    0    0  0.00000000000E+00  0.35527136788E-14  0.00000000000E+00  0.91188000000E+02  0.91188000000E+02 0.  0.
    9900012    2    3    3    0    0 -0.19298169501E+02 -0.30387840311E+02 -0.24244242944E+02  0.47787268431E+02  0.19999988083E+02 0.  0.
         12    1    3    3    0    0  0.19298169501E+02  0.30387840311E+02  0.24244242944E+02  0.43400731569E+02  0.00000000000E+00 0. -1.
         11    1    4    4    0    0 -0.10407679753E+02 -0.31691153272E+01 -0.60915908967E+01  0.12468783810E+02  0.51100000000E-03 0. -1.
        -11    1    4    4    0    0 -0.42658772242E+01 -0.14359895106E+02 -0.37039252408E+01  0.15431246172E+02  0.51100000000E-03 0.  1.
         12    1    4    4    0    0 -0.46246125241E+01 -0.12858829877E+02 -0.14448726806E+02  0.19887238449E+02  0.00000000000E+00 0. -1.
</event>
<event>
 8    1  0.6469014E-010  0.9118800E+02  0.7816164E-02  0.1184000E+00
        -11   -1    0    0    0    0  0.00000000000E+00  0.00000000000E+00  0.45593999997E+02  0.45594000000E+02  0.51100000000E-03 0. -1.
         11   -1    0    0    0    0 -0.00000000000E+00 -0.00000000000E+00 -0.45593999997E+02  0.45594000000E+02  0.51100000000E-03 0.  1.
         23    2    1    2    0    0  0.00000000000E+00  0.35527136788E-14  0.00000000000E+00  0.91188000000E+02  0.91188000000E+02 0.  0.
    9900012    2    3    3    0    0  0.11271049030E+02  0.26950966708E+02  0.32097230418E+02  0.47787270131E+02  0.19999995834E+02 0.  0.
        -12    1    3    3    0    0 -0.11271049030E+02 -0.26950966708E+02 -0.32097230418E+02  0.43400729869E+02  0.00000000000E+00 0.  1.
         11    1    4    4    0    0 -0.80884008290E-01  0.94262655045E+01  0.13022820711E+02  0.16076532061E+02  0.51100000000E-03 0. -1.
        -11    1    4    4    0    0  0.12031942902E+02  0.17787418028E+02  0.12002230260E+02  0.24601085781E+02  0.51100000000E-03 0.  1.
        -12    1    4    4    0    0 -0.68000986431E+00 -0.26271682442E+00  0.70721794468E+01  0.71096522892E+01  0.00000000000E+00 0.  1.
</event>
<event>
 8    1  0.6469014E-010  0.9118800E+02  0.7816164E-02  0.1184000E+00
        -11   -1    0    0    0    0  0.00000000000E+00  0.00000000000E+00  0.45593999997E+02  0.45594000000E+02  0.51100000000E-03 0. -1.
         11   -1    0    0    0    0 -0.00000000000E+00 -0.00000000000E+00 -0.45593999997E+02  0.45594000000E+02  0.51100000000E-03 0.  1.
         23    2    1    2    0    0  0.00000000000E+00 -0.35527136788E-14  0.35527136788E-14  0.91188000000E+02  0.91188000000E+02 0.  0.
    9900012    2    3    3    0    0  0.17107963060E+02  0.27621424973E+02  0.28774949714E+02  0.47787271336E+02  0.20000001327E+02 0.  0.
        -12    1    3    3    0    0 -0.17107963060E+02 -0.27621424973E+02 -0.28774949714E+02  0.43400728664E+02  0.00000000000E+00 0.  1.
         11    1    4    4    0    0  0.16712547063E+02  0.12284341197E+02  0.20587800245E+02  0.29224506620E+02  0.51100000000E-03 0. -1.
        -11    1    4    4    0    0 -0.23368687558E+01  0.48058442873E+01  0.77938872523E+00  0.54004205338E+01  0.51100000000E-03 0.  1.
         12    1    4    4    0    0  0.27322847522E+01  0.10531239488E+02  0.74077607436E+01  0.13162344182E+02  0.00000000000E+00 0. -1.
</event>
<event>
 8    1  0.6469014E-010  0.9118800E+02  0.7816164E-02  0.1184000E+00
        -11   -1    0    0    0    0  0.00000000000E+00  0.00000000000E+00  0.45593999997E+02  0.45594000000E+02  0.51100000000E-03 0. -1.
         11   -1    0    0    0    0 -0.00000000000E+00 -0.00000000000E+00 -0.45593999997E+02  0.45594000000E+02  0.51100000000E-03 0.  1.
         23    2    1    2    0    0  0.00000000000E+00  0.00000000000E+00  0.00000000000E+00  0.91188000000E+02  0.91188000000E+02 0.  0.
    9900012    2    3    3    0    0 -0.30030038623E+02  0.43252828167E+01 -0.31034045149E+02  0.47787271326E+02  0.20000001282E+02 0.  0.
         12    1    3    3    0    0  0.30030038623E+02 -0.43252828167E+01  0.31034045149E+02  0.43400728674E+02  0.00000000000E+00 0. -1.
         11    1    4    4    0    0 -0.21967827436E+02  0.61111905473E+01 -0.10823391665E+02  0.25240402127E+02  0.51100000000E-03 0. -1.
        -11    1    4    4    0    0 -0.39023106502E+01  0.19864285486E+01 -0.88036145904E+01  0.98324746075E+01  0.51100000000E-03 0.  1.
         12    1    4    4    0    0 -0.41599005369E+01 -0.37723362792E+01 -0.11407038894E+02  0.12714394591E+02  0.00000000000E+00 0. -1.
</event>
<event>
 8    1  0.6469014E-010  0.9118800E+02  0.7816164E-02  0.1184000E+00
        -11   -1    0    0    0    0  0.00000000000E+00  0.00000000000E+00  0.45593999997E+02  0.45594000000E+02  0.51100000000E-03 0. -1.
         11   -1    0    0    0    0 -0.00000000000E+00 -0.00000000000E+00 -0.45593999997E+02  0.45594000000E+02  0.51100000000E-03 0.  1.
         23    2    1    2    0    0  0.44408920985E-15  0.00000000000E+00 -0.71054273576E-14  0.91188000000E+02  0.91188000000E+02 0.  0.
    9900012    2    3    3    0    0 -0.28132216983E+01 -0.28833540949E+02 -0.32316188598E+02  0.47787270220E+02  0.19999996240E+02 0.  0.
         12    1    3    3    0    0  0.28132216983E+01  0.28833540949E+02  0.32316188598E+02  0.43400729780E+02  0.00000000000E+00 0. -1.
         11    1    4    4    0    0  0.33250026569E+01 -0.24472110347E+02 -0.19810874237E+02  0.31660868051E+02  0.51100000000E-03 0. -1.
        -11    1    4    4    0    0 -0.55970075737E+01 -0.42325626936E+01 -0.13369186695E+02  0.15098881875E+02  0.51100000000E-03 0.  1.
         12    1    4    4    0    0 -0.54121678149E+00 -0.12886790867E+00  0.86387233434E+00  0.10275202930E+01  0.00000000000E+00 0. -1.
</event>
<event>
 8    1  0.6469014E-010  0.9118800E+02  0.7816164E-02  0.1184000E+00
        -11   -1    0    0    0    0  0.00000000000E+00  0.00000000000E+00  0.45593999997E+02  0.45594000000E+02  0.51100000000E-03 0. -1.
         11   -1    0    0    0    0 -0.00000000000E+00 -0.00000000000E+00 -0.45593999997E+02  0.45594000000E+02  0.51100000000E-03 0.  1.
         23    2    1    2    0    0 -0.35527136788E-14  0.22204460493E-15 -0.71054273576E-14  0.91188000000E+02  0.91188000000E+02 0.  0.
    9900012    2    3    3    0    0 -0.26155068081E+02  0.17523835339E+01 -0.34589951733E+02  0.47787271950E+02  0.20000004130E+02 0.  0.
         12    1    3    3    0    0  0.26155068081E+02 -0.17523835339E+01  0.34589951733E+02  0.43400728050E+02  0.00000000000E+00 0. -1.
         11    1    4    4    0    0 -0.57064690458E+01 -0.39691788654E+01 -0.18774584852E+02  0.20020070092E+02  0.51100000000E-03 0. -1.
        -11    1    4    4    0    0 -0.88314963317E+01  0.51158904167E+00 -0.21782819998E+01  0.91105413416E+01  0.51100000000E-03 0.  1.
        -12    1    4    4    0    0 -0.11617102703E+02  0.52099733577E+01 -0.13637084881E+02  0.18656660517E+02  0.00000000000E+00 0.  1.
</event>
<event>
 8    1  0.6469014E-010  0.9118800E+02  0.7816164E-02  0.1184000E+00
        -11   -1    0    0    0    0  0.00000000000E+00  0.00000000000E+00  0.45593999997E+02  0.45594000000E+02  0.51100000000E-03 0. -1.
         11   -1    0    0    0    0 -0.00000000000E+00 -0.00000000000E+00 -0.45593999997E+02  0.45594000000E+02  0.51100000000E-03 0.  1.
         23    2    1    2    0    0  0.00000000000E+00  0.00000000000E+00  0.00000000000E+00  0.91188000000E+02  0.91188000000E+02 0.  0.
    9900012    2    3    3    0    0  0.18813509849E+02  0.21086539651E+02  0.32939839911E+02  0.47787270045E+02  0.19999995444E+02 0.  0.
        -12    1    3    3    0    0 -0.18813509849E+02 -0.21086539651E+02 -0.32939839911E+02  0.43400729955E+02  0.00000000000E+00 0.  1.
         11    1    4    4    0    0  0.14781729867E+02  0.17199808570E+02  0.27986209746E+02  0.36021672489E+02  0.51100000000E-03 0. -1.
        -11    1    4    4    0    0 -0.14025899383E+01 -0.19792941813E+01  0.13517287166E+00  0.24296370011E+01  0.51100000000E-03 0.  1.
         12    1    4    4    0    0  0.54343699196E+01  0.58660252619E+01  0.48184572929E+01  0.93359605548E+01  0.00000000000E+00 0. -1.
</event>
<event>
 8    1  0.6469014E-010  0.9118800E+02  0.7816164E-02  0.1184000E+00
        -11   -1    0    0    0    0  0.00000000000E+00  0.00000000000E+00  0.45593999997E+02  0.45594000000E+02  0.51100000000E-03 0. -1.
         11   -1    0    0    0    0 -0.00000000000E+00 -0.00000000000E+00 -0.45593999997E+02  0.45594000000E+02  0.51100000000E-03 0.  1.
         23    2    1    2    0    0  0.88817841970E-15  0.00000000000E+00  0.00000000000E+00  0.91188000000E+02  0.91188000000E+02 0.  0.
    9900012    2    3    3    0    0  0.57094755999E+01 -0.18644295310E+02  0.38773899819E+02  0.47787272283E+02  0.20000005646E+02 0.  0.
        -12    1    3    3    0    0 -0.57094755999E+01  0.18644295310E+02 -0.38773899819E+02  0.43400727717E+02  0.00000000000E+00 0.  1.
         11    1    4    4    0    0 -0.28787465800E+01 -0.12163758858E+02  0.19388003843E+02  0.23068136134E+02  0.51100000000E-03 0. -1.
        -11    1    4    4    0    0 -0.15481227168E+01 -0.47274271051E+01  0.75025234010E+01  0.90018391801E+01  0.51100000000E-03 0.  1.
         12    1    4    4    0    0  0.10136344897E+02 -0.17531093466E+01  0.11883372575E+02  0.15717296969E+02  0.00000000000E+00 0. -1.
</event>
<event>
 8    1  0.6469014E-010  0.9118800E+02  0.7816164E-02  0.1184000E+00
        -11   -1    0    0    0    0  0.00000000000E+00  0.00000000000E+00  0.45593999997E+02  0.45594000000E+02  0.51100000000E-03 0. -1.
         11   -1    0    0    0    0 -0.00000000000E+00 -0.00000000000E+00 -0.45593999997E+02  0.45594000000E+02  0.51100000000E-03 0.  1.
         23    2    1    2    0    0  0.00000000000E+00  0.00000000000E+00  0.00000000000E+00  0.91188000000E+02  0.91188000000E+02 0.  0.
    9900012    2    3    3    0    0  0.13765860017E+02 -0.22496218248E+02 -0.34468024076E+02  0.47787269347E+02  0.19999992262E+02 0.  0.
         12    1    3    3    0    0 -0.13765860017E+02  0.22496218248E+02  0.34468024076E+02  0.43400730653E+02  0.00000000000E+00 0. -1.
         11    1    4    4    0    0 -0.43915001349E+01 -0.86557762638E+01 -0.77061894811E+01  0.12393268041E+02  0.51100000000E-03 0. -1.
        -11    1    4    4    0    0  0.31263848886E+01 -0.23365434263E+01 -0.25527002429E+01  0.46636891455E+01  0.51100000000E-03 0.  1.
         12    1    4    4    0    0  0.15030975263E+02 -0.11503898558E+02 -0.24209134352E+02  0.30730312160E+02  0.00000000000E+00 0. -1.
</event>
<event>
 8    1  0.6469014E-010  0.9118800E+02  0.7816164E-02  0.1184000E+00
        -11   -1    0    0    0    0  0.00000000000E+00  0.00000000000E+00  0.45593999997E+02  0.45594000000E+02  0.51100000000E-03 0. -1.
         11   -1    0    0    0    0 -0.00000000000E+00 -0.00000000000E+00 -0.45593999997E+02  0.45594000000E+02  0.51100000000E-03 0.  1.
         23    2    1    2    0    0  0.00000000000E+00 -0.35527136788E-14  0.00000000000E+00  0.91188000000E+02  0.91188000000E+02 0.  0.
    9900012    2    3    3    0    0  0.22885852550E+02 -0.26142282598E+02 -0.26008491860E+02  0.47787276098E+02  0.20000023041E+02 0.  0.
         12    1    3    3    0    0 -0.22885852550E+02  0.26142282598E+02  0.26008491860E+02  0.43400723902E+02  0.00000000000E+00 0. -1.
         11    1    4    4    0    0 -0.79144944899E+00  0.53475123311E+00  0.72829027090E+00  0.12011486550E+01  0.51100000000E-03 0. -1.
        -11    1    4    4    0    0  0.24813229143E+02 -0.21448604287E+02 -0.22869479392E+02  0.39984397635E+02  0.51100000000E-03 0.  1.
        -12    1    4    4    0    0 -0.11359271436E+01 -0.52284295442E+01 -0.38673027394E+01  0.66017298076E+01  0.00000000000E+00 0.  1.
</event>
<event>
 8    1  0.6469014E-010  0.9118800E+02  0.7816164E-02  0.1184000E+00
        -11   -1    0    0    0    0  0.00000000000E+00  0.00000000000E+00  0.45593999997E+02  0.45594000000E+02  0.51100000000E-03 0. -1.
         11   -1    0    0    0    0 -0.00000000000E+00 -0.00000000000E+00 -0.45593999997E+02  0.45594000000E+02  0.51100000000E-03 0.  1.
         23    2    1    2    0    0  0.00000000000E+00  0.00000000000E+00  0.00000000000E+00  0.91188000000E+02  0.91188000000E+02 0.  0.
    9900012    2    3    3    0    0 -0.27230689070E+02  0.92240330324E+01 -0.32511968103E+02  0.47787293986E+02  0.20000104599E+02 0.  0.
         12    1    3    3    0    0  0.27230689070E+02 -0.92240330324E+01  0.32511968103E+02  0.43400706014E+02  0.00000000000E+00 0. -1.
         11    1    4    4    0    0 -0.85602247557E+01  0.10702017284E+02 -0.54561215442E+01  0.14750589289E+02  0.51100000000E-03 0. -1.
        -11    1    4    4    0    0 -0.10010102053E+02 -0.21409586458E+01 -0.13621415301E+02  0.17039037593E+02  0.51100000000E-03 0.  1.
         12    1    4    4    0    0 -0.86603622613E+01  0.66297439449E+00 -0.13434431258E+02  0.15997667104E+02  0.00000000000E+00 0. -1.
</event>
<event>
 8    1  0.6469014E-010  0.9118800E+02  0.7816164E-02  0.1184000E+00
        -11   -1    0    0    0    0  0.00000000000E+00  0.00000000000E+00  0.45593999997E+02  0.45594000000E+02  0.51100000000E-03 0. -1.
         11   -1    0    0    0    0 -0.00000000000E+00 -0.00000000000E+00 -0.45593999997E+02  0.45594000000E+02  0.51100000000E-03 0.  1.
         23    2    1    2    0    0 -0.66613381478E-15  0.00000000000E+00  0.00000000000E+00  0.91188000000E+02  0.91188000000E+02 0.  0.
    9900012    2    3    3    0    0 -0.10279950423E+01 -0.16211360098E+02  0.40246219703E+02  0.47787272236E+02  0.20000005434E+02 0.  0.
        -12    1    3    3    0    0  0.10279950423E+01  0.16211360098E+02 -0.40246219703E+02  0.43400727764E+02  0.00000000000E+00 0.  1.
         11    1    4    4    0    0  0.22826177860E+01 -0.57172171371E+01  0.20648243496E+02  0.21546388920E+02  0.51100000000E-03 0. -1.
        -11    1    4    4    0    0 -0.50509859660E+01 -0.74296590671E+01  0.33073963640E+01  0.95734614457E+01  0.51100000000E-03 0.  1.
        -12    1    4    4    0    0  0.17403731378E+01 -0.30644838934E+01  0.16290579843E+02  0.16667421870E+02  0.00000000000E+00 0.  1.
</event>
<event>
 8    1  0.6469014E-010  0.9118800E+02  0.7816164E-02  0.1184000E+00
        -11   -1    0    0    0    0  0.00000000000E+00  0.00000000000E+00  0.45593999997E+02  0.45594000000E+02  0.51100000000E-03 0. -1.
         11   -1    0    0    0    0 -0.00000000000E+00 -0.00000000000E+00 -0.45593999997E+02  0.45594000000E+02  0.51100000000E-03 0.  1.
         23    2    1    2    0    0  0.00000000000E+00  0.00000000000E+00  0.00000000000E+00  0.91188000000E+02  0.91188000000E+02 0.  0.
    9900012    2    3    3    0    0  0.19949052371E+02  0.44915358482E+01 -0.38281644705E+02  0.47787275281E+02  0.20000019316E+02 0.  0.
         12    1    3    3    0    0 -0.19949052371E+02 -0.44915358482E+01  0.38281644705E+02  0.43400724719E+02  0.00000000000E+00 0. -1.
         11    1    4    4    0    0  0.28868696641E+01 -0.10938880982E+01  0.16702823982E+01  0.35100500253E+01  0.51100000000E-03 0. -1.
        -11    1    4    4    0    0  0.60505813103E+01  0.53403682555E+01 -0.16542391559E+02  0.18405971478E+02  0.51100000000E-03 0.  1.
         12    1    4    4    0    0  0.11011601397E+02  0.24505569087E+00 -0.23409535544E+02  0.25871253778E+02  0.00000000000E+00 0. -1.
</event>
<event>
 8    1  0.6469014E-010  0.9118800E+02  0.7816164E-02  0.1184000E+00
        -11   -1    0    0    0    0  0.00000000000E+00  0.00000000000E+00  0.45593999997E+02  0.45594000000E+02  0.51100000000E-03 0. -1.
         11   -1    0    0    0    0 -0.00000000000E+00 -0.00000000000E+00 -0.45593999997E+02  0.45594000000E+02  0.51100000000E-03 0.  1.
         23    2    1    2    0    0  0.35527136788E-14  0.35527136788E-14  0.35527136788E-14  0.91188000000E+02  0.91188000000E+02 0.  0.
    9900012    2    3    3    0    0 -0.29176590216E+02  0.12281068214E+02 -0.29690548803E+02  0.47787231097E+02  0.19999817864E+02 0.  0.
         12    1    3    3    0    0  0.29176590216E+02 -0.12281068214E+02  0.29690548803E+02  0.43400768903E+02  0.00000000000E+00 0. -1.
         11    1    4    4    0    0 -0.55611156415E+01  0.71151467975E+01 -0.87534872193E+01  0.12576758719E+02  0.51100000000E-03 0. -1.
        -11    1    4    4    0    0 -0.87249778404E+01 -0.45507472870E+01 -0.38995923012E+01  0.10584959120E+02  0.51100000000E-03 0.  1.
        -12    1    4    4    0    0 -0.14890496735E+02  0.97166687033E+01 -0.17037469282E+02  0.24625513258E+02  0.00000000000E+00 0.  1.
</event>
<event>
 8    1  0.6469014E-010  0.9118800E+02  0.7816164E-02  0.1184000E+00
        -11   -1    0    0    0    0  0.00000000000E+00  0.00000000000E+00  0.45593999997E+02  0.45594000000E+02  0.51100000000E-03 0. -1.
         11   -1    0    0    0    0 -0.00000000000E+00 -0.00000000000E+00 -0.45593999997E+02  0.45594000000E+02  0.51100000000E-03 0.  1.
         23    2    1    2    0    0  0.00000000000E+00  0.00000000000E+00  0.00000000000E+00  0.91188000000E+02  0.91188000000E+02 0.  0.
    9900012    2    3    3    0    0  0.20884501245E+02 -0.14403923831E+02 -0.35213460898E+02  0.47787271407E+02  0.20000001654E+02 0.  0.
         12    1    3    3    0    0 -0.20884501245E+02  0.14403923831E+02  0.35213460898E+02  0.43400728593E+02  0.00000000000E+00 0. -1.
         11    1    4    4    0    0  0.34680768238E+01  0.25608694049E+01 -0.14726875202E+01  0.45557016757E+01  0.51100000000E-03 0. -1.
        -11    1    4    4    0    0  0.13052710191E+02 -0.18015947938E+02 -0.25444958185E+02  0.33799312430E+02  0.51100000000E-03 0.  1.
        -12    1    4    4    0    0  0.43637142308E+01  0.10511547023E+01 -0.82958151928E+01  0.94322573019E+01  0.00000000000E+00 0.  1.
</event>
<event>
 8    1  0.6469014E-010  0.9118800E+02  0.7816164E-02  0.1184000E+00
        -11   -1    0    0    0    0  0.00000000000E+00  0.00000000000E+00  0.45593999997E+02  0.45594000000E+02  0.51100000000E-03 0. -1.
         11   -1    0    0    0    0 -0.00000000000E+00 -0.00000000000E+00 -0.45593999997E+02  0.45594000000E+02  0.51100000000E-03 0.  1.
         23    2    1    2    0    0 -0.35527136788E-14  0.00000000000E+00 -0.35527136788E-14  0.91188000000E+02  0.91188000000E+02 0.  0.
    9900012    2    3    3    0    0 -0.25439260114E+02  0.27716206751E+02  0.21639753909E+02  0.47787273957E+02  0.20000013279E+02 0.  0.
        -12    1    3    3    0    0  0.25439260114E+02 -0.27716206751E+02 -0.21639753909E+02  0.43400726043E+02  0.00000000000E+00 0.  1.
         11    1    4    4    0    0 -0.16458983562E+02  0.23012600758E+02  0.11434243329E+02  0.30515895110E+02  0.51100000000E-03 0. -1.
        -11    1    4    4    0    0  0.83414040969E+00 -0.19016084114E+01  0.11534957114E+01  0.23753857351E+01  0.51100000000E-03 0.  1.
         12    1    4    4    0    0 -0.98144169611E+01  0.66052144044E+01  0.90520148686E+01  0.14895993112E+02  0.00000000000E+00 0. -1.
</event>
<event>
 8    1  0.6469014E-010  0.9118800E+02  0.7816164E-02  0.1184000E+00
        -11   -1    0    0    0    0  0.00000000000E+00  0.00000000000E+00  0.45593999997E+02  0.45594000000E+02  0.51100000000E-03 0. -1.
         11   -1    0    0    0    0 -0.00000000000E+00 -0.00000000000E+00 -0.45593999997E+02  0.45594000000E+02  0.51100000000E-03 0.  1.
         23    2    1    2    0    0  0.00000000000E+00  0.00000000000E+00  0.00000000000E+00  0.91188000000E+02  0.91188000000E+02 0.  0.
    9900012    2    3    3    0    0  0.10405621989E+02  0.11532625296E+02 -0.40525853046E+02  0.47787272122E+02  0.20000004913E+02 0.  0.
         12    1    3    3    0    0 -0.10405621989E+02 -0.11532625296E+02  0.40525853046E+02  0.43400727878E+02  0.00000000000E+00 0. -1.
         11    1    4    4    0    0 -0.35660661943E+01 -0.21785524408E+01 -0.36260118158E+01  0.55327100764E+01  0.51100000000E-03 0. -1.
        -11    1    4    4    0    0  0.66176351729E+01  0.10089158404E+02 -0.18194047544E+02  0.21831343955E+02  0.51100000000E-03 0.  1.
         12    1    4    4    0    0  0.73540530106E+01  0.36220193330E+01 -0.18705793686E+02  0.20423218090E+02  0.00000000000E+00 0. -1.
</event>
<event>
 8    1  0.6469014E-010  0.9118800E+02  0.7816164E-02  0.1184000E+00
        -11   -1    0    0    0    0  0.00000000000E+00  0.00000000000E+00  0.45593999997E+02  0.45594000000E+02  0.51100000000E-03 0.  1.
         11   -1    0    0    0    0 -0.00000000000E+00 -0.00000000000E+00 -0.45593999997E+02  0.45594000000E+02  0.51100000000E-03 0. -1.
         23    2    1    2    0    0  0.00000000000E+00  0.00000000000E+00  0.00000000000E+00  0.91188000000E+02  0.91188000000E+02 0.  0.
    9900012    2    3    3    0    0 -0.12707157145E+02  0.40023839200E+02  0.10965574526E+02  0.47787269917E+02  0.19999994861E+02 0.  0.
        -12    1    3    3    0    0  0.12707157145E+02 -0.40023839200E+02 -0.10965574526E+02  0.43400730083E+02  0.00000000000E+00 0.  1.
         11    1    4    4    0    0 -0.23920242019E+01  0.26213306937E+02  0.37817074552E+01  0.26592490517E+02  0.51100000000E-03 0. -1.
        -11    1    4    4    0    0 -0.13154069835E+01  0.55335258501E+00  0.47844875267E+01  0.49927763589E+01  0.51100000000E-03 0.  1.
        -12    1    4    4    0    0 -0.89997259592E+01  0.13257179678E+02  0.23993795437E+01  0.16202003041E+02  0.00000000000E+00 0.  1.
</event>
<event>
 8    1  0.6469014E-010  0.9118800E+02  0.7816164E-02  0.1184000E+00
        -11   -1    0    0    0    0  0.00000000000E+00  0.00000000000E+00  0.45593999997E+02  0.45594000000E+02  0.51100000000E-03 0. -1.
         11   -1    0    0    0    0 -0.00000000000E+00 -0.00000000000E+00 -0.45593999997E+02  0.45594000000E+02  0.51100000000E-03 0.  1.
         23    2    1    2    0    0  0.00000000000E+00  0.00000000000E+00  0.88817841970E-15  0.91188000000E+02  0.91188000000E+02 0.  0.
    9900012    2    3    3    0    0 -0.26762798832E+02  0.33845062003E+02  0.46785731435E+01  0.47787254961E+02  0.19999926668E+02 0.  0.
        -12    1    3    3    0    0  0.26762798832E+02 -0.33845062003E+02 -0.46785731435E+01  0.43400745039E+02  0.00000000000E+00 0.  1.
         11    1    4    4    0    0 -0.51708538119E+01  0.36885198064E+01  0.40524691644E+01  0.75342825867E+01  0.51100000000E-03 0. -1.
        -11    1    4    4    0    0  0.13875271904E+00  0.86741053430E+00 -0.34459305962E+01  0.35561343179E+01  0.51100000000E-03 0.  1.
        -12    1    4    4    0    0 -0.21730697739E+02  0.29289131662E+02  0.40720345753E+01  0.36696838056E+02  0.00000000000E+00 0.  1.
</event>
<event>
 8    1  0.6469014E-010  0.9118800E+02  0.7816164E-02  0.1184000E+00
        -11   -1    0    0    0    0  0.00000000000E+00  0.00000000000E+00  0.45593999997E+02  0.45594000000E+02  0.51100000000E-03 0. -1.
         11   -1    0    0    0    0 -0.00000000000E+00 -0.00000000000E+00 -0.45593999997E+02  0.45594000000E+02  0.51100000000E-03 0.  1.
         23    2    1    2    0    0  0.71054273576E-14  0.00000000000E+00  0.00000000000E+00  0.91188000000E+02  0.91188000000E+02 0.  0.
    9900012    2    3    3    0    0  0.40626393295E+02 -0.56939246881E+01  0.14166808813E+02  0.47787273249E+02  0.20000010053E+02 0.  0.
        -12    1    3    3    0    0 -0.40626393295E+02  0.56939246881E+01 -0.14166808813E+02  0.43400726751E+02  0.00000000000E+00 0.  1.
         11    1    4    4    0    0  0.75215079949E+01 -0.60622656544E+01  0.10783588379E+02  0.14477911658E+02  0.51100000000E-03 0. -1.
        -11    1    4    4    0    0  0.27519854378E+02  0.79081255188E+00  0.30256373656E+01  0.27696971878E+02  0.51100000000E-03 0.  1.
         12    1    4    4    0    0  0.55850309220E+01 -0.42247158559E+00  0.35758306784E+00  0.56123897130E+01  0.00000000000E+00 0. -1.
</event>
<event>
 8    1  0.6469014E-010  0.9118800E+02  0.7816164E-02  0.1184000E+00
        -11   -1    0    0    0    0  0.00000000000E+00  0.00000000000E+00  0.45593999997E+02  0.45594000000E+02  0.51100000000E-03 0. -1.
         11   -1    0    0    0    0 -0.00000000000E+00 -0.00000000000E+00 -0.45593999997E+02  0.45594000000E+02  0.51100000000E-03 0.  1.
         23    2    1    2    0    0  0.00000000000E+00  0.00000000000E+00 -0.17763568394E-14  0.91188000000E+02  0.91188000000E+02 0.  0.
    9900012    2    3    3    0    0 -0.31448501776E+02 -0.28038212658E+02  0.10415076552E+02  0.47787268985E+02  0.19999990612E+02 0.  0.
        -12    1    3    3    0    0  0.31448501776E+02  0.28038212658E+02 -0.10415076552E+02  0.43400731015E+02  0.00000000000E+00 0.  1.
         11    1    4    4    0    0 -0.41810597509E+00  0.34687412277E+00 -0.25746246347E+01  0.26313165020E+01  0.51100000000E-03 0.  1.
        -11    1    4    4    0    0 -0.22133474073E+02 -0.21840193901E+02  0.13927234382E+02  0.34071287061E+02  0.51100000000E-03 0. -1.
         12    1    4    4    0    0 -0.88969217277E+01 -0.65448928797E+01 -0.93753319494E+00  0.11084665422E+02  0.00000000000E+00 0. -1.
</event>
<event>
 8    1  0.6469014E-010  0.9118800E+02  0.7816164E-02  0.1184000E+00
        -11   -1    0    0    0    0  0.00000000000E+00  0.00000000000E+00  0.45593999997E+02  0.45594000000E+02  0.51100000000E-03 0. -1.
         11   -1    0    0    0    0 -0.00000000000E+00 -0.00000000000E+00 -0.45593999997E+02  0.45594000000E+02  0.51100000000E-03 0.  1.
         23    2    1    2    0    0  0.00000000000E+00 -0.35527136788E-14  0.00000000000E+00  0.91188000000E+02  0.91188000000E+02 0.  0.
    9900012    2    3    3    0    0  0.17048333053E+02 -0.16982216342E+02  0.36118996822E+02  0.47787271168E+02  0.20000000562E+02 0.  0.
        -12    1    3    3    0    0 -0.17048333053E+02  0.16982216342E+02 -0.36118996822E+02  0.43400728832E+02  0.00000000000E+00 0.  1.
         11    1    4    4    0    0  0.61196003572E+01 -0.18178747081E+01  0.87769263845E+01  0.10853046301E+02  0.51100000000E-03 0. -1.
        -11    1    4    4    0    0  0.69418190925E+01 -0.48157881991E+01  0.11953711356E+01  0.85328530226E+01  0.51100000000E-03 0.  1.
        -12    1    4    4    0    0  0.39869136028E+01 -0.10348553435E+02  0.26146699302E+02  0.28401371844E+02  0.00000000000E+00 0.  1.
</event>
<event>
 8    1  0.6469014E-010  0.9118800E+02  0.7816164E-02  0.1184000E+00
        -11   -1    0    0    0    0  0.00000000000E+00  0.00000000000E+00  0.45593999997E+02  0.45594000000E+02  0.51100000000E-03 0. -1.
         11   -1    0    0    0    0 -0.00000000000E+00 -0.00000000000E+00 -0.45593999997E+02  0.45594000000E+02  0.51100000000E-03 0.  1.
         23    2    1    2    0    0  0.00000000000E+00 -0.35527136788E-14  0.71054273576E-14  0.91188000000E+02  0.91188000000E+02 0.  0.
    9900012    2    3    3    0    0 -0.17326072349E+02  0.17644850521E+02 -0.35666364267E+02  0.47787273359E+02  0.20000010552E+02 0.  0.
         12    1    3    3    0    0  0.17326072349E+02 -0.17644850521E+02  0.35666364267E+02  0.43400726641E+02  0.00000000000E+00 0. -1.
         11    1    4    4    0    0 -0.10073438284E+02  0.47987522824E+01 -0.26002185801E+02  0.28295155929E+02  0.51100000000E-03 0. -1.
        -11    1    4    4    0    0 -0.44068303806E+01  0.59691458867E+01 -0.94917797932E+01  0.12047603103E+02  0.51100000000E-03 0.  1.
         12    1    4    4    0    0 -0.28458036841E+01  0.68769523523E+01 -0.17239867273E+00  0.74445143271E+01  0.00000000000E+00 0. -1.
</event>
<event>
 8    1  0.6469014E-010  0.9118800E+02  0.7816164E-02  0.1184000E+00
        -11   -1    0    0    0    0  0.00000000000E+00  0.00000000000E+00  0.45593999997E+02  0.45594000000E+02  0.51100000000E-03 0. -1.
         11   -1    0    0    0    0 -0.00000000000E+00 -0.00000000000E+00 -0.45593999997E+02  0.45594000000E+02  0.51100000000E-03 0.  1.
         23    2    1    2    0    0 -0.17763568394E-14  0.00000000000E+00 -0.71054273576E-14  0.91188000000E+02  0.91188000000E+02 0.  0.
    9900012    2    3    3    0    0  0.10653816597E+02  0.18798010000E+02  0.37639823464E+02  0.47787247720E+02  0.19999893655E+02 0.  0.
        -12    1    3    3    0    0 -0.10653816597E+02 -0.18798010000E+02 -0.37639823464E+02  0.43400752280E+02  0.00000000000E+00 0.  1.
         11    1    4    4    0    0 -0.16067110359E+01  0.37495331963E+01  0.21798239813E+02  0.22176649403E+02  0.51100000000E-03 0.  1.
        -11    1    4    4    0    0  0.83461964190E+01  0.10112875778E+02  0.13683742086E+02  0.18951887739E+02  0.51100000000E-03 0. -1.
        -12    1    4    4    0    0  0.39143312139E+01  0.49356010257E+01  0.21578415660E+01  0.66587105780E+01  0.00000000000E+00 0.  1.
</event>
<event>
 8    1  0.6469014E-010  0.9118800E+02  0.7816164E-02  0.1184000E+00
        -11   -1    0    0    0    0  0.00000000000E+00  0.00000000000E+00  0.45593999997E+02  0.45594000000E+02  0.51100000000E-03 0. -1.
         11   -1    0    0    0    0 -0.00000000000E+00 -0.00000000000E+00 -0.45593999997E+02  0.45594000000E+02  0.51100000000E-03 0.  1.
         23    2    1    2    0    0  0.00000000000E+00  0.00000000000E+00  0.00000000000E+00  0.91188000000E+02  0.91188000000E+02 0.  0.
    9900012    2    3    3    0    0  0.25605062910E+02 -0.99671536424E+01  0.33595544972E+02  0.47787262215E+02  0.19999959741E+02 0.  0.
        -12    1    3    3    0    0 -0.25605062910E+02  0.99671536424E+01 -0.33595544972E+02  0.43400737785E+02  0.00000000000E+00 0.  1.
         11    1    4    4    0    0  0.37865822688E+01 -0.60760007642E+01  0.21085614023E+02  0.22267894143E+02  0.51100000000E-03 0.  1.
        -11    1    4    4    0    0  0.15781098165E+02 -0.19571474778E+01  0.90617233838E+01  0.18302686046E+02  0.51100000000E-03 0. -1.
        -12    1    4    4    0    0  0.60373824760E+01 -0.19340054004E+01  0.34482075649E+01  0.72166820258E+01  0.00000000000E+00 0.  1.
</event>
<event>
 8    1  0.6469014E-010  0.9118800E+02  0.7816164E-02  0.1184000E+00
        -11   -1    0    0    0    0  0.00000000000E+00  0.00000000000E+00  0.45593999997E+02  0.45594000000E+02  0.51100000000E-03 0. -1.
         11   -1    0    0    0    0 -0.00000000000E+00 -0.00000000000E+00 -0.45593999997E+02  0.45594000000E+02  0.51100000000E-03 0.  1.
         23    2    1    2    0    0  0.00000000000E+00  0.35527136788E-14 -0.35527136788E-14  0.91188000000E+02  0.91188000000E+02 0.  0.
    9900012    2    3    3    0    0 -0.23763060203E+02  0.23338864679E+02 -0.27825134755E+02  0.47787265457E+02  0.19999974527E+02 0.  0.
         12    1    3    3    0    0  0.23763060203E+02 -0.23338864679E+02  0.27825134755E+02  0.43400734543E+02  0.00000000000E+00 0. -1.
         11    1    4    4    0    0  0.49040996661E+00  0.91789182294E+01 -0.36150125734E+01  0.98773153217E+01  0.51100000000E-03 0. -1.
        -11    1    4    4    0    0 -0.16435573822E+02  0.90173256699E+01 -0.11046723661E+02  0.21759373911E+02  0.51100000000E-03 0.  1.
        -12    1    4    4    0    0 -0.78178963475E+01  0.51426207795E+01 -0.13163398520E+02  0.16150576224E+02  0.00000000000E+00 0.  1.
</event>
<event>
 8    1  0.6469014E-010  0.9118800E+02  0.7816164E-02  0.1184000E+00
        -11   -1    0    0    0    0  0.00000000000E+00  0.00000000000E+00  0.45593999997E+02  0.45594000000E+02  0.51100000000E-03 0. -1.
         11   -1    0    0    0    0 -0.00000000000E+00 -0.00000000000E+00 -0.45593999997E+02  0.45594000000E+02  0.51100000000E-03 0.  1.
         23    2    1    2    0    0  0.00000000000E+00  0.35527136788E-14  0.35527136788E-14  0.91188000000E+02  0.91188000000E+02 0.  0.
    9900012    2    3    3    0    0  0.11944540845E+02 -0.27328300762E+02 -0.31529549431E+02  0.47787302242E+02  0.20000142244E+02 0.  0.
         12    1    3    3    0    0 -0.11944540845E+02  0.27328300762E+02  0.31529549431E+02  0.43400697758E+02  0.00000000000E+00 0. -1.
         11    1    4    4    0    0  0.10498852558E+02 -0.15731867460E+02 -0.10467203726E+02  0.21616658227E+02  0.51100000000E-03 0. -1.
        -11    1    4    4    0    0  0.32475884929E+01 -0.78039565759E+01 -0.55784895745E+01  0.10127591789E+02  0.51100000000E-03 0.  1.
         12    1    4    4    0    0 -0.18019002052E+01 -0.37924767260E+01 -0.15483856130E+02  0.16043052226E+02  0.00000000000E+00 0. -1.
</event>
<event>
 8    1  0.6469014E-010  0.9118800E+02  0.7816164E-02  0.1184000E+00
        -11   -1    0    0    0    0  0.00000000000E+00  0.00000000000E+00  0.45593999997E+02  0.45594000000E+02  0.51100000000E-03 0. -1.
         11   -1    0    0    0    0 -0.00000000000E+00 -0.00000000000E+00 -0.45593999997E+02  0.45594000000E+02  0.51100000000E-03 0.  1.
         23    2    1    2    0    0  0.00000000000E+00  0.00000000000E+00  0.00000000000E+00  0.91188000000E+02  0.91188000000E+02 0.  0.
    9900012    2    3    3    0    0 -0.24651235788E+02  0.25885338968E+02 -0.24614820261E+02  0.47787267566E+02  0.19999984140E+02 0.  0.
         12    1    3    3    0    0  0.24651235788E+02 -0.25885338968E+02  0.24614820261E+02  0.43400732434E+02  0.00000000000E+00 0. -1.
         11    1    4    4    0    0 -0.97928445907E+01  0.20289090995E+02 -0.14854642276E+02  0.26985318527E+02  0.51100000000E-03 0. -1.
        -11    1    4    4    0    0 -0.48290357457E+01  0.66766694791E+01 -0.50956920358E+01  0.96883217922E+01  0.51100000000E-03 0.  1.
         12    1    4    4    0    0 -0.10029355452E+02 -0.10804215067E+01 -0.46644859496E+01  0.11113627247E+02  0.00000000000E+00 0. -1.
</event>
<event>
 8    1  0.6469014E-010  0.9118800E+02  0.7816164E-02  0.1184000E+00
        -11   -1    0    0    0    0  0.00000000000E+00  0.00000000000E+00  0.45593999997E+02  0.45594000000E+02  0.51100000000E-03 0. -1.
         11   -1    0    0    0    0 -0.00000000000E+00 -0.00000000000E+00 -0.45593999997E+02  0.45594000000E+02  0.51100000000E-03 0.  1.
         23    2    1    2    0    0  0.00000000000E+00  0.00000000000E+00 -0.71054273576E-14  0.91188000000E+02  0.91188000000E+02 0.  0.
    9900012    2    3    3    0    0  0.12806130771E+02 -0.14986237781E+02  0.38665732327E+02  0.47787272304E+02  0.20000005744E+02 0.  0.
        -12    1    3    3    0    0 -0.12806130771E+02  0.14986237781E+02 -0.38665732327E+02  0.43400727696E+02  0.00000000000E+00 0.  1.
         11    1    4    4    0    0  0.11685358210E+02 -0.67662833746E+01  0.18398873673E+02  0.22822110768E+02  0.51100000000E-03 0. -1.
        -11    1    4    4    0    0 -0.74451037640E+00 -0.99336162013E+00 -0.15042228381E+01  0.19503203882E+01  0.51100000000E-03 0.  1.
        -12    1    4    4    0    0  0.18652829368E+01 -0.72265927858E+01  0.21771081492E+02  0.23014841148E+02  0.00000000000E+00 0.  1.
</event>
<event>
 8    1  0.6469014E-010  0.9118800E+02  0.7816164E-02  0.1184000E+00
        -11   -1    0    0    0    0  0.00000000000E+00  0.00000000000E+00  0.45593999997E+02  0.45594000000E+02  0.51100000000E-03 0. -1.
         11   -1    0    0    0    0 -0.00000000000E+00 -0.00000000000E+00 -0.45593999997E+02  0.45594000000E+02  0.51100000000E-03 0.  1.
         23    2    1    2    0    0 -0.17763568394E-14  0.71054273576E-14  0.35527136788E-14  0.91188000000E+02  0.91188000000E+02 0.  0.
    9900012    2    3    3    0    0 -0.12362282593E+02 -0.32042516547E+02  0.26534403575E+02  0.47787268778E+02  0.19999989666E+02 0.  0.
        -12    1    3    3    0    0  0.12362282593E+02  0.32042516547E+02 -0.26534403575E+02  0.43400731222E+02  0.00000000000E+00 0.  1.
         11    1    4    4    0    0 -0.30791402691E+01 -0.30249475317E+01  0.20574098933E+01  0.47816679199E+01  0.51100000000E-03 0. -1.
        -11    1    4    4    0    0 -0.28490427745E+01 -0.94332593628E+01  0.19424880854E+02  0.21781400859E+02  0.51100000000E-03 0.  1.
        -12    1    4    4    0    0 -0.64340995489E+01 -0.19584309652E+02  0.50521128275E+01  0.21224199999E+02  0.00000000000E+00 0.  1.
</event>
<event>
 8    1  0.6469014E-010  0.9118800E+02  0.7816164E-02  0.1184000E+00
        -11   -1    0    0    0    0  0.00000000000E+00  0.00000000000E+00  0.45593999997E+02  0.45594000000E+02  0.51100000000E-03 0. -1.
         11   -1    0    0    0    0 -0.00000000000E+00 -0.00000000000E+00 -0.45593999997E+02  0.45594000000E+02  0.51100000000E-03 0.  1.
         23    2    1    2    0    0 -0.35527136788E-14 -0.35527136788E-14  0.00000000000E+00  0.91188000000E+02  0.91188000000E+02 0.  0.
    9900012    2    3    3    0    0 -0.30362374115E+02 -0.16916155174E+02 -0.25992177246E+02  0.47787270216E+02  0.19999996224E+02 0.  0.
         12    1    3    3    0    0  0.30362374115E+02  0.16916155174E+02  0.25992177246E+02  0.43400729784E+02  0.00000000000E+00 0. -1.
         11    1    4    4    0    0 -0.90402192554E+01 -0.13363432993E+02 -0.12162311531E+02  0.20204670935E+02  0.51100000000E-03 0. -1.
        -11    1    4    4    0    0 -0.17378455011E+02 -0.46027794483E+01 -0.14915524235E+02  0.23359562083E+02  0.51100000000E-03 0.  1.
         12    1    4    4    0    0 -0.39436998479E+01  0.10500572674E+01  0.10856585203E+01  0.42230371983E+01  0.00000000000E+00 0. -1.
</event>
<event>
 8    1  0.6469014E-010  0.9118800E+02  0.7816164E-02  0.1184000E+00
        -11   -1    0    0    0    0  0.00000000000E+00  0.00000000000E+00  0.45593999997E+02  0.45594000000E+02  0.51100000000E-03 0. -1.
         11   -1    0    0    0    0 -0.00000000000E+00 -0.00000000000E+00 -0.45593999997E+02  0.45594000000E+02  0.51100000000E-03 0.  1.
         23    2    1    2    0    0  0.00000000000E+00  0.00000000000E+00  0.00000000000E+00  0.91188000000E+02  0.91188000000E+02 0.  0.
    9900012    2    3    3    0    0 -0.40925052888E+02  0.50576123568E+01 -0.13534550954E+02  0.47787268830E+02  0.19999989901E+02 0.  0.
         12    1    3    3    0    0  0.40925052888E+02 -0.50576123568E+01  0.13534550954E+02  0.43400731170E+02  0.00000000000E+00 0. -1.
         11    1    4    4    0    0 -0.88559951543E+01  0.49604175423E+01  0.42668884512E+00  0.10159549990E+02  0.51100000000E-03 0. -1.
        -11    1    4    4    0    0 -0.12947203282E+02 -0.65010799106E+01 -0.79476306900E+01  0.16524495353E+02  0.51100000000E-03 0.  1.
        -12    1    4    4    0    0 -0.19121854451E+02  0.65982747252E+01 -0.60136091088E+01  0.21103223486E+02  0.00000000000E+00 0.  1.
</event>
<event>
 8    1  0.6469014E-010  0.9118800E+02  0.7816164E-02  0.1184000E+00
        -11   -1    0    0    0    0  0.00000000000E+00  0.00000000000E+00  0.45593999997E+02  0.45594000000E+02  0.51100000000E-03 0. -1.
         11   -1    0    0    0    0 -0.00000000000E+00 -0.00000000000E+00 -0.45593999997E+02  0.45594000000E+02  0.51100000000E-03 0.  1.
         23    2    1    2    0    0 -0.55511151231E-16  0.00000000000E+00  0.71054273576E-14  0.91188000000E+02  0.91188000000E+02 0.  0.
    9900012    2    3    3    0    0 -0.25084187454E+00 -0.10882627026E+02 -0.42013439581E+02  0.47787267309E+02  0.19999982971E+02 0.  0.
         12    1    3    3    0    0  0.25084187454E+00  0.10882627026E+02  0.42013439581E+02  0.43400732691E+02  0.00000000000E+00 0. -1.
         11    1    4    4    0    0 -0.47435767193E+01  0.26713221826E+01 -0.15916324445E+02  0.16821619018E+02  0.51100000000E-03 0.  1.
        -11    1    4    4    0    0  0.32881046658E+01 -0.30057168400E+01 -0.14829522955E+02  0.15484208645E+02  0.51100000000E-03 0. -1.
         12    1    4    4    0    0  0.12046301790E+01 -0.10548232369E+02 -0.11267592181E+02  0.15481439646E+02  0.00000000000E+00 0. -1.
</event>
<event>
 8    1  0.6469014E-010  0.9118800E+02  0.7816164E-02  0.1184000E+00
        -11   -1    0    0    0    0  0.00000000000E+00  0.00000000000E+00  0.45593999997E+02  0.45594000000E+02  0.51100000000E-03 0. -1.
         11   -1    0    0    0    0 -0.00000000000E+00 -0.00000000000E+00 -0.45593999997E+02  0.45594000000E+02  0.51100000000E-03 0.  1.
         23    2    1    2    0    0  0.00000000000E+00  0.00000000000E+00  0.00000000000E+00  0.91188000000E+02  0.91188000000E+02 0.  0.
    9900012    2    3    3    0    0  0.13539861795E+02 -0.11016619587E+02  0.39735746008E+02  0.47787271027E+02  0.19999999921E+02 0.  0.
        -12    1    3    3    0    0 -0.13539861795E+02  0.11016619587E+02 -0.39735746008E+02  0.43400728973E+02  0.00000000000E+00 0.  1.
         11    1    4    4    0    0  0.84419049145E+01 -0.36125241754E+00  0.55655561385E+01  0.10117888974E+02  0.51100000000E-03 0. -1.
        -11    1    4    4    0    0  0.43312313886E+01 -0.42186451457E+01  0.28252554144E+02  0.28892271426E+02  0.51100000000E-03 0.  1.
        -12    1    4    4    0    0  0.76672549149E+00 -0.64367220237E+01  0.59176357256E+01  0.87771106277E+01  0.00000000000E+00 0.  1.
</event>
<event>
 8    1  0.6469014E-010  0.9118800E+02  0.7816164E-02  0.1184000E+00
        -11   -1    0    0    0    0  0.00000000000E+00  0.00000000000E+00  0.45593999997E+02  0.45594000000E+02  0.51100000000E-03 0.  1.
         11   -1    0    0    0    0 -0.00000000000E+00 -0.00000000000E+00 -0.45593999997E+02  0.45594000000E+02  0.51100000000E-03 0. -1.
         23    2    1    2    0    0 -0.17763568394E-14  0.00000000000E+00  0.00000000000E+00  0.91188000000E+02  0.91188000000E+02 0.  0.
    9900012    2    3    3    0    0  0.12245775937E+02 -0.35706214626E+02 -0.21417993199E+02  0.47787271620E+02  0.20000002626E+02 0.  0.
         12    1    3    3    0    0 -0.12245775937E+02  0.35706214626E+02  0.21417993199E+02  0.43400728380E+02  0.00000000000E+00 0. -1.
         11    1    4    4    0    0  0.28687932883E+01  0.20686374608E+00 -0.26079659257E+01  0.38825576713E+01  0.51100000000E-03 0. -1.
        -11    1    4    4    0    0  0.48423423472E+00 -0.18314362490E+02 -0.28585455394E+01  0.18542428079E+02  0.51100000000E-03 0.  1.
        -12    1    4    4    0    0  0.88927484141E+01 -0.17598715882E+02 -0.15951481734E+02  0.25362285870E+02  0.00000000000E+00 0.  1.
</event>
<event>
 8    1  0.6469014E-010  0.9118800E+02  0.7816164E-02  0.1184000E+00
        -11   -1    0    0    0    0  0.00000000000E+00  0.00000000000E+00  0.45593999997E+02  0.45594000000E+02  0.51100000000E-03 0. -1.
         11   -1    0    0    0    0 -0.00000000000E+00 -0.00000000000E+00 -0.45593999997E+02  0.45594000000E+02  0.51100000000E-03 0.  1.
         23    2    1    2    0    0  0.00000000000E+00 -0.35527136788E-14  0.00000000000E+00  0.91188000000E+02  0.91188000000E+02 0.  0.
    9900012    2    3    3    0    0  0.78694091347E+01  0.17856224901E+02 -0.38766622095E+02  0.47787270092E+02  0.19999995658E+02 0.  0.
         12    1    3    3    0    0 -0.78694091347E+01 -0.17856224901E+02  0.38766622095E+02  0.43400729908E+02  0.00000000000E+00 0. -1.
         11    1    4    4    0    0  0.10877802532E+02  0.39134257022E+01 -0.16225639238E+02  0.19922671949E+02  0.51100000000E-03 0. -1.
        -11    1    4    4    0    0 -0.51609315127E+00 -0.27699265051E+00 -0.54976737298E+01  0.55287877305E+01  0.51100000000E-03 0.  1.
         12    1    4    4    0    0 -0.24923002462E+01  0.14219791850E+02 -0.17043309127E+02  0.22335810412E+02  0.00000000000E+00 0. -1.
</event>
<event>
 8    1  0.6469014E-010  0.9118800E+02  0.7816164E-02  0.1184000E+00
        -11   -1    0    0    0    0  0.00000000000E+00  0.00000000000E+00  0.45593999997E+02  0.45594000000E+02  0.51100000000E-03 0.  1.
         11   -1    0    0    0    0 -0.00000000000E+00 -0.00000000000E+00 -0.45593999997E+02  0.45594000000E+02  0.51100000000E-03 0. -1.
         23    2    1    2    0    0  0.00000000000E+00 -0.35527136788E-14  0.17763568394E-14  0.91188000000E+02  0.91188000000E+02 0.  0.
    9900012    2    3    3    0    0 -0.33183144029E+02  0.26678253095E+02 -0.84126576086E+01  0.47787273694E+02  0.20000012079E+02 0.  0.
        -12    1    3    3    0    0  0.33183144029E+02 -0.26678253095E+02  0.84126576086E+01  0.43400726306E+02  0.00000000000E+00 0.  1.
         11    1    4    4    0    0 -0.23044598779E+02  0.23427897951E+02 -0.40456903007E+01  0.33110233245E+02  0.51100000000E-03 0. -1.
        -11    1    4    4    0    0 -0.59468473845E+01  0.58562587935E+01 -0.49551829599E+01  0.97064205193E+01  0.51100000000E-03 0.  1.
         12    1    4    4    0    0 -0.41916978656E+01 -0.26059036492E+01  0.58821565201E+00  0.49706199290E+01  0.00000000000E+00 0. -1.
</event>
<event>
 8    1  0.6469014E-010  0.9118800E+02  0.7816164E-02  0.1184000E+00
        -11   -1    0    0    0    0  0.00000000000E+00  0.00000000000E+00  0.45593999997E+02  0.45594000000E+02  0.51100000000E-03 0. -1.
         11   -1    0    0    0    0 -0.00000000000E+00 -0.00000000000E+00 -0.45593999997E+02  0.45594000000E+02  0.51100000000E-03 0.  1.
         23    2    1    2    0    0 -0.35527136788E-14  0.00000000000E+00 -0.35527136788E-14  0.91188000000E+02  0.91188000000E+02 0.  0.
    9900012    2    3    3    0    0 -0.27934140430E+02 -0.18653200720E+02 -0.27483905249E+02  0.47787272513E+02  0.20000006695E+02 0.  0.
         12    1    3    3    0    0  0.27934140430E+02  0.18653200720E+02  0.27483905249E+02  0.43400727487E+02  0.00000000000E+00 0. -1.
         11    1    4    4    0    0  0.99458857438E-01 -0.69768477410E+01 -0.30845817716E+01  0.76289541507E+01  0.51100000000E-03 0.  1.
        -11    1    4    4    0    0 -0.10202193851E+02 -0.13427777915E+00 -0.11198281911E+02  0.15149399589E+02  0.51100000000E-03 0. -1.
        -12    1    4    4    0    0 -0.17831405437E+02 -0.11542075200E+02 -0.13201041567E+02  0.25008918773E+02  0.00000000000E+00 0.  1.
</event>
<event>
 8    1  0.6469014E-010  0.9118800E+02  0.7816164E-02  0.1184000E+00
        -11   -1    0    0    0    0  0.00000000000E+00  0.00000000000E+00  0.45593999997E+02  0.45594000000E+02  0.51100000000E-03 0. -1.
         11   -1    0    0    0    0 -0.00000000000E+00 -0.00000000000E+00 -0.45593999997E+02  0.45594000000E+02  0.51100000000E-03 0.  1.
         23    2    1    2    0    0 -0.88817841970E-15 -0.44408920985E-15  0.71054273576E-14  0.91188000000E+02  0.91188000000E+02 0.  0.
    9900012    2    3    3    0    0 -0.53662674236E+01 -0.39283410188E+00 -0.43065899408E+02  0.47787276083E+02  0.20000022974E+02 0.  0.
         12    1    3    3    0    0  0.53662674236E+01  0.39283410188E+00  0.43065899408E+02  0.43400723917E+02  0.00000000000E+00 0. -1.
         11    1    4    4    0    0 -0.22821753034E+01 -0.99169797893E-01 -0.14579699798E+01  0.27099511965E+01  0.51100000000E-03 0. -1.
        -11    1    4    4    0    0 -0.11658160954E+01 -0.36037532986E+01 -0.53339622473E+00  0.38250067711E+01  0.51100000000E-03 0.  1.
        -12    1    4    4    0    0 -0.19182760247E+01  0.33100889946E+01 -0.41074533203E+02  0.41252318116E+02  0.00000000000E+00 0.  1.
</event>
<event>
 8    1  0.6469014E-010  0.9118800E+02  0.7816164E-02  0.1184000E+00
        -11   -1    0    0    0    0  0.00000000000E+00  0.00000000000E+00  0.45593999997E+02  0.45594000000E+02  0.51100000000E-03 0. -1.
         11   -1    0    0    0    0 -0.00000000000E+00 -0.00000000000E+00 -0.45593999997E+02  0.45594000000E+02  0.51100000000E-03 0.  1.
         23    2    1    2    0    0  0.17763568394E-14  0.00000000000E+00  0.00000000000E+00  0.91188000000E+02  0.91188000000E+02 0.  0.
    9900012    2    3    3    0    0  0.12500012272E+02  0.98955671638E+01  0.40366449143E+02  0.47787276818E+02  0.20000026324E+02 0.  0.
        -12    1    3    3    0    0 -0.12500012272E+02 -0.98955671638E+01 -0.40366449143E+02  0.43400723182E+02  0.00000000000E+00 0.  1.
         11    1    4    4    0    0  0.90953515547E+01  0.92701892424E+01  0.39338452269E+02  0.41426750484E+02  0.51100000000E-03 0. -1.
        -11    1    4    4    0    0  0.39203314488E+01 -0.14148207410E+01  0.56632120829E+00  0.42061189200E+01  0.51100000000E-03 0.  1.
         12    1    4    4    0    0 -0.51567073153E+00  0.20401986624E+01  0.46167566628E+00  0.21544074142E+01  0.00000000000E+00 0. -1.
</event>
<event>
 8    1  0.6469014E-010  0.9118800E+02  0.7816164E-02  0.1184000E+00
        -11   -1    0    0    0    0  0.00000000000E+00  0.00000000000E+00  0.45593999997E+02  0.45594000000E+02  0.51100000000E-03 0. -1.
         11   -1    0    0    0    0 -0.00000000000E+00 -0.00000000000E+00 -0.45593999997E+02  0.45594000000E+02  0.51100000000E-03 0.  1.
         23    2    1    2    0    0  0.71054273576E-14  0.00000000000E+00 -0.35527136788E-14  0.91188000000E+02  0.91188000000E+02 0.  0.
    9900012    2    3    3    0    0  0.40768035451E+02 -0.98482226565E+01  0.11162558067E+02  0.47787275275E+02  0.20000019290E+02 0.  0.
         12    1    3    3    0    0 -0.40768035451E+02  0.98482226565E+01 -0.11162558067E+02  0.43400724725E+02  0.00000000000E+00 0. -1.
         11    1    4    4    0    0  0.81771763027E+01 -0.56161286127E+01  0.90197425146E+01  0.13407567571E+02  0.51100000000E-03 0. -1.
        -11    1    4    4    0    0  0.31841964725E+02 -0.58034803800E+01  0.11745534867E+01  0.32387816818E+02  0.51100000000E-03 0.  1.
        -12    1    4    4    0    0  0.74889442353E+00  0.15713863363E+01  0.96826206563E+00  0.19918908864E+01  0.00000000000E+00 0.  1.
</event>
<event>
 8    1  0.6469014E-010  0.9118800E+02  0.7816164E-02  0.1184000E+00
        -11   -1    0    0    0    0  0.00000000000E+00  0.00000000000E+00  0.45593999997E+02  0.45594000000E+02  0.51100000000E-03 0. -1.
         11   -1    0    0    0    0 -0.00000000000E+00 -0.00000000000E+00 -0.45593999997E+02  0.45594000000E+02  0.51100000000E-03 0.  1.
         23    2    1    2    0    0 -0.17763568394E-14  0.71054273576E-14  0.00000000000E+00  0.91188000000E+02  0.91188000000E+02 0.  0.
    9900012    2    3    3    0    0 -0.61193886203E+01  0.40306177130E+02  0.14885849065E+02  0.47787270348E+02  0.19999996826E+02 0.  0.
        -12    1    3    3    0    0  0.61193886203E+01 -0.40306177130E+02 -0.14885849065E+02  0.43400729652E+02  0.00000000000E+00 0.  1.
         11    1    4    4    0    0  0.42600643663E+01  0.14481223142E+02  0.11044722278E+02  0.18704006591E+02  0.51100000000E-03 0. -1.
        -11    1    4    4    0    0 -0.21778529305E+01  0.11258713172E+01  0.16726252368E+01  0.29678788812E+01  0.51100000000E-03 0.  1.
         12    1    4    4    0    0 -0.82016000561E+01  0.24699082671E+02  0.21685015497E+01  0.26115384876E+02  0.00000000000E+00 0. -1.
</event>
<event>
 8    1  0.6469014E-010  0.9118800E+02  0.7816164E-02  0.1184000E+00
        -11   -1    0    0    0    0  0.00000000000E+00  0.00000000000E+00  0.45593999997E+02  0.45594000000E+02  0.51100000000E-03 0. -1.
         11   -1    0    0    0    0 -0.00000000000E+00 -0.00000000000E+00 -0.45593999997E+02  0.45594000000E+02  0.51100000000E-03 0.  1.
         23    2    1    2    0    0 -0.17763568394E-14  0.00000000000E+00  0.00000000000E+00  0.91188000000E+02  0.91188000000E+02 0.  0.
    9900012    2    3    3    0    0  0.13125962631E+02  0.90059992978E+01 -0.40376036100E+02  0.47787271786E+02  0.20000003383E+02 0.  0.
         12    1    3    3    0    0 -0.13125962631E+02 -0.90059992978E+01  0.40376036100E+02  0.43400728214E+02  0.00000000000E+00 0. -1.
         11    1    4    4    0    0  0.24627711896E+01 -0.10863358659E+01 -0.37529819922E+00  0.27177594715E+01  0.51100000000E-03 0. -1.
        -11    1    4    4    0    0  0.38654901601E+01  0.66853908863E+00 -0.28331265774E+02  0.28601566029E+02  0.51100000000E-03 0.  1.
        -12    1    4    4    0    0  0.67977012810E+01  0.94237960751E+01 -0.11669472127E+02  0.16467946286E+02  0.00000000000E+00 0.  1.
</event>
<event>
 8    1  0.6469014E-010  0.9118800E+02  0.7816164E-02  0.1184000E+00
        -11   -1    0    0    0    0  0.00000000000E+00  0.00000000000E+00  0.45593999997E+02  0.45594000000E+02  0.51100000000E-03 0. -1.
         11   -1    0    0    0    0 -0.00000000000E+00 -0.00000000000E+00 -0.45593999997E+02  0.45594000000E+02  0.51100000000E-03 0.  1.
         23    2    1    2    0    0 -0.17763568394E-14  0.00000000000E+00  0.00000000000E+00  0.91188000000E+02  0.91188000000E+02 0.  0.
    9900012    2    3    3    0    0  0.11884883762E+02  0.81945677849E+01 -0.40929474578E+02  0.47787270830E+02  0.19999999023E+02 0.  0.
         12    1    3    3    0    0 -0.11884883762E+02 -0.81945677849E+01  0.40929474578E+02  0.43400729170E+02  0.00000000000E+00 0. -1.
         11    1    4    4    0    0 -0.80628850838E+00  0.32433951231E+01  0.35355167103E+00  0.33607606473E+01  0.51100000000E-03 0. -1.
        -11    1    4    4    0    0  0.67843880787E+01  0.66041931306E+01 -0.31385164297E+02  0.32782187644E+02  0.51100000000E-03 0.  1.
        -12    1    4    4    0    0  0.59067841920E+01 -0.16530204688E+01 -0.98978619524E+01  0.11644322539E+02  0.00000000000E+00 0.  1.
</event>
<event>
 8    1  0.6469014E-010  0.9118800E+02  0.7816164E-02  0.1184000E+00
        -11   -1    0    0    0    0  0.00000000000E+00  0.00000000000E+00  0.45593999997E+02  0.45594000000E+02  0.51100000000E-03 0. -1.
         11   -1    0    0    0    0 -0.00000000000E+00 -0.00000000000E+00 -0.45593999997E+02  0.45594000000E+02  0.51100000000E-03 0.  1.
         23    2    1    2    0    0 -0.35527136788E-14  0.00000000000E+00  0.00000000000E+00  0.91188000000E+02  0.91188000000E+02 0.  0.
    9900012    2    3    3    0    0 -0.23097092048E+02 -0.34160647106E+01 -0.36585219718E+02  0.47787268889E+02  0.19999990171E+02 0.  0.
         12    1    3    3    0    0  0.23097092048E+02  0.34160647106E+01  0.36585219718E+02  0.43400731111E+02  0.00000000000E+00 0. -1.
         11    1    4    4    0    0 -0.27058984514E+01  0.36268791661E+01 -0.35373241104E+00  0.45388617289E+01  0.51100000000E-03 0. -1.
        -11    1    4    4    0    0 -0.14107572883E+02 -0.72465776352E+01 -0.31865457767E+02  0.35594155405E+02  0.51100000000E-03 0.  1.
        -12    1    4    4    0    0 -0.62836207129E+01  0.20363375851E+00 -0.43660295406E+01  0.76542517545E+01  0.00000000000E+00 0.  1.
</event>
<event>
 8    1  0.6469014E-010  0.9118800E+02  0.7816164E-02  0.1184000E+00
        -11   -1    0    0    0    0  0.00000000000E+00  0.00000000000E+00  0.45593999997E+02  0.45594000000E+02  0.51100000000E-03 0. -1.
         11   -1    0    0    0    0 -0.00000000000E+00 -0.00000000000E+00 -0.45593999997E+02  0.45594000000E+02  0.51100000000E-03 0.  1.
         23    2    1    2    0    0 -0.35527136788E-14  0.00000000000E+00 -0.71054273576E-14  0.91188000000E+02  0.91188000000E+02 0.  0.
    9900012    2    3    3    0    0 -0.23429186930E+02  0.14148571883E+02 -0.33682550136E+02  0.47787273391E+02  0.20000010697E+02 0.  0.
         12    1    3    3    0    0  0.23429186930E+02 -0.14148571883E+02  0.33682550136E+02  0.43400726609E+02  0.00000000000E+00 0. -1.
         11    1    4    4    0    0 -0.14800450423E+02  0.16170541577E+02 -0.25464074650E+02  0.33599982823E+02  0.51100000000E-03 0. -1.
        -11    1    4    4    0    0 -0.59857369884E+01  0.23328689605E+01 -0.52080630463E+01  0.82701418269E+01  0.51100000000E-03 0.  1.
         12    1    4    4    0    0 -0.26429995184E+01 -0.43548386548E+01 -0.30104124399E+01  0.59171487409E+01  0.00000000000E+00 0. -1.
</event>
<event>
 8    1  0.6469014E-010  0.9118800E+02  0.7816164E-02  0.1184000E+00
        -11   -1    0    0    0    0  0.00000000000E+00  0.00000000000E+00  0.45593999997E+02  0.45594000000E+02  0.51100000000E-03 0. -1.
         11   -1    0    0    0    0 -0.00000000000E+00 -0.00000000000E+00 -0.45593999997E+02  0.45594000000E+02  0.51100000000E-03 0.  1.
         23    2    1    2    0    0 -0.71054273576E-14  0.88817841970E-15  0.00000000000E+00  0.91188000000E+02  0.91188000000E+02 0.  0.
    9900012    2    3    3    0    0  0.27541786103E+02 -0.41938666387E+01 -0.33278891644E+02  0.47787272723E+02  0.20000007654E+02 0.  0.
         12    1    3    3    0    0 -0.27541786103E+02  0.41938666387E+01  0.33278891644E+02  0.43400727277E+02  0.00000000000E+00 0. -1.
         11    1    4    4    0    0 -0.40473436250E+00  0.15846264347E+01 -0.78889445567E+00  0.18158209067E+01  0.51100000000E-03 0. -1.
        -11    1    4    4    0    0 -0.19449598930E+01 -0.60068450326E+00 -0.10838307134E+01  0.23061613418E+01  0.51100000000E-03 0.  1.
        -12    1    4    4    0    0  0.29891480358E+02 -0.51778085701E+01 -0.31406166475E+02  0.43665290475E+02  0.00000000000E+00 0.  1.
</event>
<event>
 8    1  0.6469014E-010  0.9118800E+02  0.7816164E-02  0.1184000E+00
        -11   -1    0    0    0    0  0.00000000000E+00  0.00000000000E+00  0.45593999997E+02  0.45594000000E+02  0.51100000000E-03 0. -1.
         11   -1    0    0    0    0 -0.00000000000E+00 -0.00000000000E+00 -0.45593999997E+02  0.45594000000E+02  0.51100000000E-03 0.  1.
         23    2    1    2    0    0  0.00000000000E+00  0.35527136788E-14  0.00000000000E+00  0.91188000000E+02  0.91188000000E+02 0.  0.
    9900012    2    3    3    0    0  0.32330153824E+02 -0.26217330525E+02  0.12289679189E+02  0.47787268662E+02  0.19999989136E+02 0.  0.
        -12    1    3    3    0    0 -0.32330153824E+02  0.26217330525E+02 -0.12289679189E+02  0.43400731338E+02  0.00000000000E+00 0.  1.
         11    1    4    4    0    0  0.18420390928E+02 -0.36305727673E+01  0.34586664581E+01  0.19090684495E+02  0.51100000000E-03 0. -1.
        -11    1    4    4    0    0  0.11784889776E+02 -0.17709636202E+02  0.42867307594E+01  0.21700020790E+02  0.51100000000E-03 0.  1.
         12    1    4    4    0    0  0.21248731207E+01 -0.48771215561E+01  0.45442819712E+01  0.69965633769E+01  0.00000000000E+00 0. -1.
</event>
<event>
 8    1  0.6469014E-010  0.9118800E+02  0.7816164E-02  0.1184000E+00
        -11   -1    0    0    0    0  0.00000000000E+00  0.00000000000E+00  0.45593999997E+02  0.45594000000E+02  0.51100000000E-03 0. -1.
         11   -1    0    0    0    0 -0.00000000000E+00 -0.00000000000E+00 -0.45593999997E+02  0.45594000000E+02  0.51100000000E-03 0.  1.
         23    2    1    2    0    0  0.35527136788E-14  0.00000000000E+00 -0.71054273576E-14  0.91188000000E+02  0.91188000000E+02 0.  0.
    9900012    2    3    3    0    0 -0.13006238602E+02 -0.21510342882E+01  0.41350141037E+02  0.47787270112E+02  0.19999995747E+02 0.  0.
        -12    1    3    3    0    0  0.13006238602E+02  0.21510342882E+01 -0.41350141037E+02  0.43400729888E+02  0.00000000000E+00 0.  1.
         11    1    4    4    0    0  0.51327733301E+00 -0.22371780227E+01  0.27357565798E+02  0.27453685103E+02  0.51100000000E-03 0. -1.
        -11    1    4    4    0    0 -0.49666793960E+01 -0.30116658734E+00  0.15153566415E+01  0.52014336051E+01  0.51100000000E-03 0.  1.
         12    1    4    4    0    0 -0.85528365391E+01  0.38731032184E+00  0.12477218598E+02  0.15132151403E+02  0.00000000000E+00 0. -1.
</event>
<event>
 8    1  0.6469014E-010  0.9118800E+02  0.7816164E-02  0.1184000E+00
        -11   -1    0    0    0    0  0.00000000000E+00  0.00000000000E+00  0.45593999997E+02  0.45594000000E+02  0.51100000000E-03 0. -1.
         11   -1    0    0    0    0 -0.00000000000E+00 -0.00000000000E+00 -0.45593999997E+02  0.45594000000E+02  0.51100000000E-03 0.  1.
         23    2    1    2    0    0  0.00000000000E+00  0.00000000000E+00  0.00000000000E+00  0.91188000000E+02  0.91188000000E+02 0.  0.
    9900012    2    3    3    0    0 -0.28460191437E+02  0.21932692440E+02  0.24343338367E+02  0.47787267090E+02  0.19999981969E+02 0.  0.
        -12    1    3    3    0    0  0.28460191437E+02 -0.21932692440E+02 -0.24343338367E+02  0.43400732910E+02  0.00000000000E+00 0.  1.
         11    1    4    4    0    0 -0.10356380935E+02  0.60355015049E+01  0.25218858762E+00  0.11989391304E+02  0.51100000000E-03 0.  1.
        -11    1    4    4    0    0 -0.40802963667E+01  0.70564026525E+01  0.14531139548E+02  0.16661202047E+02  0.51100000000E-03 0. -1.
         12    1    4    4    0    0 -0.14023514135E+02  0.88407882823E+01  0.95600102318E+01  0.19136673739E+02  0.00000000000E+00 0. -1.
</event>
<event>
 8    1  0.6469014E-010  0.9118800E+02  0.7816164E-02  0.1184000E+00
        -11   -1    0    0    0    0  0.00000000000E+00  0.00000000000E+00  0.45593999997E+02  0.45594000000E+02  0.51100000000E-03 0. -1.
         11   -1    0    0    0    0 -0.00000000000E+00 -0.00000000000E+00 -0.45593999997E+02  0.45594000000E+02  0.51100000000E-03 0.  1.
         23    2    1    2    0    0  0.00000000000E+00  0.00000000000E+00 -0.88817841970E-15  0.91188000000E+02  0.91188000000E+02 0.  0.
    9900012    2    3    3    0    0  0.40033179259E+02  0.16755460626E+02 -0.47082546588E+00  0.47787279050E+02  0.20000036499E+02 0.  0.
         12    1    3    3    0    0 -0.40033179259E+02 -0.16755460626E+02  0.47082546588E+00  0.43400720950E+02  0.00000000000E+00 0. -1.
         11    1    4    4    0    0  0.12385175333E+02  0.11983716493E+01  0.56339828725E+01  0.13659078516E+02  0.51100000000E-03 0. -1.
        -11    1    4    4    0    0  0.18749564007E+02  0.12199580175E+02 -0.91113373390E+01  0.24153516830E+02  0.51100000000E-03 0.  1.
        -12    1    4    4    0    0  0.88984399195E+01  0.33575088017E+01  0.30065290006E+01  0.99746837036E+01  0.00000000000E+00 0.  1.
</event>
<event>
 8    1  0.6469014E-010  0.9118800E+02  0.7816164E-02  0.1184000E+00
        -11   -1    0    0    0    0  0.00000000000E+00  0.00000000000E+00  0.45593999997E+02  0.45594000000E+02  0.51100000000E-03 0. -1.
         11   -1    0    0    0    0 -0.00000000000E+00 -0.00000000000E+00 -0.45593999997E+02  0.45594000000E+02  0.51100000000E-03 0.  1.
         23    2    1    2    0    0  0.00000000000E+00  0.35527136788E-14  0.35527136788E-14  0.91188000000E+02  0.91188000000E+02 0.  0.
    9900012    2    3    3    0    0  0.84134116817E+01 -0.28362452102E+02 -0.31755447577E+02  0.47787278391E+02  0.20000033494E+02 0.  0.
         12    1    3    3    0    0 -0.84134116817E+01  0.28362452102E+02  0.31755447577E+02  0.43400721609E+02  0.00000000000E+00 0. -1.
         11    1    4    4    0    0  0.10888093220E+02 -0.98339954638E+01 -0.11269931906E+02  0.18500524484E+02  0.51100000000E-03 0. -1.
        -11    1    4    4    0    0  0.24300205852E+01 -0.34766648293E+01 -0.82578367249E+01  0.92835373655E+01  0.51100000000E-03 0.  1.
         12    1    4    4    0    0 -0.49047021232E+01 -0.15051791809E+02 -0.12227678946E+02  0.20003216541E+02  0.00000000000E+00 0. -1.
</event>
<event>
 8    1  0.6469014E-010  0.9118800E+02  0.7816164E-02  0.1184000E+00
        -11   -1    0    0    0    0  0.00000000000E+00  0.00000000000E+00  0.45593999997E+02  0.45594000000E+02  0.51100000000E-03 0. -1.
         11   -1    0    0    0    0 -0.00000000000E+00 -0.00000000000E+00 -0.45593999997E+02  0.45594000000E+02  0.51100000000E-03 0.  1.
         23    2    1    2    0    0 -0.35527136788E-14 -0.22204460493E-15  0.71054273576E-14  0.91188000000E+02  0.91188000000E+02 0.  0.
    9900012    2    3    3    0    0  0.27747349326E+02 -0.10707480914E+01  0.33355080562E+02  0.47787270797E+02  0.19999998873E+02 0.  0.
        -12    1    3    3    0    0 -0.27747349326E+02  0.10707480914E+01 -0.33355080562E+02  0.43400729203E+02  0.00000000000E+00 0.  1.
         11    1    4    4    0    0  0.78822231896E+01  0.30502827393E+01  0.15739609188E+01  0.85971518793E+01  0.51100000000E-03 0. -1.
        -11    1    4    4    0    0  0.88786276519E+01 -0.16648462506E+01  0.23611321082E+02  0.25280352559E+02  0.51100000000E-03 0.  1.
        -12    1    4    4    0    0  0.10986498484E+02 -0.24561845801E+01  0.81697985611E+01  0.13909766359E+02  0.00000000000E+00 0.  1.
</event>
<event>
 8    1  0.6469014E-010  0.9118800E+02  0.7816164E-02  0.1184000E+00
        -11   -1    0    0    0    0  0.00000000000E+00  0.00000000000E+00  0.45593999997E+02  0.45594000000E+02  0.51100000000E-03 0.  1.
         11   -1    0    0    0    0 -0.00000000000E+00 -0.00000000000E+00 -0.45593999997E+02  0.45594000000E+02  0.51100000000E-03 0. -1.
         23    2    1    2    0    0 -0.71054273576E-14  0.00000000000E+00  0.17763568394E-14  0.91188000000E+02  0.91188000000E+02 0.  0.
    9900012    2    3    3    0    0  0.37786599142E+02  0.17293415015E+02 -0.12519329458E+02  0.47787275494E+02  0.20000020288E+02 0.  0.
         12    1    3    3    0    0 -0.37786599142E+02 -0.17293415015E+02  0.12519329458E+02  0.43400724506E+02  0.00000000000E+00 0. -1.
         11    1    4    4    0    0  0.26754321219E+01  0.35617168744E+01  0.36261982460E+01  0.57439601420E+01  0.51100000000E-03 0. -1.
        -11    1    4    4    0    0  0.28641641949E+02  0.10953375425E+02 -0.88768054019E+01  0.31923623872E+02  0.51100000000E-03 0.  1.
        -12    1    4    4    0    0  0.64695250708E+01  0.27783227150E+01 -0.72687223016E+01  0.10119691480E+02  0.00000000000E+00 0.  1.
</event>
<event>
 8    1  0.6469014E-010  0.9118800E+02  0.7816164E-02  0.1184000E+00
        -11   -1    0    0    0    0  0.00000000000E+00  0.00000000000E+00  0.45593999997E+02  0.45594000000E+02  0.51100000000E-03 0. -1.
         11   -1    0    0    0    0 -0.00000000000E+00 -0.00000000000E+00 -0.45593999997E+02  0.45594000000E+02  0.51100000000E-03 0.  1.
         23    2    1    2    0    0 -0.22204460493E-15  0.00000000000E+00  0.00000000000E+00  0.91188000000E+02  0.91188000000E+02 0.  0.
    9900012    2    3    3    0    0  0.15763673181E+01 -0.13377944141E+02  0.41257333929E+02  0.47787286570E+02  0.20000070786E+02 0.  0.
        -12    1    3    3    0    0 -0.15763673181E+01  0.13377944141E+02 -0.41257333929E+02  0.43400713430E+02  0.00000000000E+00 0.  1.
         11    1    4    4    0    0 -0.51914075443E+01 -0.85936197899E+01  0.31085607534E+02  0.32666741641E+02  0.51100000000E-03 0. -1.
        -11    1    4    4    0    0  0.52210074093E+01 -0.65611621185E+00  0.92117626960E+01  0.10608768971E+02  0.51100000000E-03 0.  1.
         12    1    4    4    0    0  0.15467674532E+01 -0.41282081389E+01  0.95996369839E+00  0.45117759579E+01  0.00000000000E+00 0. -1.
</event>
<event>
 8    1  0.6469014E-010  0.9118800E+02  0.7816164E-02  0.1184000E+00
        -11   -1    0    0    0    0  0.00000000000E+00  0.00000000000E+00  0.45593999997E+02  0.45594000000E+02  0.51100000000E-03 0.  1.
         11   -1    0    0    0    0 -0.00000000000E+00 -0.00000000000E+00 -0.45593999997E+02  0.45594000000E+02  0.51100000000E-03 0. -1.
         23    2    1    2    0    0 -0.88817841970E-15  0.00000000000E+00  0.00000000000E+00  0.91188000000E+02  0.91188000000E+02 0.  0.
    9900012    2    3    3    0    0 -0.75047570916E+01 -0.40686153832E+02  0.13112570393E+02  0.47787262737E+02  0.19999962125E+02 0.  0.
        -12    1    3    3    0    0  0.75047570916E+01  0.40686153832E+02 -0.13112570393E+02  0.43400737263E+02  0.00000000000E+00 0.  1.
         11    1    4    4    0    0  0.18261096777E+01 -0.46224298684E+01  0.29141682819E+01  0.57614157530E+01  0.51100000000E-03 0. -1.
        -11    1    4    4    0    0  0.53848544596E+00 -0.23120209007E+02  0.60967036748E+00  0.23134513812E+02  0.51100000000E-03 0.  1.
        -12    1    4    4    0    0 -0.98693522153E+01 -0.12943514957E+02  0.95887317436E+01  0.18891333173E+02  0.00000000000E+00 0.  1.
</event>
<event>
 8    1  0.6469014E-010  0.9118800E+02  0.7816164E-02  0.1184000E+00
        -11   -1    0    0    0    0  0.00000000000E+00  0.00000000000E+00  0.45593999997E+02  0.45594000000E+02  0.51100000000E-03 0. -1.
         11   -1    0    0    0    0 -0.00000000000E+00 -0.00000000000E+00 -0.45593999997E+02  0.45594000000E+02  0.51100000000E-03 0.  1.
         23    2    1    2    0    0  0.71054273576E-14  0.00000000000E+00  0.35527136788E-14  0.91188000000E+02  0.91188000000E+02 0.  0.
    9900012    2    3    3    0    0 -0.28057011847E+02  0.89193791264E+01 -0.31888437749E+02  0.47787266137E+02  0.19999977627E+02 0.  0.
         12    1    3    3    0    0  0.28057011847E+02 -0.89193791264E+01  0.31888437749E+02  0.43400733863E+02  0.00000000000E+00 0. -1.
         11    1    4    4    0    0 -0.36806355219E+01  0.75526662322E+01 -0.15960119743E+02  0.18036498206E+02  0.51100000000E-03 0. -1.
        -11    1    4    4    0    0 -0.18090675165E+02  0.34119294920E+01 -0.12903931845E+02  0.22481664709E+02  0.51100000000E-03 0.  1.
         12    1    4    4    0    0 -0.62857011603E+01 -0.20452165978E+01 -0.30243861603E+01  0.72691032222E+01  0.00000000000E+00 0. -1.
</event>
<event>
 8    1  0.6469014E-010  0.9118800E+02  0.7816164E-02  0.1184000E+00
        -11   -1    0    0    0    0  0.00000000000E+00  0.00000000000E+00  0.45593999997E+02  0.45594000000E+02  0.51100000000E-03 0. -1.
         11   -1    0    0    0    0 -0.00000000000E+00 -0.00000000000E+00 -0.45593999997E+02  0.45594000000E+02  0.51100000000E-03 0.  1.
         23    2    1    2    0    0  0.71054273576E-14 -0.35527136788E-14  0.88817841970E-15  0.91188000000E+02  0.91188000000E+02 0.  0.
    9900012    2    3    3    0    0  0.32410763479E+02 -0.27804122532E+02 -0.77523043608E+01  0.47787250675E+02  0.19999907126E+02 0.  0.
         12    1    3    3    0    0 -0.32410763479E+02  0.27804122532E+02  0.77523043608E+01  0.43400749325E+02  0.00000000000E+00 0. -1.
         11    1    4    4    0    0  0.19196489444E+02 -0.63533774102E+01  0.14606726340E+01  0.20273237933E+02  0.51100000000E-03 0. -1.
        -11    1    4    4    0    0  0.46112452063E+01 -0.12046680183E+02 -0.26131830837E+01  0.13161109827E+02  0.51100000000E-03 0.  1.
        -12    1    4    4    0    0  0.86030288288E+01 -0.94040649392E+01 -0.65997939111E+01  0.14352902915E+02  0.00000000000E+00 0.  1.
</event>
<event>
 8    1  0.6469014E-010  0.9118800E+02  0.7816164E-02  0.1184000E+00
        -11   -1    0    0    0    0  0.00000000000E+00  0.00000000000E+00  0.45593999997E+02  0.45594000000E+02  0.51100000000E-03 0. -1.
         11   -1    0    0    0    0 -0.00000000000E+00 -0.00000000000E+00 -0.45593999997E+02  0.45594000000E+02  0.51100000000E-03 0.  1.
         23    2    1    2    0    0  0.00000000000E+00 -0.44408920985E-15  0.00000000000E+00  0.91188000000E+02  0.91188000000E+02 0.  0.
    9900012    2    3    3    0    0  0.19029063671E+02  0.11675684748E+01 -0.38989167810E+02  0.47787266286E+02  0.19999978306E+02 0.  0.
         12    1    3    3    0    0 -0.19029063671E+02 -0.11675684748E+01  0.38989167810E+02  0.43400733714E+02  0.00000000000E+00 0. -1.
         11    1    4    4    0    0  0.68293907271E+01 -0.87154785784E+00 -0.30130782230E+01  0.75152387861E+01  0.51100000000E-03 0. -1.
        -11    1    4    4    0    0  0.84976075999E+01 -0.43149817357E+01 -0.27204711648E+02  0.28825765183E+02  0.51100000000E-03 0.  1.
        -12    1    4    4    0    0  0.37020653442E+01  0.63540980683E+01 -0.87713779398E+01  0.11446262317E+02  0.00000000000E+00 0.  1.
</event>
<event>
 8    1  0.6469014E-010  0.9118800E+02  0.7816164E-02  0.1184000E+00
        -11   -1    0    0    0    0  0.00000000000E+00  0.00000000000E+00  0.45593999997E+02  0.45594000000E+02  0.51100000000E-03 0. -1.
         11   -1    0    0    0    0 -0.00000000000E+00 -0.00000000000E+00 -0.45593999997E+02  0.45594000000E+02  0.51100000000E-03 0.  1.
         23    2    1    2    0    0  0.00000000000E+00  0.00000000000E+00  0.00000000000E+00  0.91188000000E+02  0.91188000000E+02 0.  0.
    9900012    2    3    3    0    0 -0.23533437075E+02  0.23832296926E+02  0.27601211164E+02  0.47787217806E+02  0.19999757262E+02 0.  0.
        -12    1    3    3    0    0  0.23533437075E+02 -0.23832296926E+02 -0.27601211164E+02  0.43400782194E+02  0.00000000000E+00 0.  1.
         11    1    4    4    0    0  0.10997245398E+01  0.70166122160E+01  0.36008568079E+00  0.71113924805E+01  0.51100000000E-03 0.  1.
        -11    1    4    4    0    0 -0.13409035533E+02  0.72231638251E+01  0.16229631319E+02  0.22257072192E+02  0.51100000000E-03 0. -1.
         12    1    4    4    0    0 -0.11224126082E+02  0.95925208853E+01  0.11011494164E+02  0.18418753133E+02  0.00000000000E+00 0. -1.
</event>
<event>
 8    1  0.6469014E-010  0.9118800E+02  0.7816164E-02  0.1184000E+00
        -11   -1    0    0    0    0  0.00000000000E+00  0.00000000000E+00  0.45593999997E+02  0.45594000000E+02  0.51100000000E-03 0. -1.
         11   -1    0    0    0    0 -0.00000000000E+00 -0.00000000000E+00 -0.45593999997E+02  0.45594000000E+02  0.51100000000E-03 0.  1.
         23    2    1    2    0    0  0.00000000000E+00  0.00000000000E+00  0.00000000000E+00  0.91188000000E+02  0.91188000000E+02 0.  0.
    9900012    2    3    3    0    0 -0.10125643677E+02  0.37440337310E+02 -0.19476026404E+02  0.47787272791E+02  0.20000007964E+02 0.  0.
         12    1    3    3    0    0  0.10125643677E+02 -0.37440337310E+02  0.19476026404E+02  0.43400727209E+02  0.00000000000E+00 0. -1.
         11    1    4    4    0    0 -0.16300768578E+01  0.11951368521E+02  0.10515694019E+01  0.12107772651E+02  0.51100000000E-03 0. -1.
        -11    1    4    4    0    0 -0.47608627557E+01  0.61390466901E+01 -0.11796705803E+02  0.14125012443E+02  0.51100000000E-03 0.  1.
         12    1    4    4    0    0 -0.37347040636E+01  0.19349922099E+02 -0.87308900029E+01  0.21554487698E+02  0.00000000000E+00 0. -1.
</event>
<event>
 8    1  0.6469014E-010  0.9118800E+02  0.7816164E-02  0.1184000E+00
        -11   -1    0    0    0    0  0.00000000000E+00  0.00000000000E+00  0.45593999997E+02  0.45594000000E+02  0.51100000000E-03 0. -1.
         11   -1    0    0    0    0 -0.00000000000E+00 -0.00000000000E+00 -0.45593999997E+02  0.45594000000E+02  0.51100000000E-03 0.  1.
         23    2    1    2    0    0  0.00000000000E+00  0.00000000000E+00  0.00000000000E+00  0.91188000000E+02  0.91188000000E+02 0.  0.
    9900012    2    3    3    0    0 -0.68655118178E+01  0.37666971405E+02  0.20437398213E+02  0.47787271515E+02  0.20000002145E+02 0.  0.
        -12    1    3    3    0    0  0.68655118178E+01 -0.37666971405E+02 -0.20437398213E+02  0.43400728485E+02  0.00000000000E+00 0.  1.
         11    1    4    4    0    0  0.12328088840E+01  0.19437422205E+02  0.13833937277E+02  0.23889558819E+02  0.51100000000E-03 0. -1.
        -11    1    4    4    0    0 -0.35856504832E+01  0.46563026836E+01 -0.30695783356E+01  0.66302605898E+01  0.51100000000E-03 0.  1.
         12    1    4    4    0    0 -0.45126702186E+01  0.13573246516E+02  0.96730392714E+01  0.17267452106E+02  0.00000000000E+00 0. -1.
</event>
<event>
 8    1  0.6469014E-010  0.9118800E+02  0.7816164E-02  0.1184000E+00
        -11   -1    0    0    0    0  0.00000000000E+00  0.00000000000E+00  0.45593999997E+02  0.45594000000E+02  0.51100000000E-03 0. -1.
         11   -1    0    0    0    0 -0.00000000000E+00 -0.00000000000E+00 -0.45593999997E+02  0.45594000000E+02  0.51100000000E-03 0.  1.
         23    2    1    2    0    0  0.00000000000E+00  0.17763568394E-14  0.71054273576E-14  0.91188000000E+02  0.91188000000E+02 0.  0.
    9900012    2    3    3    0    0 -0.23218334492E+02 -0.11967169998E+02  0.34660049860E+02  0.47787271081E+02  0.20000000168E+02 0.  0.
        -12    1    3    3    0    0  0.23218334492E+02  0.11967169998E+02 -0.34660049860E+02  0.43400728919E+02  0.00000000000E+00 0.  1.
         11    1    4    4    0    0 -0.85185018347E+00 -0.18376773540E+01 -0.10735877973E+01  0.22924436334E+01  0.51100000000E-03 0.  1.
        -11    1    4    4    0    0 -0.21686727311E+02 -0.11907043058E+02  0.35883608137E+02  0.43585836565E+02  0.51100000000E-03 0. -1.
         12    1    4    4    0    0 -0.67975699760E+00  0.17775504133E+01 -0.14997047972E+00  0.19089908833E+01  0.00000000000E+00 0. -1.
</event>
<event>
 8    1  0.6469014E-010  0.9118800E+02  0.7816164E-02  0.1184000E+00
        -11   -1    0    0    0    0  0.00000000000E+00  0.00000000000E+00  0.45593999997E+02  0.45594000000E+02  0.51100000000E-03 0. -1.
         11   -1    0    0    0    0 -0.00000000000E+00 -0.00000000000E+00 -0.45593999997E+02  0.45594000000E+02  0.51100000000E-03 0.  1.
         23    2    1    2    0    0 -0.44408920985E-15  0.17763568394E-14  0.71054273576E-14  0.91188000000E+02  0.91188000000E+02 0.  0.
    9900012    2    3    3    0    0 -0.35712614113E+01  0.13639122115E+02  0.41046852271E+02  0.47787266810E+02  0.19999980692E+02 0.  0.
        -12    1    3    3    0    0  0.35712614113E+01 -0.13639122115E+02 -0.41046852271E+02  0.43400733190E+02  0.00000000000E+00 0.  1.
         11    1    4    4    0    0 -0.46794192510E+01  0.10213219074E+02  0.15889993677E+02  0.19460182623E+02  0.51100000000E-03 0. -1.
        -11    1    4    4    0    0  0.31863724985E+01 -0.35547865582E+01  0.50855554357E+01  0.69751237641E+01  0.51100000000E-03 0.  1.
         12    1    4    4    0    0 -0.20782146589E+01  0.69806895989E+01  0.20071303158E+02  0.21351960423E+02  0.00000000000E+00 0. -1.
</event>
<event>
 8    1  0.6469014E-010  0.9118800E+02  0.7816164E-02  0.1184000E+00
        -11   -1    0    0    0    0  0.00000000000E+00  0.00000000000E+00  0.45593999997E+02  0.45594000000E+02  0.51100000000E-03 0. -1.
         11   -1    0    0    0    0 -0.00000000000E+00 -0.00000000000E+00 -0.45593999997E+02  0.45594000000E+02  0.51100000000E-03 0.  1.
         23    2    1    2    0    0 -0.71054273576E-14  0.00000000000E+00  0.00000000000E+00  0.91188000000E+02  0.91188000000E+02 0.  0.
    9900012    2    3    3    0    0 -0.36508896845E+02 -0.10063226991E+02  0.21200359489E+02  0.47787270412E+02  0.19999997116E+02 0.  0.
        -12    1    3    3    0    0  0.36508896845E+02  0.10063226991E+02 -0.21200359489E+02  0.43400729588E+02  0.00000000000E+00 0.  1.
         11    1    4    4    0    0 -0.21636419275E+02 -0.13789210069E+02  0.12249444998E+02  0.28431072023E+02  0.51100000000E-03 0. -1.
        -11    1    4    4    0    0 -0.12627680632E+02  0.41633086688E+01  0.39715897432E+01  0.13876778537E+02  0.51100000000E-03 0.  1.
        -12    1    4    4    0    0 -0.22447969381E+01 -0.43732559080E+00  0.49793247482E+01  0.54794198519E+01  0.00000000000E+00 0.  1.
</event>
<event>
 8    1  0.6469014E-010  0.9118800E+02  0.7816164E-02  0.1184000E+00
        -11   -1    0    0    0    0  0.00000000000E+00  0.00000000000E+00  0.45593999997E+02  0.45594000000E+02  0.51100000000E-03 0. -1.
         11   -1    0    0    0    0 -0.00000000000E+00 -0.00000000000E+00 -0.45593999997E+02  0.45594000000E+02  0.51100000000E-03 0.  1.
         23    2    1    2    0    0  0.00000000000E+00  0.35527136788E-14  0.00000000000E+00  0.91188000000E+02  0.91188000000E+02 0.  0.
    9900012    2    3    3    0    0 -0.16404608725E+02  0.29668483003E+02 -0.27097845956E+02  0.47787270437E+02  0.19999997232E+02 0.  0.
         12    1    3    3    0    0  0.16404608725E+02 -0.29668483003E+02  0.27097845956E+02  0.43400729563E+02  0.00000000000E+00 0. -1.
         11    1    4    4    0    0  0.29379300111E+01  0.55744492037E+01 -0.99887835996E+01  0.11810237709E+02  0.51100000000E-03 0. -1.
        -11    1    4    4    0    0 -0.14213869821E+02  0.17897725598E+02 -0.90235565438E+01  0.24572082733E+02  0.51100000000E-03 0.  1.
         12    1    4    4    0    0 -0.51286689151E+01  0.61963082009E+01 -0.80855058125E+01  0.11404949996E+02  0.00000000000E+00 0. -1.
</event>
<event>
 8    1  0.6469014E-010  0.9118800E+02  0.7816164E-02  0.1184000E+00
        -11   -1    0    0    0    0  0.00000000000E+00  0.00000000000E+00  0.45593999997E+02  0.45594000000E+02  0.51100000000E-03 0. -1.
         11   -1    0    0    0    0 -0.00000000000E+00 -0.00000000000E+00 -0.45593999997E+02  0.45594000000E+02  0.51100000000E-03 0.  1.
         23    2    1    2    0    0 -0.71054273576E-14  0.00000000000E+00  0.13322676296E-14  0.91188000000E+02  0.91188000000E+02 0.  0.
    9900012    2    3    3    0    0 -0.35267826957E+02 -0.25032483656E+02 -0.36302142850E+01  0.47787270605E+02  0.19999997997E+02 0.  0.
        -12    1    3    3    0    0  0.35267826957E+02  0.25032483656E+02  0.36302142850E+01  0.43400729395E+02  0.00000000000E+00 0.  1.
         11    1    4    4    0    0 -0.29895497938E+01 -0.50079084416E+01 -0.19426035022E+01  0.61473785923E+01  0.51100000000E-03 0. -1.
        -11    1    4    4    0    0 -0.27011631985E+02 -0.13783486842E+02 -0.79487597736E+01  0.31349570240E+02  0.51100000000E-03 0.  1.
        -12    1    4    4    0    0 -0.52666451777E+01 -0.62410883727E+01  0.62611489907E+01  0.10290321773E+02  0.00000000000E+00 0.  1.
</event>
<event>
 8    1  0.6469014E-010  0.9118800E+02  0.7816164E-02  0.1184000E+00
        -11   -1    0    0    0    0  0.00000000000E+00  0.00000000000E+00  0.45593999997E+02  0.45594000000E+02  0.51100000000E-03 0.  1.
         11   -1    0    0    0    0 -0.00000000000E+00 -0.00000000000E+00 -0.45593999997E+02  0.45594000000E+02  0.51100000000E-03 0. -1.
         23    2    1    2    0    0  0.00000000000E+00  0.00000000000E+00 -0.13322676296E-14  0.91188000000E+02  0.91188000000E+02 0.  0.
    9900012    2    3    3    0    0  0.39883686543E+02 -0.16683435044E+02  0.38181066501E+01  0.47787269643E+02  0.19999993611E+02 0.  0.
        -12    1    3    3    0    0 -0.39883686543E+02  0.16683435044E+02 -0.38181066501E+01  0.43400730357E+02  0.00000000000E+00 0.  1.
         11    1    4    4    0    0  0.10313987481E+02 -0.86198430746E-02 -0.15739073645E+01  0.10433388554E+02  0.51100000000E-03 0. -1.
        -11    1    4    4    0    0  0.25876279363E+02 -0.14822230568E+02  0.97250648267E+01  0.31366498670E+02  0.51100000000E-03 0.  1.
        -12    1    4    4    0    0  0.36934196988E+01 -0.18525846325E+01 -0.43330508121E+01  0.59873824190E+01  0.00000000000E+00 0.  1.
</event>
<event>
 8    1  0.6469014E-010  0.9118800E+02  0.7816164E-02  0.1184000E+00
        -11   -1    0    0    0    0  0.00000000000E+00  0.00000000000E+00  0.45593999997E+02  0.45594000000E+02  0.51100000000E-03 0. -1.
         11   -1    0    0    0    0 -0.00000000000E+00 -0.00000000000E+00 -0.45593999997E+02  0.45594000000E+02  0.51100000000E-03 0.  1.
         23    2    1    2    0    0  0.00000000000E+00  0.00000000000E+00  0.00000000000E+00  0.91188000000E+02  0.91188000000E+02 0.  0.
    9900012    2    3    3    0    0 -0.15156964307E+02  0.15210841844E+02  0.37716311345E+02  0.47787269383E+02  0.19999992426E+02 0.  0.
        -12    1    3    3    0    0  0.15156964307E+02 -0.15210841844E+02 -0.37716311345E+02  0.43400730617E+02  0.00000000000E+00 0.  1.
         11    1    4    4    0    0 -0.19231384088E+01  0.15696742553E+02  0.23771552225E+02  0.28551232611E+02  0.51100000000E-03 0. -1.
        -11    1    4    4    0    0 -0.70559624074E+01 -0.15605089037E+00  0.71444600408E+01  0.10042622512E+02  0.51100000000E-03 0.  1.
         12    1    4    4    0    0 -0.61778634911E+01 -0.32984981913E+00  0.68002990786E+01  0.91934142612E+01  0.00000000000E+00 0. -1.
</event>
<event>
 8    1  0.6469014E-010  0.9118800E+02  0.7816164E-02  0.1184000E+00
        -11   -1    0    0    0    0  0.00000000000E+00  0.00000000000E+00  0.45593999997E+02  0.45594000000E+02  0.51100000000E-03 0. -1.
         11   -1    0    0    0    0 -0.00000000000E+00 -0.00000000000E+00 -0.45593999997E+02  0.45594000000E+02  0.51100000000E-03 0.  1.
         23    2    1    2    0    0 -0.35527136788E-14  0.35527136788E-14  0.35527136788E-14  0.91188000000E+02  0.91188000000E+02 0.  0.
    9900012    2    3    3    0    0  0.22933321102E+02 -0.21670305908E+02 -0.29800734743E+02  0.47787272286E+02  0.20000005659E+02 0.  0.
         12    1    3    3    0    0 -0.22933321102E+02  0.21670305908E+02  0.29800734743E+02  0.43400727714E+02  0.00000000000E+00 0. -1.
         11    1    4    4    0    0 -0.50237301767E+00  0.33146385461E+00  0.17501392293E+00  0.62679906680E+00  0.51100000000E-03 0. -1.
        -11    1    4    4    0    0  0.18209075884E+01  0.37586747298E+00  0.18718006754E+01  0.26382984730E+01  0.51100000000E-03 0.  1.
        -12    1    4    4    0    0  0.21614786532E+02 -0.22377637236E+02 -0.31847549341E+02  0.44522174746E+02  0.00000000000E+00 0.  1.
</event>
<event>
 8    1  0.6469014E-010  0.9118800E+02  0.7816164E-02  0.1184000E+00
        -11   -1    0    0    0    0  0.00000000000E+00  0.00000000000E+00  0.45593999997E+02  0.45594000000E+02  0.51100000000E-03 0. -1.
         11   -1    0    0    0    0 -0.00000000000E+00 -0.00000000000E+00 -0.45593999997E+02  0.45594000000E+02  0.51100000000E-03 0.  1.
         23    2    1    2    0    0  0.00000000000E+00  0.00000000000E+00  0.00000000000E+00  0.91188000000E+02  0.91188000000E+02 0.  0.
    9900012    2    3    3    0    0 -0.12191384626E+02  0.14459869406E+02  0.39062838633E+02  0.47787273688E+02  0.20000012051E+02 0.  0.
        -12    1    3    3    0    0  0.12191384626E+02 -0.14459869406E+02 -0.39062838633E+02  0.43400726312E+02  0.00000000000E+00 0.  1.
         11    1    4    4    0    0 -0.55192727056E+01  0.10148631202E+02  0.33804039729E+02  0.35723524305E+02  0.51100000000E-03 0. -1.
        -11    1    4    4    0    0 -0.35266051767E+01  0.54031944234E+01  0.80404705585E+00  0.65021493353E+01  0.51100000000E-03 0.  1.
        -12    1    4    4    0    0 -0.31455067435E+01 -0.10919562195E+01  0.44547518487E+01  0.55616000478E+01  0.00000000000E+00 0.  1.
</event>
<event>
 8    1  0.6469014E-010  0.9118800E+02  0.7816164E-02  0.1184000E+00
        -11   -1    0    0    0    0  0.00000000000E+00  0.00000000000E+00  0.45593999997E+02  0.45594000000E+02  0.51100000000E-03 0.  1.
         11   -1    0    0    0    0 -0.00000000000E+00 -0.00000000000E+00 -0.45593999997E+02  0.45594000000E+02  0.51100000000E-03 0. -1.
         23    2    1    2    0    0  0.00000000000E+00  0.00000000000E+00  0.00000000000E+00  0.91188000000E+02  0.91188000000E+02 0.  0.
    9900012    2    3    3    0    0 -0.17836270798E+01  0.33313683628E+02  0.27760471058E+02  0.47787232775E+02  0.19999825512E+02 0.  0.
        -12    1    3    3    0    0  0.17836270798E+01 -0.33313683628E+02 -0.27760471058E+02  0.43400767225E+02  0.00000000000E+00 0.  1.
         11    1    4    4    0    0 -0.25046950893E+01  0.29039142115E+02  0.17211622871E+02  0.33849449543E+02  0.51100000000E-03 0. -1.
        -11    1    4    4    0    0  0.42379201305E+01  0.11772998115E+01  0.45940502895E+01  0.63601336623E+01  0.51100000000E-03 0.  1.
         12    1    4    4    0    0 -0.35168521210E+01  0.30972417014E+01  0.59547978969E+01  0.75776495690E+01  0.00000000000E+00 0. -1.
</event>
<event>
 8    1  0.6469014E-010  0.9118800E+02  0.7816164E-02  0.1184000E+00
        -11   -1    0    0    0    0  0.00000000000E+00  0.00000000000E+00  0.45593999997E+02  0.45594000000E+02  0.51100000000E-03 0. -1.
         11   -1    0    0    0    0 -0.00000000000E+00 -0.00000000000E+00 -0.45593999997E+02  0.45594000000E+02  0.51100000000E-03 0.  1.
         23    2    1    2    0    0 -0.88817841970E-15 -0.35527136788E-14 -0.71054273576E-14  0.91188000000E+02  0.91188000000E+02 0.  0.
    9900012    2    3    3    0    0 -0.45342375053E+01 -0.23866008683E+02  0.35964950464E+02  0.47787270259E+02  0.19999996417E+02 0.  0.
        -12    1    3    3    0    0  0.45342375053E+01  0.23866008683E+02 -0.35964950464E+02  0.43400729741E+02  0.00000000000E+00 0.  1.
         11    1    4    4    0    0 -0.51267977986E+01 -0.44571338978E+01  0.10020094051E+02  0.12105882178E+02  0.51100000000E-03 0. -1.
        -11    1    4    4    0    0  0.65262949623E+01 -0.14747816008E+02  0.13070595771E+02  0.20758879474E+02  0.51100000000E-03 0.  1.
        -12    1    4    4    0    0 -0.59337346690E+01 -0.46610587771E+01  0.12874260642E+02  0.14922508607E+02  0.00000000000E+00 0.  1.
</event>
<event>
 8    1  0.6469014E-010  0.9118800E+02  0.7816164E-02  0.1184000E+00
        -11   -1    0    0    0    0  0.00000000000E+00  0.00000000000E+00  0.45593999997E+02  0.45594000000E+02  0.51100000000E-03 0.  1.
         11   -1    0    0    0    0 -0.00000000000E+00 -0.00000000000E+00 -0.45593999997E+02  0.45594000000E+02  0.51100000000E-03 0. -1.
         23    2    1    2    0    0  0.71054273576E-14  0.00000000000E+00  0.00000000000E+00  0.91188000000E+02  0.91188000000E+02 0.  0.
    9900012    2    3    3    0    0 -0.39301769153E+02 -0.16478336228E+02  0.82133020366E+01  0.47787274733E+02  0.20000016817E+02 0.  0.
        -12    1    3    3    0    0  0.39301769153E+02  0.16478336228E+02 -0.82133020366E+01  0.43400725267E+02  0.00000000000E+00 0.  1.
         11    1    4    4    0    0 -0.15567936857E+02  0.83299976394E+00  0.75400421105E+01  0.17317816891E+02  0.51100000000E-03 0. -1.
        -11    1    4    4    0    0 -0.99942669782E+01 -0.98030427240E+01 -0.31558572256E+01  0.14350764933E+02  0.51100000000E-03 0.  1.
        -12    1    4    4    0    0 -0.13739565318E+02 -0.75082932679E+01  0.38291171517E+01  0.16118692908E+02  0.00000000000E+00 0.  1.
</event>
<event>
 8    1  0.6469014E-010  0.9118800E+02  0.7816164E-02  0.1184000E+00
        -11   -1    0    0    0    0  0.00000000000E+00  0.00000000000E+00  0.45593999997E+02  0.45594000000E+02  0.51100000000E-03 0. -1.
         11   -1    0    0    0    0 -0.00000000000E+00 -0.00000000000E+00 -0.45593999997E+02  0.45594000000E+02  0.51100000000E-03 0.  1.
         23    2    1    2    0    0  0.00000000000E+00 -0.35527136788E-14  0.00000000000E+00  0.91188000000E+02  0.91188000000E+02 0.  0.
    9900012    2    3    3    0    0 -0.20189567688E+02 -0.28723733518E+02  0.25513757719E+02  0.47787270241E+02  0.19999996336E+02 0.  0.
        -12    1    3    3    0    0  0.20189567688E+02  0.28723733518E+02 -0.25513757719E+02  0.43400729759E+02  0.00000000000E+00 0.  1.
         11    1    4    4    0    0 -0.23342193368E+02 -0.21607395151E+02  0.20404971721E+02  0.37790215501E+02  0.51100000000E-03 0. -1.
        -11    1    4    4    0    0  0.26929216701E+01 -0.37221822670E+01  0.10994981900E+01  0.47239141060E+01  0.51100000000E-03 0.  1.
        -12    1    4    4    0    0  0.45970400947E+00 -0.33941561002E+01  0.40092878088E+01  0.52731406337E+01  0.00000000000E+00 0.  1.
</event>
<event>
 8    1  0.6469014E-010  0.9118800E+02  0.7816164E-02  0.1184000E+00
        -11   -1    0    0    0    0  0.00000000000E+00  0.00000000000E+00  0.45593999997E+02  0.45594000000E+02  0.51100000000E-03 0. -1.
         11   -1    0    0    0    0 -0.00000000000E+00 -0.00000000000E+00 -0.45593999997E+02  0.45594000000E+02  0.51100000000E-03 0.  1.
         23    2    1    2    0    0  0.71054273576E-14 -0.17763568394E-14  0.00000000000E+00  0.91188000000E+02  0.91188000000E+02 0.  0.
    9900012    2    3    3    0    0  0.37872126294E+02 -0.12715445444E+02  0.16960031284E+02  0.47787272310E+02  0.20000005772E+02 0.  0.
        -12    1    3    3    0    0 -0.37872126294E+02  0.12715445444E+02 -0.16960031284E+02  0.43400727690E+02  0.00000000000E+00 0.  1.
         11    1    4    4    0    0  0.26814304844E+02 -0.67601671699E+01  0.11281428601E+02  0.29865991294E+02  0.51100000000E-03 0. -1.
        -11    1    4    4    0    0  0.64010150458E+01 -0.73959077825E+01 -0.79973595163E+00  0.98138689311E+01  0.51100000000E-03 0.  1.
        -12    1    4    4    0    0  0.46568064041E+01  0.14406295079E+01  0.64783386344E+01  0.81074120856E+01  0.00000000000E+00 0.  1.
</event>
<event>
 8    1  0.6469014E-010  0.9118800E+02  0.7816164E-02  0.1184000E+00
        -11   -1    0    0    0    0  0.00000000000E+00  0.00000000000E+00  0.45593999997E+02  0.45594000000E+02  0.51100000000E-03 0. -1.
         11   -1    0    0    0    0 -0.00000000000E+00 -0.00000000000E+00 -0.45593999997E+02  0.45594000000E+02  0.51100000000E-03 0.  1.
         23    2    1    2    0    0  0.00000000000E+00  0.00000000000E+00  0.00000000000E+00  0.91188000000E+02  0.91188000000E+02 0.  0.
    9900012    2    3    3    0    0  0.25958338876E+02 -0.32710983466E+01  0.34627852656E+02  0.47787267043E+02  0.19999981757E+02 0.  0.
        -12    1    3    3    0    0 -0.25958338876E+02  0.32710983466E+01 -0.34627852656E+02  0.43400732957E+02  0.00000000000E+00 0.  1.
         11    1    4    4    0    0 -0.11976225388E+01 -0.17338833918E+01 -0.65376971918E+00  0.22063695222E+01  0.51100000000E-03 0. -1.
        -11    1    4    4    0    0  0.21024121737E+02  0.29530251078E+01  0.25078399126E+02  0.32858182467E+02  0.51100000000E-03 0.  1.
         12    1    4    4    0    0  0.61318396784E+01 -0.44902400626E+01  0.10203223250E+02  0.12722715054E+02  0.00000000000E+00 0. -1.
</event>
<event>
 8    1  0.6469014E-010  0.9118800E+02  0.7816164E-02  0.1184000E+00
        -11   -1    0    0    0    0  0.00000000000E+00  0.00000000000E+00  0.45593999997E+02  0.45594000000E+02  0.51100000000E-03 0. -1.
         11   -1    0    0    0    0 -0.00000000000E+00 -0.00000000000E+00 -0.45593999997E+02  0.45594000000E+02  0.51100000000E-03 0.  1.
         23    2    1    2    0    0  0.00000000000E+00  0.00000000000E+00  0.00000000000E+00  0.91188000000E+02  0.91188000000E+02 0.  0.
    9900012    2    3    3    0    0 -0.13045617552E+02 -0.34575699655E+02  0.22758631326E+02  0.47787280608E+02  0.20000043603E+02 0.  0.
        -12    1    3    3    0    0  0.13045617552E+02  0.34575699655E+02 -0.22758631326E+02  0.43400719392E+02  0.00000000000E+00 0.  1.
         11    1    4    4    0    0 -0.10301214280E+02 -0.15819358124E+02  0.14632028681E+02  0.23884375033E+02  0.51100000000E-03 0. -1.
        -11    1    4    4    0    0  0.66037990552E+00 -0.87374364300E+01 -0.22876898712E+01  0.90560710132E+01  0.51100000000E-03 0.  1.
        -12    1    4    4    0    0 -0.34047831775E+01 -0.10018905100E+02  0.10414292516E+02  0.14846834562E+02  0.00000000000E+00 0.  1.
</event>
<event>
 8    1  0.6469014E-010  0.9118800E+02  0.7816164E-02  0.1184000E+00
        -11   -1    0    0    0    0  0.00000000000E+00  0.00000000000E+00  0.45593999997E+02  0.45594000000E+02  0.51100000000E-03 0.  1.
         11   -1    0    0    0    0 -0.00000000000E+00 -0.00000000000E+00 -0.45593999997E+02  0.45594000000E+02  0.51100000000E-03 0. -1.
         23    2    1    2    0    0  0.00000000000E+00  0.00000000000E+00  0.44408920985E-15  0.91188000000E+02  0.91188000000E+02 0.  0.
    9900012    2    3    3    0    0  0.22298262321E+02  0.37146151637E+02 -0.25642035346E+01  0.47787260101E+02  0.19999950106E+02 0.  0.
        -12    1    3    3    0    0 -0.22298262321E+02 -0.37146151637E+02  0.25642035346E+01  0.43400739899E+02  0.00000000000E+00 0.  1.
         11    1    4    4    0    0  0.16496360357E+02  0.24160365565E+02 -0.48060258189E+01  0.29647108690E+02  0.51100000000E-03 0. -1.
        -11    1    4    4    0    0 -0.12649734021E+01  0.96248729949E+01  0.32787165408E+01  0.10246380839E+02  0.51100000000E-03 0.  1.
         12    1    4    4    0    0  0.70668753660E+01  0.33609130779E+01 -0.10368942565E+01  0.78937705728E+01  0.00000000000E+00 0. -1.
</event>
<event>
 8    1  0.6469014E-010  0.9118800E+02  0.7816164E-02  0.1184000E+00
        -11   -1    0    0    0    0  0.00000000000E+00  0.00000000000E+00  0.45593999997E+02  0.45594000000E+02  0.51100000000E-03 0.  1.
         11   -1    0    0    0    0 -0.00000000000E+00 -0.00000000000E+00 -0.45593999997E+02  0.45594000000E+02  0.51100000000E-03 0. -1.
         23    2    1    2    0    0  0.00000000000E+00  0.00000000000E+00  0.17763568394E-14  0.91188000000E+02  0.91188000000E+02 0.  0.
    9900012    2    3    3    0    0 -0.40126026791E+02 -0.10395242178E+02 -0.12863295854E+02  0.47787268829E+02  0.19999989897E+02 0.  0.
         12    1    3    3    0    0  0.40126026791E+02  0.10395242178E+02  0.12863295854E+02  0.43400731171E+02  0.00000000000E+00 0. -1.
         11    1    4    4    0    0 -0.15066689119E+02  0.21569864958E+00 -0.13701902795E+00  0.15068856008E+02  0.51100000000E-03 0. -1.
        -11    1    4    4    0    0 -0.63704283444E+01 -0.35545916144E+01  0.23796288899E+01  0.76733377843E+01  0.51100000000E-03 0.  1.
         12    1    4    4    0    0 -0.18688909328E+02 -0.70563492133E+01 -0.15105905716E+02  0.25045075037E+02  0.00000000000E+00 0. -1.
</event>
<event>
 8    1  0.6469014E-010  0.9118800E+02  0.7816164E-02  0.1184000E+00
        -11   -1    0    0    0    0  0.00000000000E+00  0.00000000000E+00  0.45593999997E+02  0.45594000000E+02  0.51100000000E-03 0. -1.
         11   -1    0    0    0    0 -0.00000000000E+00 -0.00000000000E+00 -0.45593999997E+02  0.45594000000E+02  0.51100000000E-03 0.  1.
         23    2    1    2    0    0  0.00000000000E+00  0.00000000000E+00 -0.35527136788E-14  0.91188000000E+02  0.91188000000E+02 0.  0.
    9900012    2    3    3    0    0  0.31525151204E+02 -0.88742989798E+01  0.28478674553E+02  0.47787271375E+02  0.20000001509E+02 0.  0.
        -12    1    3    3    0    0 -0.31525151204E+02  0.88742989798E+01 -0.28478674553E+02  0.43400728625E+02  0.00000000000E+00 0.  1.
         11    1    4    4    0    0  0.18680501496E+01  0.17135490068E+01  0.44876421164E+01  0.51541045378E+01  0.51100000000E-03 0. -1.
        -11    1    4    4    0    0  0.89241693950E+01 -0.85440673020E+01  0.16238217098E+02  0.20403959916E+02  0.51100000000E-03 0.  1.
        -12    1    4    4    0    0  0.20732931660E+02 -0.20437806846E+01  0.77528153386E+01  0.22229206922E+02  0.00000000000E+00 0.  1.
</event>
<event>
 8    1  0.6469014E-010  0.9118800E+02  0.7816164E-02  0.1184000E+00
        -11   -1    0    0    0    0  0.00000000000E+00  0.00000000000E+00  0.45593999997E+02  0.45594000000E+02  0.51100000000E-03 0. -1.
         11   -1    0    0    0    0 -0.00000000000E+00 -0.00000000000E+00 -0.45593999997E+02  0.45594000000E+02  0.51100000000E-03 0.  1.
         23    2    1    2    0    0  0.00000000000E+00  0.00000000000E+00  0.00000000000E+00  0.91188000000E+02  0.91188000000E+02 0.  0.
    9900012    2    3    3    0    0  0.19154394903E+02 -0.13291118821E+02  0.36607071107E+02  0.47787281819E+02  0.20000049124E+02 0.  0.
        -12    1    3    3    0    0 -0.19154394903E+02  0.13291118821E+02 -0.36607071107E+02  0.43400718181E+02  0.00000000000E+00 0.  1.
         11    1    4    4    0    0  0.14193009606E+02 -0.14074462533E+02  0.29055508226E+02  0.35266904823E+02  0.51100000000E-03 0. -1.
        -11    1    4    4    0    0 -0.96916461065E+00  0.28993783207E+01  0.47030164228E+01  0.56092814534E+01  0.51100000000E-03 0.  1.
        -12    1    4    4    0    0  0.59305499071E+01 -0.21160346088E+01  0.28485464589E+01  0.69110955423E+01  0.00000000000E+00 0.  1.
</event>
<event>
 8    1  0.6469014E-010  0.9118800E+02  0.7816164E-02  0.1184000E+00
        -11   -1    0    0    0    0  0.00000000000E+00  0.00000000000E+00  0.45593999997E+02  0.45594000000E+02  0.51100000000E-03 0. -1.
         11   -1    0    0    0    0 -0.00000000000E+00 -0.00000000000E+00 -0.45593999997E+02  0.45594000000E+02  0.51100000000E-03 0.  1.
         23    2    1    2    0    0 -0.17763568394E-14  0.35527136788E-14  0.71054273576E-14  0.91188000000E+02  0.91188000000E+02 0.  0.
    9900012    2    3    3    0    0 -0.15992291702E+02 -0.20932425406E+02  0.34492082294E+02  0.47787267653E+02  0.19999984537E+02 0.  0.
        -12    1    3    3    0    0  0.15992291702E+02  0.20932425406E+02 -0.34492082294E+02  0.43400732347E+02  0.00000000000E+00 0.  1.
         11    1    4    4    0    0 -0.28820579806E+01 -0.91550698639E+01  0.13313941333E+02  0.16412878983E+02  0.51100000000E-03 0. -1.
        -11    1    4    4    0    0 -0.12978909718E+02 -0.85757856912E+01  0.73964242571E+01  0.17225077351E+02  0.51100000000E-03 0.  1.
        -12    1    4    4    0    0 -0.13132400273E+00 -0.32015698511E+01  0.13781716704E+02  0.14149311319E+02  0.00000000000E+00 0.  1.
</event>
<event>
 8    1  0.6469014E-010  0.9118800E+02  0.7816164E-02  0.1184000E+00
        -11   -1    0    0    0    0  0.00000000000E+00  0.00000000000E+00  0.45593999997E+02  0.45594000000E+02  0.51100000000E-03 0. -1.
         11   -1    0    0    0    0 -0.00000000000E+00 -0.00000000000E+00 -0.45593999997E+02  0.45594000000E+02  0.51100000000E-03 0.  1.
         23    2    1    2    0    0  0.35527136788E-14  0.00000000000E+00  0.35527136788E-14  0.91188000000E+02  0.91188000000E+02 0.  0.
    9900012    2    3    3    0    0 -0.30373530433E+02 -0.13970835182E+02 -0.27674678292E+02  0.47787269531E+02  0.19999993102E+02 0.  0.
         12    1    3    3    0    0  0.30373530433E+02  0.13970835182E+02  0.27674678292E+02  0.43400730469E+02  0.00000000000E+00 0. -1.
         11    1    4    4    0    0 -0.20604444069E+00 -0.28895706339E+01  0.93829904545E+00  0.30450744030E+01  0.51100000000E-03 0. -1.
        -11    1    4    4    0    0 -0.10133714323E+02  0.21797460062E+01 -0.90254056360E+01  0.13744140781E+02  0.51100000000E-03 0.  1.
         12    1    4    4    0    0 -0.20033771669E+02 -0.13261010554E+02 -0.19587571701E+02  0.30998054348E+02  0.00000000000E+00 0. -1.
</event>
<event>
 8    1  0.6469014E-010  0.9118800E+02  0.7816164E-02  0.1184000E+00
        -11   -1    0    0    0    0  0.00000000000E+00  0.00000000000E+00  0.45593999997E+02  0.45594000000E+02  0.51100000000E-03 0. -1.
         11   -1    0    0    0    0 -0.00000000000E+00 -0.00000000000E+00 -0.45593999997E+02  0.45594000000E+02  0.51100000000E-03 0.  1.
         23    2    1    2    0    0 -0.44408920985E-15  0.11102230246E-15  0.00000000000E+00  0.91188000000E+02  0.91188000000E+02 0.  0.
    9900012    2    3    3    0    0  0.38186271504E+01  0.99513425066E+00 -0.43220965652E+02  0.47787261787E+02  0.19999957792E+02 0.  0.
         12    1    3    3    0    0 -0.38186271504E+01 -0.99513425066E+00  0.43220965652E+02  0.43400738213E+02  0.00000000000E+00 0. -1.
         11    1    4    4    0    0  0.77257094580E+01 -0.49115341947E+00 -0.22330292653E+02  0.23634081081E+02  0.51100000000E-03 0. -1.
        -11    1    4    4    0    0  0.38634019058E+01  0.17926115136E+01 -0.88182761557E+01  0.97929221861E+01  0.51100000000E-03 0.  1.
         12    1    4    4    0    0 -0.77704842134E+01 -0.30632384349E+00 -0.12072396844E+02  0.14360258520E+02  0.00000000000E+00 0. -1.
</event>
<event>
 8    1  0.6469014E-010  0.9118800E+02  0.7816164E-02  0.1184000E+00
        -11   -1    0    0    0    0  0.00000000000E+00  0.00000000000E+00  0.45593999997E+02  0.45594000000E+02  0.51100000000E-03 0. -1.
         11   -1    0    0    0    0 -0.00000000000E+00 -0.00000000000E+00 -0.45593999997E+02  0.45594000000E+02  0.51100000000E-03 0.  1.
         23    2    1    2    0    0  0.00000000000E+00  0.17763568394E-14 -0.35527136788E-14  0.91188000000E+02  0.91188000000E+02 0.  0.
    9900012    2    3    3    0    0 -0.33775972952E+02  0.99649645959E+01  0.25367428916E+02  0.47787270535E+02  0.19999997679E+02 0.  0.
        -12    1    3    3    0    0  0.33775972952E+02 -0.99649645959E+01 -0.25367428916E+02  0.43400729465E+02  0.00000000000E+00 0.  1.
         11    1    4    4    0    0 -0.10236829312E+02 -0.12741815093E+01  0.15126645390E+02  0.18309331334E+02  0.51100000000E-03 0. -1.
        -11    1    4    4    0    0 -0.15783831751E+02  0.34969210845E+01  0.32808272997E+01  0.16496109537E+02  0.51100000000E-03 0.  1.
        -12    1    4    4    0    0 -0.77553118892E+01  0.77422250207E+01  0.69599562266E+01  0.12981829665E+02  0.00000000000E+00 0.  1.
</event>
<event>
 8    1  0.6469014E-010  0.9118800E+02  0.7816164E-02  0.1184000E+00
        -11   -1    0    0    0    0  0.00000000000E+00  0.00000000000E+00  0.45593999997E+02  0.45594000000E+02  0.51100000000E-03 0. -1.
         11   -1    0    0    0    0 -0.00000000000E+00 -0.00000000000E+00 -0.45593999997E+02  0.45594000000E+02  0.51100000000E-03 0.  1.
         23    2    1    2    0    0 -0.17763568394E-14  0.00000000000E+00  0.00000000000E+00  0.91188000000E+02  0.91188000000E+02 0.  0.
    9900012    2    3    3    0    0  0.15825428120E+02  0.11632479444E+02 -0.38702248525E+02  0.47787276572E+02  0.20000025200E+02 0.  0.
         12    1    3    3    0    0 -0.15825428120E+02 -0.11632479444E+02  0.38702248525E+02  0.43400723428E+02  0.00000000000E+00 0. -1.
         11    1    4    4    0    0  0.46770379351E+01 -0.32377680792E+01 -0.74665790139E+01  0.93865663803E+01  0.51100000000E-03 0. -1.
        -11    1    4    4    0    0  0.52478099733E+01  0.15521964956E+02 -0.23552173030E+02  0.28691039722E+02  0.51100000000E-03 0.  1.
        -12    1    4    4    0    0  0.59005802118E+01 -0.65171743306E+00 -0.76834964812E+01  0.97096704695E+01  0.00000000000E+00 0.  1.
</event>
<event>
 8    1  0.6469014E-010  0.9118800E+02  0.7816164E-02  0.1184000E+00
        -11   -1    0    0    0    0  0.00000000000E+00  0.00000000000E+00  0.45593999997E+02  0.45594000000E+02  0.51100000000E-03 0. -1.
         11   -1    0    0    0    0 -0.00000000000E+00 -0.00000000000E+00 -0.45593999997E+02  0.45594000000E+02  0.51100000000E-03 0.  1.
         23    2    1    2    0    0  0.00000000000E+00  0.00000000000E+00 -0.35527136788E-14  0.91188000000E+02  0.91188000000E+02 0.  0.
    9900012    2    3    3    0    0 -0.25749890605E+02 -0.23436854902E+02 -0.25909078415E+02  0.47787269843E+02  0.19999994522E+02 0.  0.
         12    1    3    3    0    0  0.25749890605E+02  0.23436854902E+02  0.25909078415E+02  0.43400730157E+02  0.00000000000E+00 0. -1.
         11    1    4    4    0    0 -0.53168884950E+01  0.22751615809E+01 -0.69940989326E+01  0.90754109343E+01  0.51100000000E-03 0. -1.
        -11    1    4    4    0    0 -0.17379223688E+02 -0.22581559653E+02 -0.12909769328E+02  0.31283004919E+02  0.51100000000E-03 0.  1.
        -12    1    4    4    0    0 -0.30537784222E+01 -0.31304568293E+01 -0.60052101539E+01  0.74288539899E+01  0.00000000000E+00 0.  1.
</event>
<event>
 8    1  0.6469014E-010  0.9118800E+02  0.7816164E-02  0.1184000E+00
        -11   -1    0    0    0    0  0.00000000000E+00  0.00000000000E+00  0.45593999997E+02  0.45594000000E+02  0.51100000000E-03 0. -1.
         11   -1    0    0    0    0 -0.00000000000E+00 -0.00000000000E+00 -0.45593999997E+02  0.45594000000E+02  0.51100000000E-03 0.  1.
         23    2    1    2    0    0  0.00000000000E+00  0.17763568394E-14  0.00000000000E+00  0.91188000000E+02  0.91188000000E+02 0.  0.
    9900012    2    3    3    0    0  0.18386261693E+02  0.12818474407E+02  0.37165248668E+02  0.47787267129E+02  0.19999982149E+02 0.  0.
        -12    1    3    3    0    0 -0.18386261693E+02 -0.12818474407E+02 -0.37165248668E+02  0.43400732871E+02  0.00000000000E+00 0.  1.
         11    1    4    4    0    0  0.15085515209E+02 -0.22880635167E+00  0.23339947138E+02  0.27791693978E+02  0.51100000000E-03 0. -1.
        -11    1    4    4    0    0  0.29730607361E+01  0.11876387133E+02  0.14175249571E+02  0.18730332675E+02  0.51100000000E-03 0.  1.
         12    1    4    4    0    0  0.32768574798E+00  0.11708936259E+01 -0.34994804073E+00  0.12652404766E+01  0.00000000000E+00 0. -1.
</event>
<event>
 8    1  0.6469014E-010  0.9118800E+02  0.7816164E-02  0.1184000E+00
        -11   -1    0    0    0    0  0.00000000000E+00  0.00000000000E+00  0.45593999997E+02  0.45594000000E+02  0.51100000000E-03 0. -1.
         11   -1    0    0    0    0 -0.00000000000E+00 -0.00000000000E+00 -0.45593999997E+02  0.45594000000E+02  0.51100000000E-03 0.  1.
         23    2    1    2    0    0 -0.17763568394E-14  0.00000000000E+00  0.00000000000E+00  0.91188000000E+02  0.91188000000E+02 0.  0.
    9900012    2    3    3    0    0 -0.85645192373E+01  0.39554315041E+02 -0.15675730643E+02  0.47787270060E+02  0.19999995513E+02 0.  0.
         12    1    3    3    0    0  0.85645192373E+01 -0.39554315041E+02  0.15675730643E+02  0.43400729940E+02  0.00000000000E+00 0. -1.
         11    1    4    4    0    0 -0.66613269356E+01  0.29204036767E+02 -0.11421006348E+02  0.32057579857E+02  0.51100000000E-03 0.  1.
        -11    1    4    4    0    0  0.39609048483E+01  0.15295026401E+01 -0.26802834261E+01  0.50211617231E+01  0.51100000000E-03 0. -1.
         12    1    4    4    0    0 -0.58640971500E+01  0.88207756331E+01 -0.15744408691E+01  0.10708528480E+02  0.00000000000E+00 0. -1.
</event>
<event>
 8    1  0.6469014E-010  0.9118800E+02  0.7816164E-02  0.1184000E+00
        -11   -1    0    0    0    0  0.00000000000E+00  0.00000000000E+00  0.45593999997E+02  0.45594000000E+02  0.51100000000E-03 0.  1.
         11   -1    0    0    0    0 -0.00000000000E+00 -0.00000000000E+00 -0.45593999997E+02  0.45594000000E+02  0.51100000000E-03 0. -1.
         23    2    1    2    0    0  0.00000000000E+00  0.00000000000E+00  0.17763568394E-14  0.91188000000E+02  0.91188000000E+02 0.  0.
    9900012    2    3    3    0    0 -0.24429348263E+02 -0.32486273645E+02  0.15214194385E+02  0.47787277164E+02  0.20000027902E+02 0.  0.
        -12    1    3    3    0    0  0.24429348263E+02  0.32486273645E+02 -0.15214194385E+02  0.43400722836E+02  0.00000000000E+00 0.  1.
         11    1    4    4    0    0 -0.13126931164E+02 -0.18178184450E+02  0.17023376078E+02  0.28152407446E+02  0.51100000000E-03 0. -1.
        -11    1    4    4    0    0 -0.69798372545E+01 -0.12391466324E+02 -0.34416695117E+01  0.14632554632E+02  0.51100000000E-03 0.  1.
         12    1    4    4    0    0 -0.43225798444E+01 -0.19166228707E+01  0.16324878192E+01  0.50023150860E+01  0.00000000000E+00 0. -1.
</event>
<event>
 8    1  0.6469014E-010  0.9118800E+02  0.7816164E-02  0.1184000E+00
        -11   -1    0    0    0    0  0.00000000000E+00  0.00000000000E+00  0.45593999997E+02  0.45594000000E+02  0.51100000000E-03 0. -1.
         11   -1    0    0    0    0 -0.00000000000E+00 -0.00000000000E+00 -0.45593999997E+02  0.45594000000E+02  0.51100000000E-03 0.  1.
         23    2    1    2    0    0  0.35527136788E-14  0.00000000000E+00  0.35527136788E-14  0.91188000000E+02  0.91188000000E+02 0.  0.
    9900012    2    3    3    0    0 -0.24907786188E+02 -0.26797408331E+02 -0.23347905761E+02  0.47787267178E+02  0.19999982372E+02 0.  0.
         12    1    3    3    0    0  0.24907786188E+02  0.26797408331E+02  0.23347905761E+02  0.43400732822E+02  0.00000000000E+00 0. -1.
         11    1    4    4    0    0 -0.19988639641E+02 -0.20080991124E+02 -0.79017442822E+01  0.29414783395E+02  0.51100000000E-03 0. -1.
        -11    1    4    4    0    0 -0.45996517922E+01 -0.76180328318E+01 -0.14584590676E+02  0.17085125293E+02  0.51100000000E-03 0.  1.
         12    1    4    4    0    0 -0.31949475557E+00  0.90161562508E+00 -0.86157080292E+00  0.12873584903E+01  0.00000000000E+00 0. -1.
</event>
<event>
 8    1  0.6469014E-010  0.9118800E+02  0.7816164E-02  0.1184000E+00
        -11   -1    0    0    0    0  0.00000000000E+00  0.00000000000E+00  0.45593999997E+02  0.45594000000E+02  0.51100000000E-03 0. -1.
         11   -1    0    0    0    0 -0.00000000000E+00 -0.00000000000E+00 -0.45593999997E+02  0.45594000000E+02  0.51100000000E-03 0.  1.
         23    2    1    2    0    0  0.88817841970E-15  0.00000000000E+00  0.00000000000E+00  0.91188000000E+02  0.91188000000E+02 0.  0.
    9900012    2    3    3    0    0 -0.51454283375E+01  0.25230584698E+02 -0.34936591662E+02  0.47787271044E+02  0.19999999996E+02 0.  0.
         12    1    3    3    0    0  0.51454283375E+01 -0.25230584698E+02  0.34936591662E+02  0.43400728956E+02  0.00000000000E+00 0. -1.
         11    1    4    4    0    0 -0.89766912421E+01  0.18170472275E+02 -0.15806631398E+02  0.25702074717E+02  0.51100000000E-03 0. -1.
        -11    1    4    4    0    0  0.28337123379E+01  0.84447879527E+01 -0.17859602720E+02  0.19957699736E+02  0.51100000000E-03 0.  1.
         12    1    4    4    0    0  0.99755056673E+00 -0.13846755289E+01 -0.12703575440E+01  0.21274965906E+01  0.00000000000E+00 0. -1.
</event>
<event>
 8    1  0.6469014E-010  0.9118800E+02  0.7816164E-02  0.1184000E+00
        -11   -1    0    0    0    0  0.00000000000E+00  0.00000000000E+00  0.45593999997E+02  0.45594000000E+02  0.51100000000E-03 0. -1.
         11   -1    0    0    0    0 -0.00000000000E+00 -0.00000000000E+00 -0.45593999997E+02  0.45594000000E+02  0.51100000000E-03 0.  1.
         23    2    1    2    0    0 -0.17763568394E-14  0.00000000000E+00  0.88817841970E-15  0.91188000000E+02  0.91188000000E+02 0.  0.
    9900012    2    3    3    0    0 -0.10970459825E+02  0.41858345608E+02  0.33393273739E+01  0.47787271975E+02  0.20000004241E+02 0.  0.
        -12    1    3    3    0    0  0.10970459825E+02 -0.41858345608E+02 -0.33393273739E+01  0.43400728025E+02  0.00000000000E+00 0.  1.
         11    1    4    4    0    0 -0.83770612602E+00  0.99071508340E+00 -0.36974827938E+01  0.39185006318E+01  0.51100000000E-03 0. -1.
        -11    1    4    4    0    0 -0.10948297994E+01  0.58202809395E-01 -0.78046835749E+00  0.13457975237E+01  0.51100000000E-03 0.  1.
         12    1    4    4    0    0 -0.90379238992E+01  0.40809427715E+02  0.78172785253E+01  0.42522973819E+02  0.00000000000E+00 0. -1.
</event>
<event>
 8    1  0.6469014E-010  0.9118800E+02  0.7816164E-02  0.1184000E+00
        -11   -1    0    0    0    0  0.00000000000E+00  0.00000000000E+00  0.45593999997E+02  0.45594000000E+02  0.51100000000E-03 0. -1.
         11   -1    0    0    0    0 -0.00000000000E+00 -0.00000000000E+00 -0.45593999997E+02  0.45594000000E+02  0.51100000000E-03 0.  1.
         23    2    1    2    0    0  0.00000000000E+00  0.00000000000E+00 -0.71054273576E-14  0.91188000000E+02  0.91188000000E+02 0.  0.
    9900012    2    3    3    0    0 -0.26266816217E+01  0.14134783103E+02 -0.40950355139E+02  0.47787272636E+02  0.20000007257E+02 0.  0.
         12    1    3    3    0    0  0.26266816217E+01 -0.14134783103E+02  0.40950355139E+02  0.43400727364E+02  0.00000000000E+00 0. -1.
         11    1    4    4    0    0 -0.24854764121E+01  0.12760647780E+02 -0.35675327742E+02  0.37970261186E+02  0.51100000000E-03 0. -1.
        -11    1    4    4    0    0 -0.22003821984E+01  0.52811799894E+00 -0.67681769170E+01  0.71364423547E+01  0.51100000000E-03 0.  1.
         12    1    4    4    0    0  0.20591769888E+01  0.84601732435E+00  0.14931495205E+01  0.26805690953E+01  0.00000000000E+00 0. -1.
</event>
<event>
 8    1  0.6469014E-010  0.9118800E+02  0.7816164E-02  0.1184000E+00
        -11   -1    0    0    0    0  0.00000000000E+00  0.00000000000E+00  0.45593999997E+02  0.45594000000E+02  0.51100000000E-03 0. -1.
         11   -1    0    0    0    0 -0.00000000000E+00 -0.00000000000E+00 -0.45593999997E+02  0.45594000000E+02  0.51100000000E-03 0.  1.
         23    2    1    2    0    0  0.35527136788E-14  0.00000000000E+00  0.00000000000E+00  0.91188000000E+02  0.91188000000E+02 0.  0.
    9900012    2    3    3    0    0  0.31984789985E+02  0.15808346948E+02  0.24712201896E+02  0.47787267908E+02  0.19999985698E+02 0.  0.
        -12    1    3    3    0    0 -0.31984789985E+02 -0.15808346948E+02 -0.24712201896E+02  0.43400732092E+02  0.00000000000E+00 0.  1.
         11    1    4    4    0    0  0.10729708893E+02  0.10311278702E+02  0.71606828314E+01  0.16514372536E+02  0.51100000000E-03 0. -1.
        -11    1    4    4    0    0  0.16275337731E+02 -0.22376572840E+01  0.13307486283E+02  0.21141970575E+02  0.51100000000E-03 0.  1.
        -12    1    4    4    0    0  0.49797433616E+01  0.77347255304E+01  0.42440327815E+01  0.10130924796E+02  0.00000000000E+00 0.  1.
</event>
<event>
 8    1  0.6469014E-010  0.9118800E+02  0.7816164E-02  0.1184000E+00
        -11   -1    0    0    0    0  0.00000000000E+00  0.00000000000E+00  0.45593999997E+02  0.45594000000E+02  0.51100000000E-03 0. -1.
         11   -1    0    0    0    0 -0.00000000000E+00 -0.00000000000E+00 -0.45593999997E+02  0.45594000000E+02  0.51100000000E-03 0.  1.
         23    2    1    2    0    0  0.17763568394E-14  0.00000000000E+00 -0.71054273576E-14  0.91188000000E+02  0.91188000000E+02 0.  0.
    9900012    2    3    3    0    0 -0.79412991737E+01  0.18724466312E+02  0.38339967794E+02  0.47787274180E+02  0.20000014296E+02 0.  0.
        -12    1    3    3    0    0  0.79412991737E+01 -0.18724466312E+02 -0.38339967794E+02  0.43400725820E+02  0.00000000000E+00 0.  1.
         11    1    4    4    0    0 -0.33847607151E+01  0.47198054959E+01  0.14896482833E+02  0.15988695071E+02  0.51100000000E-03 0. -1.
        -11    1    4    4    0    0  0.40272098666E+00 -0.32663888946E+01  0.54678300803E+01  0.63818999250E+01  0.51100000000E-03 0.  1.
        -12    1    4    4    0    0 -0.49592594452E+01  0.17271049710E+02  0.17975654881E+02  0.25416679184E+02  0.00000000000E+00 0.  1.
</event>
<event>
 8    1  0.6469014E-010  0.9118800E+02  0.7816164E-02  0.1184000E+00
        -11   -1    0    0    0    0  0.00000000000E+00  0.00000000000E+00  0.45593999997E+02  0.45594000000E+02  0.51100000000E-03 0.  1.
         11   -1    0    0    0    0 -0.00000000000E+00 -0.00000000000E+00 -0.45593999997E+02  0.45594000000E+02  0.51100000000E-03 0. -1.
         23    2    1    2    0    0  0.00000000000E+00  0.00000000000E+00  0.00000000000E+00  0.91188000000E+02  0.91188000000E+02 0.  0.
    9900012    2    3    3    0    0  0.43434385246E+01  0.41928207632E+02 -0.10333595950E+02  0.47787271220E+02  0.20000000798E+02 0.  0.
         12    1    3    3    0    0 -0.43434385246E+01 -0.41928207632E+02  0.10333595950E+02  0.43400728780E+02  0.00000000000E+00 0. -1.
         11    1    4    4    0    0  0.29854441774E+01  0.15249330559E+02 -0.11794720465E+02  0.19508213412E+02  0.51100000000E-03 0. -1.
        -11    1    4    4    0    0  0.18089975418E+01  0.26739525959E+02  0.54550691998E-01  0.26800703287E+02  0.51100000000E-03 0.  1.
         12    1    4    4    0    0 -0.45100319464E+00 -0.60648886190E-01  0.14065738231E+01  0.14783545206E+01  0.00000000000E+00 0. -1.
</event>
<event>
 8    1  0.6469014E-010  0.9118800E+02  0.7816164E-02  0.1184000E+00
        -11   -1    0    0    0    0  0.00000000000E+00  0.00000000000E+00  0.45593999997E+02  0.45594000000E+02  0.51100000000E-03 0. -1.
         11   -1    0    0    0    0 -0.00000000000E+00 -0.00000000000E+00 -0.45593999997E+02  0.45594000000E+02  0.51100000000E-03 0.  1.
         23    2    1    2    0    0 -0.17763568394E-14  0.88817841970E-15 -0.71054273576E-14  0.91188000000E+02  0.91188000000E+02 0.  0.
    9900012    2    3    3    0    0  0.11902949946E+02  0.62058813226E+01  0.41272630305E+02  0.47787271980E+02  0.20000004264E+02 0.  0.
        -12    1    3    3    0    0 -0.11902949946E+02 -0.62058813226E+01 -0.41272630305E+02  0.43400728020E+02  0.00000000000E+00 0.  1.
         11    1    4    4    0    0  0.65122343074E+01 -0.46821849796E+00  0.21933078700E+02  0.22884238370E+02  0.51100000000E-03 0. -1.
        -11    1    4    4    0    0  0.46065404689E+01  0.10619108949E+02  0.15475024669E+02  0.19325166978E+02  0.51100000000E-03 0.  1.
        -12    1    4    4    0    0  0.78417516932E+00 -0.39450091288E+01  0.38645269360E+01  0.55778666318E+01  0.00000000000E+00 0.  1.
</event>
<event>
 8    1  0.6469014E-010  0.9118800E+02  0.7816164E-02  0.1184000E+00
        -11   -1    0    0    0    0  0.00000000000E+00  0.00000000000E+00  0.45593999997E+02  0.45594000000E+02  0.51100000000E-03 0. -1.
         11   -1    0    0    0    0 -0.00000000000E+00 -0.00000000000E+00 -0.45593999997E+02  0.45594000000E+02  0.51100000000E-03 0.  1.
         23    2    1    2    0    0  0.00000000000E+00 -0.88817841970E-15  0.00000000000E+00  0.91188000000E+02  0.91188000000E+02 0.  0.
    9900012    2    3    3    0    0  0.10311159600E+02 -0.26723371008E+01  0.42073288004E+02  0.47787274645E+02  0.20000016418E+02 0.  0.
        -12    1    3    3    0    0 -0.10311159600E+02  0.26723371008E+01 -0.42073288004E+02  0.43400725355E+02  0.00000000000E+00 0.  1.
         11    1    4    4    0    0  0.14433720341E+01  0.74394408481E+01  0.22293206766E+02  0.23546033023E+02  0.51100000000E-03 0. -1.
        -11    1    4    4    0    0  0.87841477452E+01 -0.79540756463E+01  0.16941737717E+02  0.20674889314E+02  0.51100000000E-03 0.  1.
         12    1    4    4    0    0  0.83639820408E-01 -0.21577023026E+01  0.28383435210E+01  0.35663523087E+01  0.00000000000E+00 0. -1.
</event>
<event>
 8    1  0.6469014E-010  0.9118800E+02  0.7816164E-02  0.1184000E+00
        -11   -1    0    0    0    0  0.00000000000E+00  0.00000000000E+00  0.45593999997E+02  0.45594000000E+02  0.51100000000E-03 0. -1.
         11   -1    0    0    0    0 -0.00000000000E+00 -0.00000000000E+00 -0.45593999997E+02  0.45594000000E+02  0.51100000000E-03 0.  1.
         23    2    1    2    0    0  0.35527136788E-14  0.00000000000E+00 -0.88817841970E-15  0.91188000000E+02  0.91188000000E+02 0.  0.
    9900012    2    3    3    0    0 -0.16603292337E+02  0.39789759072E+02 -0.49725480859E+01  0.47787303256E+02  0.20000146864E+02 0.  0.
         12    1    3    3    0    0  0.16603292337E+02 -0.39789759072E+02  0.49725480859E+01  0.43400696744E+02  0.00000000000E+00 0. -1.
         11    1    4    4    0    0 -0.16327510504E+02  0.26332435397E+02  0.12144245748E+01  0.31007411703E+02  0.51100000000E-03 0. -1.
        -11    1    4    4    0    0  0.31560702040E+01  0.39207845819E+01 -0.39564777055E+01  0.64021126954E+01  0.51100000000E-03 0.  1.
        -12    1    4    4    0    0 -0.34318520375E+01  0.95365390927E+01 -0.22304949552E+01  0.10377778858E+02  0.00000000000E+00 0.  1.
</event>
<event>
 8    1  0.6469014E-010  0.9118800E+02  0.7816164E-02  0.1184000E+00
        -11   -1    0    0    0    0  0.00000000000E+00  0.00000000000E+00  0.45593999997E+02  0.45594000000E+02  0.51100000000E-03 0.  1.
         11   -1    0    0    0    0 -0.00000000000E+00 -0.00000000000E+00 -0.45593999997E+02  0.45594000000E+02  0.51100000000E-03 0. -1.
         23    2    1    2    0    0  0.00000000000E+00 -0.88817841970E-15  0.00000000000E+00  0.91188000000E+02  0.91188000000E+02 0.  0.
    9900012    2    3    3    0    0 -0.41849903987E+02  0.66692244210E+01  0.93664345220E+01  0.47787272889E+02  0.20000008409E+02 0.  0.
         12    1    3    3    0    0  0.41849903987E+02 -0.66692244210E+01 -0.93664345220E+01  0.43400727111E+02  0.00000000000E+00 0. -1.
         11    1    4    4    0    0 -0.99064583236E+01  0.57118970622E+01 -0.17586094553E+01  0.11569632321E+02  0.51100000000E-03 0. -1.
        -11    1    4    4    0    0 -0.13867508342E+02 -0.58110339292E+01  0.33217148341E+01  0.15398366558E+02  0.51100000000E-03 0.  1.
        -12    1    4    4    0    0 -0.18075937322E+02  0.67683612880E+01  0.78033291431E+01  0.20819274010E+02  0.00000000000E+00 0.  1.
</event>
<event>
 8    1  0.6469014E-010  0.9118800E+02  0.7816164E-02  0.1184000E+00
        -11   -1    0    0    0    0  0.00000000000E+00  0.00000000000E+00  0.45593999997E+02  0.45594000000E+02  0.51100000000E-03 0. -1.
         11   -1    0    0    0    0 -0.00000000000E+00 -0.00000000000E+00 -0.45593999997E+02  0.45594000000E+02  0.51100000000E-03 0.  1.
         23    2    1    2    0    0  0.00000000000E+00  0.00000000000E+00  0.00000000000E+00  0.91188000000E+02  0.91188000000E+02 0.  0.
    9900012    2    3    3    0    0 -0.29306960894E+02  0.39150368422E+01  0.31771016102E+02  0.47787274955E+02  0.20000017830E+02 0.  0.
        -12    1    3    3    0    0  0.29306960894E+02 -0.39150368422E+01 -0.31771016102E+02  0.43400725045E+02  0.00000000000E+00 0.  1.
         11    1    4    4    0    0 -0.62954933743E+01  0.48763422485E+01  0.17568262228E+02  0.19288747718E+02  0.51100000000E-03 0. -1.
        -11    1    4    4    0    0 -0.15277682965E+02  0.97512158437E+00  0.13643880849E+02  0.20506436642E+02  0.51100000000E-03 0.  1.
         12    1    4    4    0    0 -0.77337845544E+01 -0.19364269907E+01  0.55887302500E+00  0.79920905952E+01  0.00000000000E+00 0. -1.
</event>
<event>
 8    1  0.6469014E-010  0.9118800E+02  0.7816164E-02  0.1184000E+00
        -11   -1    0    0    0    0  0.00000000000E+00  0.00000000000E+00  0.45593999997E+02  0.45594000000E+02  0.51100000000E-03 0. -1.
         11   -1    0    0    0    0 -0.00000000000E+00 -0.00000000000E+00 -0.45593999997E+02  0.45594000000E+02  0.51100000000E-03 0.  1.
         23    2    1    2    0    0  0.00000000000E+00  0.17763568394E-14  0.00000000000E+00  0.91188000000E+02  0.91188000000E+02 0.  0.
    9900012    2    3    3    0    0  0.19948421585E+02 -0.15385102452E+02  0.35340935277E+02  0.47787278722E+02  0.20000035006E+02 0.  0.
        -12    1    3    3    0    0 -0.19948421585E+02  0.15385102452E+02 -0.35340935277E+02  0.43400721278E+02  0.00000000000E+00 0.  1.
         11    1    4    4    0    0 -0.31813242270E+01 -0.20987300378E+01  0.98007041926E+01  0.10515669001E+02  0.51100000000E-03 0. -1.
        -11    1    4    4    0    0  0.22952051970E+02 -0.13403205060E+02  0.25725339370E+02  0.36989669930E+02  0.51100000000E-03 0.  1.
        -12    1    4    4    0    0  0.17769384101E+00  0.11683264589E+00 -0.18510828592E+00  0.28193979108E+00  0.00000000000E+00 0.  1.
</event>
<event>
 8    1  0.6469014E-010  0.9118800E+02  0.7816164E-02  0.1184000E+00
        -11   -1    0    0    0    0  0.00000000000E+00  0.00000000000E+00  0.45593999997E+02  0.45594000000E+02  0.51100000000E-03 0. -1.
         11   -1    0    0    0    0 -0.00000000000E+00 -0.00000000000E+00 -0.45593999997E+02  0.45594000000E+02  0.51100000000E-03 0.  1.
         23    2    1    2    0    0 -0.71054273576E-14 -0.35527136788E-14  0.00000000000E+00  0.91188000000E+02  0.91188000000E+02 0.  0.
    9900012    2    3    3    0    0  0.22174155351E+02  0.20570551151E+02  0.31125270780E+02  0.47787271649E+02  0.20000002758E+02 0.  0.
        -12    1    3    3    0    0 -0.22174155351E+02 -0.20570551151E+02 -0.31125270780E+02  0.43400728351E+02  0.00000000000E+00 0.  1.
         11    1    4    4    0    0  0.20495569347E+02  0.11039827219E+02  0.16758815090E+02  0.28684560854E+02  0.51100000000E-03 0. -1.
        -11    1    4    4    0    0 -0.30833402388E+01  0.19901017323E+01  0.43537115295E+01  0.56940579798E+01  0.51100000000E-03 0.  1.
        -12    1    4    4    0    0  0.47619262427E+01  0.75406222002E+01  0.10012744161E+02  0.13408652816E+02  0.00000000000E+00 0.  1.
</event>
<event>
 8    1  0.6469014E-010  0.9118800E+02  0.7816164E-02  0.1184000E+00
        -11   -1    0    0    0    0  0.00000000000E+00  0.00000000000E+00  0.45593999997E+02  0.45594000000E+02  0.51100000000E-03 0. -1.
         11   -1    0    0    0    0 -0.00000000000E+00 -0.00000000000E+00 -0.45593999997E+02  0.45594000000E+02  0.51100000000E-03 0.  1.
         23    2    1    2    0    0  0.00000000000E+00  0.00000000000E+00  0.00000000000E+00  0.91188000000E+02  0.91188000000E+02 0.  0.
    9900012    2    3    3    0    0 -0.99311970423E+01 -0.23231340518E+02  0.35288804764E+02  0.47787267303E+02  0.19999982939E+02 0.  0.
        -12    1    3    3    0    0  0.99311970423E+01  0.23231340518E+02 -0.35288804764E+02  0.43400732697E+02  0.00000000000E+00 0.  1.
         11    1    4    4    0    0 -0.14065213319E+00 -0.18948395080E+02  0.21945661266E+02  0.28994370277E+02  0.51100000000E-03 0. -1.
        -11    1    4    4    0    0 -0.62248295953E+00 -0.22424978556E+01 -0.17306296592E+00  0.23337165035E+01  0.51100000000E-03 0.  1.
         12    1    4    4    0    0 -0.91680619496E+01 -0.20404475825E+01  0.13516206465E+02  0.16459180522E+02  0.00000000000E+00 0. -1.
</event>
<event>
 8    1  0.6469014E-010  0.9118800E+02  0.7816164E-02  0.1184000E+00
        -11   -1    0    0    0    0  0.00000000000E+00  0.00000000000E+00  0.45593999997E+02  0.45594000000E+02  0.51100000000E-03 0. -1.
         11   -1    0    0    0    0 -0.00000000000E+00 -0.00000000000E+00 -0.45593999997E+02  0.45594000000E+02  0.51100000000E-03 0.  1.
         23    2    1    2    0    0  0.00000000000E+00  0.35527136788E-14 -0.35527136788E-14  0.91188000000E+02  0.91188000000E+02 0.  0.
    9900012    2    3    3    0    0 -0.22551748956E+02  0.22677545896E+02  0.29338895212E+02  0.47787271422E+02  0.20000001722E+02 0.  0.
        -12    1    3    3    0    0  0.22551748956E+02 -0.22677545896E+02 -0.29338895212E+02  0.43400728578E+02  0.00000000000E+00 0.  1.
         11    1    4    4    0    0 -0.25583577224E+01 -0.15906552515E+01  0.11355329587E+01  0.32194430770E+01  0.51100000000E-03 0. -1.
        -11    1    4    4    0    0 -0.17880942149E+01  0.29465289061E+01  0.11336261983E+02  0.11848634922E+02  0.51100000000E-03 0.  1.
        -12    1    4    4    0    0 -0.18205297019E+02  0.21321672242E+02  0.16867100270E+02  0.32719193423E+02  0.00000000000E+00 0.  1.
</event>
<event>
 8    1  0.6469014E-010  0.9118800E+02  0.7816164E-02  0.1184000E+00
        -11   -1    0    0    0    0  0.00000000000E+00  0.00000000000E+00  0.45593999997E+02  0.45594000000E+02  0.51100000000E-03 0. -1.
         11   -1    0    0    0    0 -0.00000000000E+00 -0.00000000000E+00 -0.45593999997E+02  0.45594000000E+02  0.51100000000E-03 0.  1.
         23    2    1    2    0    0  0.00000000000E+00  0.71054273576E-14  0.88817841970E-15  0.91188000000E+02  0.91188000000E+02 0.  0.
    9900012    2    3    3    0    0 -0.17590954056E+02 -0.39019496492E+02 -0.71875220494E+01  0.47787271385E+02  0.20000001553E+02 0.  0.
         12    1    3    3    0    0  0.17590954056E+02  0.39019496492E+02  0.71875220494E+01  0.43400728615E+02  0.00000000000E+00 0. -1.
         11    1    4    4    0    0  0.11357018931E+01 -0.16301699861E+01  0.38717361497E+01  0.43517369000E+01  0.51100000000E-03 0. -1.
        -11    1    4    4    0    0 -0.17342943753E+02 -0.33194437590E+02 -0.87904781231E+01  0.38469739937E+02  0.51100000000E-03 0.  1.
        -12    1    4    4    0    0 -0.13837121964E+01 -0.41948889161E+01 -0.22687800760E+01  0.49657945482E+01  0.00000000000E+00 0.  1.
</event>
<event>
 8    1  0.6469014E-010  0.9118800E+02  0.7816164E-02  0.1184000E+00
        -11   -1    0    0    0    0  0.00000000000E+00  0.00000000000E+00  0.45593999997E+02  0.45594000000E+02  0.51100000000E-03 0. -1.
         11   -1    0    0    0    0 -0.00000000000E+00 -0.00000000000E+00 -0.45593999997E+02  0.45594000000E+02  0.51100000000E-03 0.  1.
         23    2    1    2    0    0  0.35527136788E-14 -0.17763568394E-14  0.00000000000E+00  0.91188000000E+02  0.91188000000E+02 0.  0.
    9900012    2    3    3    0    0  0.28800203778E+02  0.43200227654E+01 -0.32179304626E+02  0.47787285944E+02  0.20000067934E+02 0.  0.
         12    1    3    3    0    0 -0.28800203778E+02 -0.43200227654E+01  0.32179304626E+02  0.43400714056E+02  0.00000000000E+00 0. -1.
         11    1    4    4    0    0  0.77611260940E+01  0.57865034226E+01 -0.46317353343E+01  0.10731806585E+02  0.51100000000E-03 0. -1.
        -11    1    4    4    0    0  0.16296440958E+02 -0.16331032719E+01 -0.27840712342E+02  0.32300871167E+02  0.51100000000E-03 0.  1.
        -12    1    4    4    0    0  0.47426367260E+01  0.16662261466E+00  0.29314305042E+00  0.47546081919E+01  0.00000000000E+00 0.  1.
</event>
<event>
 8    1  0.6469014E-010  0.9118800E+02  0.7816164E-02  0.1184000E+00
        -11   -1    0    0    0    0  0.00000000000E+00  0.00000000000E+00  0.45593999997E+02  0.45594000000E+02  0.51100000000E-03 0. -1.
         11   -1    0    0    0    0 -0.00000000000E+00 -0.00000000000E+00 -0.45593999997E+02  0.45594000000E+02  0.51100000000E-03 0.  1.
         23    2    1    2    0    0 -0.35527136788E-14  0.00000000000E+00  0.00000000000E+00  0.91188000000E+02  0.91188000000E+02 0.  0.
    9900012    2    3    3    0    0  0.11506632014E+02 -0.37060163029E+02 -0.19436173380E+02  0.47787273051E+02  0.20000009147E+02 0.  0.
         12    1    3    3    0    0 -0.11506632014E+02  0.37060163029E+02  0.19436173380E+02  0.43400726949E+02  0.00000000000E+00 0. -1.
         11    1    4    4    0    0  0.11635321805E+01 -0.28389002632E+01 -0.83524585632E+00  0.31797480625E+01  0.51100000000E-03 0. -1.
        -11    1    4    4    0    0 -0.48781457897E+01 -0.81195462136E+01 -0.85604980504E+01  0.12767359327E+02  0.51100000000E-03 0.  1.
         12    1    4    4    0    0  0.15221245623E+02 -0.26101716553E+02 -0.10040429473E+02  0.31840165661E+02  0.00000000000E+00 0. -1.
</event>
<event>
 8    1  0.6469014E-010  0.9118800E+02  0.7816164E-02  0.1184000E+00
        -11   -1    0    0    0    0  0.00000000000E+00  0.00000000000E+00  0.45593999997E+02  0.45594000000E+02  0.51100000000E-03 0. -1.
         11   -1    0    0    0    0 -0.00000000000E+00 -0.00000000000E+00 -0.45593999997E+02  0.45594000000E+02  0.51100000000E-03 0.  1.
         23    2    1    2    0    0  0.71054273576E-14  0.17763568394E-14  0.35527136788E-14  0.91188000000E+02  0.91188000000E+02 0.  0.
    9900012    2    3    3    0    0  0.28294939506E+02 -0.86819691606E+01  0.31743393702E+02  0.47787271505E+02  0.20000002099E+02 0.  0.
        -12    1    3    3    0    0 -0.28294939506E+02  0.86819691606E+01 -0.31743393702E+02  0.43400728495E+02  0.00000000000E+00 0.  1.
         11    1    4    4    0    0  0.17859006804E+01 -0.16425645501E+00  0.14046825184E+02  0.14160851650E+02  0.51100000000E-03 0. -1.
        -11    1    4    4    0    0  0.19279597309E+02 -0.33814125868E+01  0.10543697031E+02  0.22233001840E+02  0.51100000000E-03 0.  1.
         12    1    4    4    0    0  0.72294415167E+01 -0.51363001188E+01  0.71528714869E+01  0.11393418015E+02  0.00000000000E+00 0. -1.
</event>
<event>
 8    1  0.6469014E-010  0.9118800E+02  0.7816164E-02  0.1184000E+00
        -11   -1    0    0    0    0  0.00000000000E+00  0.00000000000E+00  0.45593999997E+02  0.45594000000E+02  0.51100000000E-03 0.  1.
         11   -1    0    0    0    0 -0.00000000000E+00 -0.00000000000E+00 -0.45593999997E+02  0.45594000000E+02  0.51100000000E-03 0. -1.
         23    2    1    2    0    0 -0.35527136788E-14  0.00000000000E+00  0.00000000000E+00  0.91188000000E+02  0.91188000000E+02 0.  0.
    9900012    2    3    3    0    0  0.31912710528E+02 -0.24390934887E+02  0.16440262963E+02  0.47787296732E+02  0.20000117118E+02 0.  0.
        -12    1    3    3    0    0 -0.31912710528E+02  0.24390934887E+02 -0.16440262963E+02  0.43400703268E+02  0.00000000000E+00 0.  1.
         11    1    4    4    0    0  0.16489480486E+02 -0.10790816136E+02  0.77914834043E+01  0.21190844567E+02  0.51100000000E-03 0. -1.
        -11    1    4    4    0    0  0.13485151725E+02 -0.79827867139E+01  0.12033318927E+02  0.19757908934E+02  0.51100000000E-03 0.  1.
        -12    1    4    4    0    0  0.19380783164E+01 -0.56173320374E+01 -0.33845393686E+01  0.68385432306E+01  0.00000000000E+00 0.  1.
</event>
<event>
 8    1  0.6469014E-010  0.9118800E+02  0.7816164E-02  0.1184000E+00
        -11   -1    0    0    0    0  0.00000000000E+00  0.00000000000E+00  0.45593999997E+02  0.45594000000E+02  0.51100000000E-03 0. -1.
         11   -1    0    0    0    0 -0.00000000000E+00 -0.00000000000E+00 -0.45593999997E+02  0.45594000000E+02  0.51100000000E-03 0.  1.
         23    2    1    2    0    0  0.00000000000E+00  0.00000000000E+00  0.00000000000E+00  0.91188000000E+02  0.91188000000E+02 0.  0.
    9900012    2    3    3    0    0 -0.11446742794E+02  0.16977591311E+02  0.38266917831E+02  0.47787268122E+02  0.19999986674E+02 0.  0.
        -12    1    3    3    0    0  0.11446742794E+02 -0.16977591311E+02 -0.38266917831E+02  0.43400731878E+02  0.00000000000E+00 0.  1.
         11    1    4    4    0    0 -0.50557343485E+01  0.11765872060E+02  0.30081383148E+02  0.32693819102E+02  0.51100000000E-03 0. -1.
        -11    1    4    4    0    0  0.13805141083E+01  0.44766987226E+01  0.43622906091E+01  0.64012678647E+01  0.51100000000E-03 0.  1.
         12    1    4    4    0    0 -0.77715225535E+01  0.73502052785E+00  0.38232440739E+01  0.86921811546E+01  0.00000000000E+00 0. -1.
</event>
<event>
 8    1  0.6469014E-010  0.9118800E+02  0.7816164E-02  0.1184000E+00
        -11   -1    0    0    0    0  0.00000000000E+00  0.00000000000E+00  0.45593999997E+02  0.45594000000E+02  0.51100000000E-03 0.  1.
         11   -1    0    0    0    0 -0.00000000000E+00 -0.00000000000E+00 -0.45593999997E+02  0.45594000000E+02  0.51100000000E-03 0. -1.
         23    2    1    2    0    0 -0.71054273576E-14  0.66613381478E-15  0.00000000000E+00  0.91188000000E+02  0.91188000000E+02 0.  0.
    9900012    2    3    3    0    0  0.36080803867E+02  0.16998445675E+01  0.24060534089E+02  0.47787272127E+02  0.20000004935E+02 0.  0.
        -12    1    3    3    0    0 -0.36080803867E+02 -0.16998445675E+01 -0.24060534089E+02  0.43400727873E+02  0.00000000000E+00 0.  1.
         11    1    4    4    0    0  0.17317345527E+02 -0.72704850961E+01  0.53022897085E+01  0.19515754817E+02  0.51100000000E-03 0. -1.
        -11    1    4    4    0    0  0.12377447473E+02  0.70575568238E+01  0.14675303131E+02  0.20454213172E+02  0.51100000000E-03 0.  1.
        -12    1    4    4    0    0  0.63860108671E+01  0.19127728398E+01  0.40829412502E+01  0.78173041379E+01  0.00000000000E+00 0.  1.
</event>
<event>
 8    1  0.6469014E-010  0.9118800E+02  0.7816164E-02  0.1184000E+00
        -11   -1    0    0    0    0  0.00000000000E+00  0.00000000000E+00  0.45593999997E+02  0.45594000000E+02  0.51100000000E-03 0. -1.
         11   -1    0    0    0    0 -0.00000000000E+00 -0.00000000000E+00 -0.45593999997E+02  0.45594000000E+02  0.51100000000E-03 0.  1.
         23    2    1    2    0    0  0.00000000000E+00  0.00000000000E+00  0.00000000000E+00  0.91188000000E+02  0.91188000000E+02 0.  0.
    9900012    2    3    3    0    0 -0.89389593603E+01  0.32744334613E+02 -0.27046744287E+02  0.47787276271E+02  0.20000023830E+02 0.  0.
         12    1    3    3    0    0  0.89389593603E+01 -0.32744334613E+02  0.27046744287E+02  0.43400723729E+02  0.00000000000E+00 0. -1.
         11    1    4    4    0    0 -0.16539876474E+01  0.36180557740E+01  0.25502486424E+01  0.47254387226E+01  0.51100000000E-03 0. -1.
        -11    1    4    4    0    0 -0.59200272123E+01  0.24366512854E+02 -0.28554360552E+02  0.38001647039E+02  0.51100000000E-03 0.  1.
        -12    1    4    4    0    0 -0.13649445006E+01  0.47597659848E+01 -0.10426323772E+01  0.50601905096E+01  0.00000000000E+00 0.  1.
</event>
<event>
 8    1  0.6469014E-010  0.9118800E+02  0.7816164E-02  0.1184000E+00
        -11   -1    0    0    0    0  0.00000000000E+00  0.00000000000E+00  0.45593999997E+02  0.45594000000E+02  0.51100000000E-03 0. -1.
         11   -1    0    0    0    0 -0.00000000000E+00 -0.00000000000E+00 -0.45593999997E+02  0.45594000000E+02  0.51100000000E-03 0.  1.
         23    2    1    2    0    0  0.00000000000E+00 -0.44408920985E-15 -0.71054273576E-14  0.91188000000E+02  0.91188000000E+02 0.  0.
    9900012    2    3    3    0    0 -0.18703922212E+02 -0.20648311709E+01 -0.39109110583E+02  0.47787276913E+02  0.20000026758E+02 0.  0.
         12    1    3    3    0    0  0.18703922212E+02  0.20648311709E+01  0.39109110583E+02  0.43400723087E+02  0.00000000000E+00 0. -1.
         11    1    4    4    0    0 -0.67043221186E+01 -0.31269261218E+00 -0.42125669323E+00  0.67248174104E+01  0.51100000000E-03 0. -1.
        -11    1    4    4    0    0 -0.10678350342E+02  0.93791654310E+00 -0.31535383618E+02  0.33307465735E+02  0.51100000000E-03 0.  1.
        -12    1    4    4    0    0 -0.13212497510E+01 -0.26900551018E+01 -0.71524702715E+01  0.77549937679E+01  0.00000000000E+00 0.  1.
</event>
<event>
 8    1  0.6469014E-010  0.9118800E+02  0.7816164E-02  0.1184000E+00
        -11   -1    0    0    0    0  0.00000000000E+00  0.00000000000E+00  0.45593999997E+02  0.45594000000E+02  0.51100000000E-03 0. -1.
         11   -1    0    0    0    0 -0.00000000000E+00 -0.00000000000E+00 -0.45593999997E+02  0.45594000000E+02  0.51100000000E-03 0.  1.
         23    2    1    2    0    0  0.00000000000E+00 -0.44408920985E-15 -0.14210854715E-13  0.91188000000E+02  0.91188000000E+02 0.  0.
    9900012    2    3    3    0    0  0.99943314102E+01  0.11833199731E+01  0.42217716616E+02  0.47787279928E+02  0.20000040506E+02 0.  0.
        -12    1    3    3    0    0 -0.99943314102E+01 -0.11833199731E+01 -0.42217716616E+02  0.43400720072E+02  0.00000000000E+00 0.  1.
         11    1    4    4    0    0 -0.38928084719E+01 -0.36277920430E+01  0.69721610784E+01  0.87707390379E+01  0.51100000000E-03 0. -1.
        -11    1    4    4    0    0  0.42536353951E+01  0.56364070450E+01  0.15314660333E+02  0.16864202318E+02  0.51100000000E-03 0.  1.
         12    1    4    4    0    0  0.96335044870E+01 -0.82529502885E+00  0.19930895204E+02  0.22152338572E+02  0.00000000000E+00 0. -1.
</event>
<event>
 8    1  0.6469014E-010  0.9118800E+02  0.7816164E-02  0.1184000E+00
        -11   -1    0    0    0    0  0.00000000000E+00  0.00000000000E+00  0.45593999997E+02  0.45594000000E+02  0.51100000000E-03 0. -1.
         11   -1    0    0    0    0 -0.00000000000E+00 -0.00000000000E+00 -0.45593999997E+02  0.45594000000E+02  0.51100000000E-03 0.  1.
         23    2    1    2    0    0  0.17763568394E-14  0.00000000000E+00 -0.71054273576E-14  0.91188000000E+02  0.91188000000E+02 0.  0.
    9900012    2    3    3    0    0  0.12360530544E+02  0.42175305529E+01 -0.41389037134E+02  0.47787277953E+02  0.20000031501E+02 0.  0.
         12    1    3    3    0    0 -0.12360530544E+02 -0.42175305529E+01  0.41389037134E+02  0.43400722047E+02  0.00000000000E+00 0. -1.
         11    1    4    4    0    0 -0.17609228890E+01 -0.18007451389E+01  0.95077591486E+00  0.26921195326E+01  0.51100000000E-03 0. -1.
        -11    1    4    4    0    0  0.58774030414E+01  0.32140077254E+01 -0.21162421660E+02  0.22197337745E+02  0.51100000000E-03 0.  1.
         12    1    4    4    0    0  0.82440503918E+01  0.28042679665E+01 -0.21177391389E+02  0.22897820676E+02  0.00000000000E+00 0. -1.
</event>
<event>
 8    1  0.6469014E-010  0.9118800E+02  0.7816164E-02  0.1184000E+00
        -11   -1    0    0    0    0  0.00000000000E+00  0.00000000000E+00  0.45593999997E+02  0.45594000000E+02  0.51100000000E-03 0. -1.
         11   -1    0    0    0    0 -0.00000000000E+00 -0.00000000000E+00 -0.45593999997E+02  0.45594000000E+02  0.51100000000E-03 0.  1.
         23    2    1    2    0    0  0.88817841970E-15  0.00000000000E+00  0.00000000000E+00  0.91188000000E+02  0.91188000000E+02 0.  0.
    9900012    2    3    3    0    0 -0.67599122744E+01  0.22873419602E+02 -0.36259257836E+02  0.47787268243E+02  0.19999987227E+02 0.  0.
         12    1    3    3    0    0  0.67599122744E+01 -0.22873419602E+02  0.36259257836E+02  0.43400731757E+02  0.00000000000E+00 0. -1.
         11    1    4    4    0    0  0.46344866560E+01  0.87118123790E+01 -0.43686072378E+01  0.10791611138E+02  0.51100000000E-03 0. -1.
        -11    1    4    4    0    0 -0.69842234683E+01  0.50145518512E+01 -0.14580512061E+02  0.16926796505E+02  0.51100000000E-03 0.  1.
         12    1    4    4    0    0 -0.44101754621E+01  0.91470553719E+01 -0.17310138538E+02  0.20068860600E+02  0.00000000000E+00 0. -1.
</event>
<event>
 8    1  0.6469014E-010  0.9118800E+02  0.7816164E-02  0.1184000E+00
        -11   -1    0    0    0    0  0.00000000000E+00  0.00000000000E+00  0.45593999997E+02  0.45594000000E+02  0.51100000000E-03 0. -1.
         11   -1    0    0    0    0 -0.00000000000E+00 -0.00000000000E+00 -0.45593999997E+02  0.45594000000E+02  0.51100000000E-03 0.  1.
         23    2    1    2    0    0  0.00000000000E+00  0.00000000000E+00  0.35527136788E-14  0.91188000000E+02  0.91188000000E+02 0.  0.
    9900012    2    3    3    0    0 -0.26226819756E+02  0.16313066870E+02 -0.30490342227E+02  0.47787271961E+02  0.20000004178E+02 0.  0.
         12    1    3    3    0    0  0.26226819756E+02 -0.16313066870E+02  0.30490342227E+02  0.43400728039E+02  0.00000000000E+00 0. -1.
         11    1    4    4    0    0 -0.25857587350E+02  0.12955783254E+02 -0.24297376670E+02  0.37773398796E+02  0.51100000000E-03 0. -1.
        -11    1    4    4    0    0 -0.28035280145E+01  0.43754873913E+01 -0.45381661278E+01  0.68992471549E+01  0.51100000000E-03 0.  1.
         12    1    4    4    0    0  0.24342956081E+01 -0.10182037747E+01 -0.16547994287E+01  0.31146260102E+01  0.00000000000E+00 0. -1.
</event>
<event>
 8    1  0.6469014E-010  0.9118800E+02  0.7816164E-02  0.1184000E+00
        -11   -1    0    0    0    0  0.00000000000E+00  0.00000000000E+00  0.45593999997E+02  0.45594000000E+02  0.51100000000E-03 0. -1.
         11   -1    0    0    0    0 -0.00000000000E+00 -0.00000000000E+00 -0.45593999997E+02  0.45594000000E+02  0.51100000000E-03 0.  1.
         23    2    1    2    0    0  0.00000000000E+00  0.53290705182E-14  0.35527136788E-14  0.91188000000E+02  0.91188000000E+02 0.  0.
    9900012    2    3    3    0    0  0.36511433765E+02  0.15048689962E+02 -0.18002073764E+02  0.47787279672E+02  0.20000039338E+02 0.  0.
         12    1    3    3    0    0 -0.36511433765E+02 -0.15048689962E+02  0.18002073764E+02  0.43400720328E+02  0.00000000000E+00 0. -1.
         11    1    4    4    0    0  0.48048124248E+01 -0.34733022972E+01  0.49521275929E+00  0.59493938534E+01  0.51100000000E-03 0. -1.
        -11    1    4    4    0    0  0.29815348130E+02  0.14716936683E+02 -0.15878719742E+02  0.36846668104E+02  0.51100000000E-03 0.  1.
         12    1    4    4    0    0  0.18912732104E+01  0.38050555753E+01 -0.26185667814E+01  0.49912177148E+01  0.00000000000E+00 0. -1.
</event>
<event>
 8    1  0.6469014E-010  0.9118800E+02  0.7816164E-02  0.1184000E+00
        -11   -1    0    0    0    0  0.00000000000E+00  0.00000000000E+00  0.45593999997E+02  0.45594000000E+02  0.51100000000E-03 0. -1.
         11   -1    0    0    0    0 -0.00000000000E+00 -0.00000000000E+00 -0.45593999997E+02  0.45594000000E+02  0.51100000000E-03 0.  1.
         23    2    1    2    0    0  0.00000000000E+00  0.00000000000E+00  0.00000000000E+00  0.91188000000E+02  0.91188000000E+02 0.  0.
    9900012    2    3    3    0    0  0.95970145974E+01  0.36091415490E+02 -0.22111772151E+02  0.47787269258E+02  0.19999991855E+02 0.  0.
         12    1    3    3    0    0 -0.95970145974E+01 -0.36091415490E+02  0.22111772151E+02  0.43400730742E+02  0.00000000000E+00 0. -1.
         11    1    4    4    0    0 -0.29566096208E+01  0.89766107037E+01 -0.11657890221E+02  0.15007580913E+02  0.51100000000E-03 0. -1.
        -11    1    4    4    0    0  0.83499033924E+01  0.24606602360E+02 -0.74308864703E+01  0.27026354551E+02  0.51100000000E-03 0.  1.
        -12    1    4    4    0    0  0.42037208258E+01  0.25082024272E+01 -0.30229954595E+01  0.57533337940E+01  0.00000000000E+00 0.  1.
</event>
<event>
 8    1  0.6469014E-010  0.9118800E+02  0.7816164E-02  0.1184000E+00
        -11   -1    0    0    0    0  0.00000000000E+00  0.00000000000E+00  0.45593999997E+02  0.45594000000E+02  0.51100000000E-03 0. -1.
         11   -1    0    0    0    0 -0.00000000000E+00 -0.00000000000E+00 -0.45593999997E+02  0.45594000000E+02  0.51100000000E-03 0.  1.
         23    2    1    2    0    0  0.00000000000E+00  0.00000000000E+00 -0.35527136788E-14  0.91188000000E+02  0.91188000000E+02 0.  0.
    9900012    2    3    3    0    0 -0.33152295871E+02  0.11697751645E+02  0.25450162322E+02  0.47787275614E+02  0.20000020834E+02 0.  0.
        -12    1    3    3    0    0  0.33152295871E+02 -0.11697751645E+02 -0.25450162322E+02  0.43400724386E+02  0.00000000000E+00 0.  1.
         11    1    4    4    0    0 -0.11013905431E+02  0.17985008987E+01  0.10775646888E+02  0.15513068183E+02  0.51100000000E-03 0. -1.
        -11    1    4    4    0    0 -0.16834968358E+02  0.36055445850E+00  0.46840281772E+01  0.17478165790E+02  0.51100000000E-03 0.  1.
        -12    1    4    4    0    0 -0.53034220813E+01  0.95386962876E+01  0.99904872562E+01  0.14796041641E+02  0.00000000000E+00 0.  1.
</event>
<event>
 8    1  0.6469014E-010  0.9118800E+02  0.7816164E-02  0.1184000E+00
        -11   -1    0    0    0    0  0.00000000000E+00  0.00000000000E+00  0.45593999997E+02  0.45594000000E+02  0.51100000000E-03 0. -1.
         11   -1    0    0    0    0 -0.00000000000E+00 -0.00000000000E+00 -0.45593999997E+02  0.45594000000E+02  0.51100000000E-03 0.  1.
         23    2    1    2    0    0  0.00000000000E+00  0.00000000000E+00  0.17763568394E-14  0.91188000000E+02  0.91188000000E+02 0.  0.
    9900012    2    3    3    0    0 -0.34053002351E+02  0.24619613242E+02 -0.10857772454E+02  0.47787267886E+02  0.19999985601E+02 0.  0.
         12    1    3    3    0    0  0.34053002351E+02 -0.24619613242E+02  0.10857772454E+02  0.43400732114E+02  0.00000000000E+00 0. -1.
         11    1    4    4    0    0 -0.25795847172E+01  0.12180570940E+02 -0.18093370870E+01  0.12581504946E+02  0.51100000000E-03 0. -1.
        -11    1    4    4    0    0 -0.27739768144E+02  0.11314522918E+02 -0.68584872702E+01  0.30733564932E+02  0.51100000000E-03 0.  1.
         12    1    4    4    0    0 -0.37336494905E+01  0.11245193839E+01 -0.21899480967E+01  0.44721980086E+01  0.00000000000E+00 0. -1.
</event>
<event>
 8    1  0.6469014E-010  0.9118800E+02  0.7816164E-02  0.1184000E+00
        -11   -1    0    0    0    0  0.00000000000E+00  0.00000000000E+00  0.45593999997E+02  0.45594000000E+02  0.51100000000E-03 0. -1.
         11   -1    0    0    0    0 -0.00000000000E+00 -0.00000000000E+00 -0.45593999997E+02  0.45594000000E+02  0.51100000000E-03 0.  1.
         23    2    1    2    0    0  0.00000000000E+00  0.00000000000E+00  0.00000000000E+00  0.91188000000E+02  0.91188000000E+02 0.  0.
    9900012    2    3    3    0    0 -0.28927320781E+02  0.62936694656E+01 -0.31736783855E+02  0.47787267144E+02  0.19999982218E+02 0.  0.
         12    1    3    3    0    0  0.28927320781E+02 -0.62936694656E+01  0.31736783855E+02  0.43400732856E+02  0.00000000000E+00 0. -1.
         11    1    4    4    0    0 -0.51675853770E+01 -0.60955366912E+01 -0.44391882983E+01  0.91414385734E+01  0.51100000000E-03 0. -1.
        -11    1    4    4    0    0 -0.12633274897E+02  0.50591901090E+01 -0.17174387412E+02  0.21912430774E+02  0.51100000000E-03 0.  1.
         12    1    4    4    0    0 -0.11126460508E+02  0.73300160478E+01 -0.10123208145E+02  0.16733397797E+02  0.00000000000E+00 0. -1.
</event>
<event>
 8    1  0.6469014E-010  0.9118800E+02  0.7816164E-02  0.1184000E+00
        -11   -1    0    0    0    0  0.00000000000E+00  0.00000000000E+00  0.45593999997E+02  0.45594000000E+02  0.51100000000E-03 0. -1.
         11   -1    0    0    0    0 -0.00000000000E+00 -0.00000000000E+00 -0.45593999997E+02  0.45594000000E+02  0.51100000000E-03 0.  1.
         23    2    1    2    0    0  0.00000000000E+00 -0.44408920985E-15 -0.71054273576E-14  0.91188000000E+02  0.91188000000E+02 0.  0.
    9900012    2    3    3    0    0  0.13333497102E+02  0.23130538857E+01  0.41237010700E+02  0.47787269422E+02  0.19999992601E+02 0.  0.
        -12    1    3    3    0    0 -0.13333497102E+02 -0.23130538857E+01 -0.41237010700E+02  0.43400730578E+02  0.00000000000E+00 0.  1.
         11    1    4    4    0    0 -0.21698727314E+01 -0.15263670230E+01  0.17175282971E+02  0.17378966867E+02  0.51100000000E-03 0. -1.
        -11    1    4    4    0    0  0.68009764657E+01  0.65667358759E+01  0.12940268561E+02  0.16025787084E+02  0.51100000000E-03 0.  1.
         12    1    4    4    0    0  0.87023933680E+01 -0.27273149672E+01  0.11121459167E+02  0.14382515471E+02  0.00000000000E+00 0. -1.
</event>
<event>
 8    1  0.6469014E-010  0.9118800E+02  0.7816164E-02  0.1184000E+00
        -11   -1    0    0    0    0  0.00000000000E+00  0.00000000000E+00  0.45593999997E+02  0.45594000000E+02  0.51100000000E-03 0. -1.
         11   -1    0    0    0    0 -0.00000000000E+00 -0.00000000000E+00 -0.45593999997E+02  0.45594000000E+02  0.51100000000E-03 0.  1.
         23    2    1    2    0    0  0.00000000000E+00  0.00000000000E+00  0.71054273576E-14  0.91188000000E+02  0.91188000000E+02 0.  0.
    9900012    2    3    3    0    0  0.15038645243E+02  0.13860730659E+02  0.38279796628E+02  0.47787268036E+02  0.19999986283E+02 0.  0.
        -12    1    3    3    0    0 -0.15038645243E+02 -0.13860730659E+02 -0.38279796628E+02  0.43400731964E+02  0.00000000000E+00 0.  1.
         11    1    4    4    0    0  0.72747734124E+01  0.33205606248E+01  0.13360772032E+02  0.15571084760E+02  0.51100000000E-03 0. -1.
        -11    1    4    4    0    0  0.19291550334E+01 -0.36726251889E+01  0.98857548181E+01  0.10720912438E+02  0.51100000000E-03 0.  1.
        -12    1    4    4    0    0  0.58347167977E+01  0.14212795223E+02  0.15033269778E+02  0.21495270837E+02  0.00000000000E+00 0.  1.
</event>
<event>
 8    1  0.6469014E-010  0.9118800E+02  0.7816164E-02  0.1184000E+00
        -11   -1    0    0    0    0  0.00000000000E+00  0.00000000000E+00  0.45593999997E+02  0.45594000000E+02  0.51100000000E-03 0. -1.
         11   -1    0    0    0    0 -0.00000000000E+00 -0.00000000000E+00 -0.45593999997E+02  0.45594000000E+02  0.51100000000E-03 0.  1.
         23    2    1    2    0    0 -0.35527136788E-14  0.00000000000E+00  0.00000000000E+00  0.91188000000E+02  0.91188000000E+02 0.  0.
    9900012    2    3    3    0    0  0.22051352591E+02 -0.25502053921E+02  0.27331413811E+02  0.47787273207E+02  0.20000009858E+02 0.  0.
        -12    1    3    3    0    0 -0.22051352591E+02  0.25502053921E+02 -0.27331413811E+02  0.43400726793E+02  0.00000000000E+00 0.  1.
         11    1    4    4    0    0  0.69887154204E+01 -0.94710285334E+00  0.54311267940E+01  0.89014765942E+01  0.51100000000E-03 0. -1.
        -11    1    4    4    0    0 -0.18608258622E+01 -0.70703348308E+01  0.80995808202E+01  0.10911256446E+02  0.51100000000E-03 0.  1.
        -12    1    4    4    0    0  0.16923463033E+02 -0.17484616237E+02  0.13800706196E+02  0.27974540166E+02  0.00000000000E+00 0.  1.
</event>
<event>
 8    1  0.6469014E-010  0.9118800E+02  0.7816164E-02  0.1184000E+00
        -11   -1    0    0    0    0  0.00000000000E+00  0.00000000000E+00  0.45593999997E+02  0.45594000000E+02  0.51100000000E-03 0. -1.
         11   -1    0    0    0    0 -0.00000000000E+00 -0.00000000000E+00 -0.45593999997E+02  0.45594000000E+02  0.51100000000E-03 0.  1.
         23    2    1    2    0    0  0.00000000000E+00 -0.17763568394E-14  0.00000000000E+00  0.91188000000E+02  0.91188000000E+02 0.  0.
    9900012    2    3    3    0    0 -0.17309950872E+02  0.51776997170E+01 -0.39461122164E+02  0.47787272633E+02  0.20000007242E+02 0.  0.
         12    1    3    3    0    0  0.17309950872E+02 -0.51776997170E+01  0.39461122164E+02  0.43400727367E+02  0.00000000000E+00 0. -1.
         11    1    4    4    0    0 -0.13021397286E+02 -0.49945118036E+01 -0.22889800995E+02  0.26803822960E+02  0.51100000000E-03 0. -1.
        -11    1    4    4    0    0 -0.60162497483E+01  0.73496241858E+01 -0.11326215348E+02  0.14781589599E+02  0.51100000000E-03 0.  1.
         12    1    4    4    0    0  0.17276961624E+01  0.28225873348E+01 -0.52451058213E+01  0.62018600733E+01  0.00000000000E+00 0. -1.
</event>
<event>
 8    1  0.6469014E-010  0.9118800E+02  0.7816164E-02  0.1184000E+00
        -11   -1    0    0    0    0  0.00000000000E+00  0.00000000000E+00  0.45593999997E+02  0.45594000000E+02  0.51100000000E-03 0. -1.
         11   -1    0    0    0    0 -0.00000000000E+00 -0.00000000000E+00 -0.45593999997E+02  0.45594000000E+02  0.51100000000E-03 0.  1.
         23    2    1    2    0    0  0.00000000000E+00  0.35527136788E-14  0.00000000000E+00  0.91188000000E+02  0.91188000000E+02 0.  0.
    9900012    2    3    3    0    0 -0.41723359846E+01 -0.16052437940E+02  0.40106556328E+02  0.47787251022E+02  0.19999908709E+02 0.  0.
        -12    1    3    3    0    0  0.41723359846E+01  0.16052437940E+02 -0.40106556328E+02  0.43400748978E+02  0.00000000000E+00 0.  1.
         11    1    4    4    0    0 -0.39556631949E+01 -0.13502879813E+01  0.24830548652E+02  0.25179886726E+02  0.51100000000E-03 0. -1.
        -11    1    4    4    0    0  0.99996021389E-01 -0.11325633376E+02  0.61859076496E+01  0.12905247936E+02  0.51100000000E-03 0.  1.
         12    1    4    4    0    0 -0.31666881103E+00 -0.33765165827E+01  0.90901000267E+01  0.97021163601E+01  0.00000000000E+00 0. -1.
</event>
<event>
 8    1  0.6469014E-010  0.9118800E+02  0.7816164E-02  0.1184000E+00
        -11   -1    0    0    0    0  0.00000000000E+00  0.00000000000E+00  0.45593999997E+02  0.45594000000E+02  0.51100000000E-03 0. -1.
         11   -1    0    0    0    0 -0.00000000000E+00 -0.00000000000E+00 -0.45593999997E+02  0.45594000000E+02  0.51100000000E-03 0.  1.
         23    2    1    2    0    0  0.00000000000E+00 -0.44408920985E-15  0.00000000000E+00  0.91188000000E+02  0.91188000000E+02 0.  0.
    9900012    2    3    3    0    0 -0.16861144260E+02  0.72901615601E+00 -0.39984921563E+02  0.47787267256E+02  0.19999982725E+02 0.  0.
         12    1    3    3    0    0  0.16861144260E+02 -0.72901615601E+00  0.39984921563E+02  0.43400732744E+02  0.00000000000E+00 0. -1.
         11    1    4    4    0    0 -0.98267845594E+01 -0.34767790682E+01 -0.72133158889E+01  0.12676182937E+02  0.51100000000E-03 0. -1.
        -11    1    4    4    0    0 -0.88663059615E+01  0.24648721770E+01 -0.29908009268E+02  0.31291787979E+02  0.51100000000E-03 0.  1.
         12    1    4    4    0    0  0.18319462604E+01  0.17409230472E+01 -0.28635964063E+01  0.38192963403E+01  0.00000000000E+00 0. -1.
</event>
<event>
 8    1  0.6469014E-010  0.9118800E+02  0.7816164E-02  0.1184000E+00
        -11   -1    0    0    0    0  0.00000000000E+00  0.00000000000E+00  0.45593999997E+02  0.45594000000E+02  0.51100000000E-03 0. -1.
         11   -1    0    0    0    0 -0.00000000000E+00 -0.00000000000E+00 -0.45593999997E+02  0.45594000000E+02  0.51100000000E-03 0.  1.
         23    2    1    2    0    0  0.88817841970E-15 -0.35527136788E-14  0.00000000000E+00  0.91188000000E+02  0.91188000000E+02 0.  0.
    9900012    2    3    3    0    0 -0.79223216600E+01  0.24563543978E+02  0.34892589641E+02  0.47787266307E+02  0.19999978399E+02 0.  0.
        -12    1    3    3    0    0  0.79223216600E+01 -0.24563543978E+02 -0.34892589641E+02  0.43400733693E+02  0.00000000000E+00 0.  1.
         11    1    4    4    0    0  0.32039451147E+01  0.96568457356E+01  0.60093194538E+01  0.11816592335E+02  0.51100000000E-03 0.  1.
        -11    1    4    4    0    0 -0.11710643528E+02  0.12280486872E+02  0.17909225760E+02  0.24671641559E+02  0.51100000000E-03 0. -1.
        -12    1    4    4    0    0  0.58437675334E+00  0.26262113701E+01  0.10974044428E+02  0.11299032412E+02  0.00000000000E+00 0.  1.
</event>
<event>
 8    1  0.6469014E-010  0.9118800E+02  0.7816164E-02  0.1184000E+00
        -11   -1    0    0    0    0  0.00000000000E+00  0.00000000000E+00  0.45593999997E+02  0.45594000000E+02  0.51100000000E-03 0. -1.
         11   -1    0    0    0    0 -0.00000000000E+00 -0.00000000000E+00 -0.45593999997E+02  0.45594000000E+02  0.51100000000E-03 0.  1.
         23    2    1    2    0    0  0.00000000000E+00  0.00000000000E+00  0.00000000000E+00  0.91188000000E+02  0.91188000000E+02 0.  0.
    9900012    2    3    3    0    0 -0.10610065397E+02 -0.26590613028E+02  0.32618849208E+02  0.47787268295E+02  0.19999987464E+02 0.  0.
        -12    1    3    3    0    0  0.10610065397E+02  0.26590613028E+02 -0.32618849208E+02  0.43400731705E+02  0.00000000000E+00 0.  1.
         11    1    4    4    0    0 -0.33841913821E+01 -0.10295884411E+02  0.18184430796E+02  0.21169116911E+02  0.51100000000E-03 0. -1.
        -11    1    4    4    0    0 -0.71849073708E+01 -0.16865706391E+02  0.77400128430E+01  0.19899315191E+02  0.51100000000E-03 0.  1.
        -12    1    4    4    0    0 -0.40966643772E-01  0.57097777450E+00  0.66944055681E+01  0.67188361935E+01  0.00000000000E+00 0.  1.
</event>
<event>
 8    1  0.6469014E-010  0.9118800E+02  0.7816164E-02  0.1184000E+00
        -11   -1    0    0    0    0  0.00000000000E+00  0.00000000000E+00  0.45593999997E+02  0.45594000000E+02  0.51100000000E-03 0. -1.
         11   -1    0    0    0    0 -0.00000000000E+00 -0.00000000000E+00 -0.45593999997E+02  0.45594000000E+02  0.51100000000E-03 0.  1.
         23    2    1    2    0    0 -0.35527136788E-14  0.00000000000E+00  0.00000000000E+00  0.91188000000E+02  0.91188000000E+02 0.  0.
    9900012    2    3    3    0    0  0.26510121415E+02  0.16731166664E+02  0.30015080343E+02  0.47787268170E+02  0.19999986895E+02 0.  0.
        -12    1    3    3    0    0 -0.26510121415E+02 -0.16731166664E+02 -0.30015080343E+02  0.43400731830E+02  0.00000000000E+00 0.  1.
         11    1    4    4    0    0  0.17523772650E+01  0.48475464020E+01  0.11003014620E+02  0.12150549913E+02  0.51100000000E-03 0. -1.
        -11    1    4    4    0    0  0.22845125302E+02  0.81873147925E+01  0.19896964086E+02  0.31381858671E+02  0.51100000000E-03 0.  1.
         12    1    4    4    0    0  0.19126188478E+01  0.36963054694E+01 -0.88489836300E+00  0.42548595855E+01  0.00000000000E+00 0. -1.
</event>
<event>
 8    1  0.6469014E-010  0.9118800E+02  0.7816164E-02  0.1184000E+00
        -11   -1    0    0    0    0  0.00000000000E+00  0.00000000000E+00  0.45593999997E+02  0.45594000000E+02  0.51100000000E-03 0. -1.
         11   -1    0    0    0    0 -0.00000000000E+00 -0.00000000000E+00 -0.45593999997E+02  0.45594000000E+02  0.51100000000E-03 0.  1.
         23    2    1    2    0    0  0.00000000000E+00  0.00000000000E+00  0.00000000000E+00  0.91188000000E+02  0.91188000000E+02 0.  0.
    9900012    2    3    3    0    0  0.10357735966E+02 -0.10389175035E+02 -0.40846170922E+02  0.47787224302E+02  0.19999786881E+02 0.  0.
         12    1    3    3    0    0 -0.10357735966E+02  0.10389175035E+02  0.40846170922E+02  0.43400775698E+02  0.00000000000E+00 0. -1.
         11    1    4    4    0    0  0.62005416807E+01  0.40650278118E+00 -0.59782795684E+01  0.86227483151E+01  0.51100000000E-03 0. -1.
        -11    1    4    4    0    0 -0.34488596933E+01 -0.95076067605E+01 -0.19242290481E+02  0.21738329345E+02  0.51100000000E-03 0.  1.
        -12    1    4    4    0    0  0.76060539784E+01 -0.12880710555E+01 -0.15625600872E+02  0.17426146641E+02  0.00000000000E+00 0.  1.
</event>
<event>
 8    1  0.6469014E-010  0.9118800E+02  0.7816164E-02  0.1184000E+00
        -11   -1    0    0    0    0  0.00000000000E+00  0.00000000000E+00  0.45593999997E+02  0.45594000000E+02  0.51100000000E-03 0.  1.
         11   -1    0    0    0    0 -0.00000000000E+00 -0.00000000000E+00 -0.45593999997E+02  0.45594000000E+02  0.51100000000E-03 0. -1.
         23    2    1    2    0    0  0.00000000000E+00  0.00000000000E+00  0.00000000000E+00  0.91188000000E+02  0.91188000000E+02 0.  0.
    9900012    2    3    3    0    0 -0.30296737228E+02  0.82588533402E+01 -0.29958684869E+02  0.47787265626E+02  0.19999975295E+02 0.  0.
         12    1    3    3    0    0  0.30296737228E+02 -0.82588533402E+01  0.29958684869E+02  0.43400734374E+02  0.00000000000E+00 0. -1.
         11    1    4    4    0    0 -0.22832962713E+02  0.59514541664E+01 -0.22493509746E+02  0.32599416772E+02  0.51100000000E-03 0.  1.
        -11    1    4    4    0    0 -0.78440794115E+01 -0.51031797214E+00 -0.90059365449E+01  0.11953949120E+02  0.51100000000E-03 0. -1.
         12    1    4    4    0    0  0.38030489689E+00  0.28177171460E+01  0.15407614218E+01  0.32338997338E+01  0.00000000000E+00 0. -1.
</event>
<event>
 8    1  0.6469014E-010  0.9118800E+02  0.7816164E-02  0.1184000E+00
        -11   -1    0    0    0    0  0.00000000000E+00  0.00000000000E+00  0.45593999997E+02  0.45594000000E+02  0.51100000000E-03 0.  1.
         11   -1    0    0    0    0 -0.00000000000E+00 -0.00000000000E+00 -0.45593999997E+02  0.45594000000E+02  0.51100000000E-03 0. -1.
         23    2    1    2    0    0  0.00000000000E+00 -0.35527136788E-14 -0.35527136788E-14  0.91188000000E+02  0.91188000000E+02 0.  0.
    9900012    2    3    3    0    0 -0.54896537916E+00  0.29398234460E+02 -0.31922810687E+02  0.47787269655E+02  0.19999993663E+02 0.  0.
         12    1    3    3    0    0  0.54896537916E+00 -0.29398234460E+02  0.31922810687E+02  0.43400730345E+02  0.00000000000E+00 0. -1.
         11    1    4    4    0    0  0.24065636508E+00  0.62148111566E+01 -0.14729489993E+02  0.15988735689E+02  0.51100000000E-03 0. -1.
        -11    1    4    4    0    0 -0.13508668731E+01  0.18108312020E+02 -0.53956438585E+01  0.18943304316E+02  0.51100000000E-03 0.  1.
        -12    1    4    4    0    0  0.56124512887E+00  0.50751112841E+01 -0.11797676835E+02  0.12855229649E+02  0.00000000000E+00 0.  1.
</event>
<event>
 8    1  0.6469014E-010  0.9118800E+02  0.7816164E-02  0.1184000E+00
        -11   -1    0    0    0    0  0.00000000000E+00  0.00000000000E+00  0.45593999997E+02  0.45594000000E+02  0.51100000000E-03 0. -1.
         11   -1    0    0    0    0 -0.00000000000E+00 -0.00000000000E+00 -0.45593999997E+02  0.45594000000E+02  0.51100000000E-03 0.  1.
         23    2    1    2    0    0  0.00000000000E+00 -0.17763568394E-14  0.00000000000E+00  0.91188000000E+02  0.91188000000E+02 0.  0.
    9900012    2    3    3    0    0  0.34500658726E+02  0.70083065249E+01  0.25381316922E+02  0.47787273490E+02  0.20000011152E+02 0.  0.
        -12    1    3    3    0    0 -0.34500658726E+02 -0.70083065249E+01 -0.25381316922E+02  0.43400726510E+02  0.00000000000E+00 0.  1.
         11    1    4    4    0    0  0.23282210063E+02 -0.28507275226E+01  0.11167271683E+02  0.25978758822E+02  0.51100000000E-03 0. -1.
        -11    1    4    4    0    0  0.16824853179E+01  0.37451897368E+01  0.77396307430E+01  0.87612263587E+01  0.51100000000E-03 0.  1.
         12    1    4    4    0    0  0.95359633455E+01  0.61138443107E+01  0.64744144954E+01  0.13047288310E+02  0.00000000000E+00 0. -1.
</event>
<event>
 8    1  0.6469014E-010  0.9118800E+02  0.7816164E-02  0.1184000E+00
        -11   -1    0    0    0    0  0.00000000000E+00  0.00000000000E+00  0.45593999997E+02  0.45594000000E+02  0.51100000000E-03 0. -1.
         11   -1    0    0    0    0 -0.00000000000E+00 -0.00000000000E+00 -0.45593999997E+02  0.45594000000E+02  0.51100000000E-03 0.  1.
         23    2    1    2    0    0  0.44408920985E-15  0.88817841970E-15  0.00000000000E+00  0.91188000000E+02  0.91188000000E+02 0.  0.
    9900012    2    3    3    0    0  0.31353861516E+01  0.45195696196E+01  0.43050736554E+02  0.47787273350E+02  0.20000010513E+02 0.  0.
        -12    1    3    3    0    0 -0.31353861516E+01 -0.45195696196E+01 -0.43050736554E+02  0.43400726650E+02  0.00000000000E+00 0.  1.
         11    1    4    4    0    0  0.47203430358E+01 -0.63200998421E+01  0.17705993646E+02  0.19383691899E+02  0.51100000000E-03 0. -1.
        -11    1    4    4    0    0  0.79526949794E+00  0.78882839976E+01  0.21862050247E+02  0.23255251434E+02  0.51100000000E-03 0.  1.
        -12    1    4    4    0    0 -0.23802263821E+01  0.29513854641E+01  0.34826926611E+01  0.51483300166E+01  0.00000000000E+00 0.  1.
</event>
<event>
 8    1  0.6469014E-010  0.9118800E+02  0.7816164E-02  0.1184000E+00
        -11   -1    0    0    0    0  0.00000000000E+00  0.00000000000E+00  0.45593999997E+02  0.45594000000E+02  0.51100000000E-03 0. -1.
         11   -1    0    0    0    0 -0.00000000000E+00 -0.00000000000E+00 -0.45593999997E+02  0.45594000000E+02  0.51100000000E-03 0.  1.
         23    2    1    2    0    0  0.35527136788E-14  0.00000000000E+00  0.00000000000E+00  0.91188000000E+02  0.91188000000E+02 0.  0.
    9900012    2    3    3    0    0  0.28824245336E+02 -0.81703774507E+01  0.31401135516E+02  0.47787268456E+02  0.19999988198E+02 0.  0.
        -12    1    3    3    0    0 -0.28824245336E+02  0.81703774507E+01 -0.31401135516E+02  0.43400731544E+02  0.00000000000E+00 0.  1.
         11    1    4    4    0    0  0.23666879915E+02  0.21717660282E+01  0.17334035860E+02  0.29416093759E+02  0.51100000000E-03 0. -1.
        -11    1    4    4    0    0  0.41858053462E+01 -0.59036902443E+01  0.79404202779E+01  0.10743593409E+02  0.51100000000E-03 0.  1.
         12    1    4    4    0    0  0.97156007511E+00 -0.44384532346E+01  0.61266793782E+01  0.76275812875E+01  0.00000000000E+00 0. -1.
</event>
<event>
 8    1  0.6469014E-010  0.9118800E+02  0.7816164E-02  0.1184000E+00
        -11   -1    0    0    0    0  0.00000000000E+00  0.00000000000E+00  0.45593999997E+02  0.45594000000E+02  0.51100000000E-03 0. -1.
         11   -1    0    0    0    0 -0.00000000000E+00 -0.00000000000E+00 -0.45593999997E+02  0.45594000000E+02  0.51100000000E-03 0.  1.
         23    2    1    2    0    0  0.00000000000E+00  0.17763568394E-14  0.00000000000E+00  0.91188000000E+02  0.91188000000E+02 0.  0.
    9900012    2    3    3    0    0 -0.33519361144E+02  0.11006790491E+02 -0.25276983056E+02  0.47787275572E+02  0.20000020645E+02 0.  0.
         12    1    3    3    0    0  0.33519361144E+02 -0.11006790491E+02  0.25276983056E+02  0.43400724428E+02  0.00000000000E+00 0. -1.
         11    1    4    4    0    0  0.16380335783E+01  0.45121511635E+00 -0.32234423571E+01  0.36438070717E+01  0.51100000000E-03 0. -1.
        -11    1    4    4    0    0 -0.22974715023E+02  0.20570062650E+01 -0.10595779945E+02  0.25383840491E+02  0.51100000000E-03 0.  1.
         12    1    4    4    0    0 -0.12182679699E+02  0.84985691093E+01 -0.11457760754E+02  0.18759628010E+02  0.00000000000E+00 0. -1.
</event>
<event>
 8    1  0.6469014E-010  0.9118800E+02  0.7816164E-02  0.1184000E+00
        -11   -1    0    0    0    0  0.00000000000E+00  0.00000000000E+00  0.45593999997E+02  0.45594000000E+02  0.51100000000E-03 0. -1.
         11   -1    0    0    0    0 -0.00000000000E+00 -0.00000000000E+00 -0.45593999997E+02  0.45594000000E+02  0.51100000000E-03 0.  1.
         23    2    1    2    0    0 -0.88817841970E-15 -0.35527136788E-14  0.35527136788E-14  0.91188000000E+02  0.91188000000E+02 0.  0.
    9900012    2    3    3    0    0  0.16552168440E+01 -0.30170791465E+02  0.31154563262E+02  0.47787271751E+02  0.20000003222E+02 0.  0.
        -12    1    3    3    0    0 -0.16552168440E+01  0.30170791465E+02 -0.31154563262E+02  0.43400728249E+02  0.00000000000E+00 0.  1.
         11    1    4    4    0    0 -0.38963082184E+01 -0.50095493694E+01  0.31989095086E+01  0.71070264472E+01  0.51100000000E-03 0. -1.
        -11    1    4    4    0    0  0.10191991410E+02 -0.17521683599E+02  0.22132685518E+02  0.30012361679E+02  0.51100000000E-03 0.  1.
        -12    1    4    4    0    0 -0.46404663480E+01 -0.76395584970E+01  0.58229682355E+01  0.10667883625E+02  0.00000000000E+00 0.  1.
</event>
<event>
 8    1  0.6469014E-010  0.9118800E+02  0.7816164E-02  0.1184000E+00
        -11   -1    0    0    0    0  0.00000000000E+00  0.00000000000E+00  0.45593999997E+02  0.45594000000E+02  0.51100000000E-03 0. -1.
         11   -1    0    0    0    0 -0.00000000000E+00 -0.00000000000E+00 -0.45593999997E+02  0.45594000000E+02  0.51100000000E-03 0.  1.
         23    2    1    2    0    0 -0.35527136788E-14 -0.44408920985E-15  0.71054273576E-14  0.91188000000E+02  0.91188000000E+02 0.  0.
    9900012    2    3    3    0    0 -0.26560463663E+02 -0.32747831867E+01  0.34167826913E+02  0.47787276148E+02  0.20000023268E+02 0.  0.
        -12    1    3    3    0    0  0.26560463663E+02  0.32747831867E+01 -0.34167826913E+02  0.43400723852E+02  0.00000000000E+00 0.  1.
         11    1    4    4    0    0 -0.23792753362E+02 -0.34373178393E+01  0.20016767419E+02  0.31282283239E+02  0.51100000000E-03 0. -1.
        -11    1    4    4    0    0  0.13593205147E+01  0.11454094510E+01  0.48601466378E-01  0.17782231119E+01  0.51100000000E-03 0.  1.
        -12    1    4    4    0    0 -0.41270308155E+01 -0.98287479833E+00  0.14102458028E+02  0.14726769797E+02  0.00000000000E+00 0.  1.
</event>
<event>
 8    1  0.6469014E-010  0.9118800E+02  0.7816164E-02  0.1184000E+00
        -11   -1    0    0    0    0  0.00000000000E+00  0.00000000000E+00  0.45593999997E+02  0.45594000000E+02  0.51100000000E-03 0. -1.
         11   -1    0    0    0    0 -0.00000000000E+00 -0.00000000000E+00 -0.45593999997E+02  0.45594000000E+02  0.51100000000E-03 0.  1.
         23    2    1    2    0    0  0.00000000000E+00  0.35527136788E-14  0.00000000000E+00  0.91188000000E+02  0.91188000000E+02 0.  0.
    9900012    2    3    3    0    0 -0.12123944748E+02  0.27864797109E+02  0.30986884542E+02  0.47787263050E+02  0.19999963552E+02 0.  0.
        -12    1    3    3    0    0  0.12123944748E+02 -0.27864797109E+02 -0.30986884542E+02  0.43400736950E+02  0.00000000000E+00 0.  1.
         11    1    4    4    0    0 -0.55179279275E+01  0.15399528050E+02  0.26142436625E+02  0.30838611929E+02  0.51100000000E-03 0. -1.
        -11    1    4    4    0    0  0.67646068434E-01  0.84557086422E+01  0.25004658601E+01  0.88179314134E+01  0.51100000000E-03 0.  1.
         12    1    4    4    0    0 -0.66736628887E+01  0.40095604165E+01  0.23439820571E+01  0.81307197080E+01  0.00000000000E+00 0. -1.
</event>
<event>
 8    1  0.6469014E-010  0.9118800E+02  0.7816164E-02  0.1184000E+00
        -11   -1    0    0    0    0  0.00000000000E+00  0.00000000000E+00  0.45593999997E+02  0.45594000000E+02  0.51100000000E-03 0. -1.
         11   -1    0    0    0    0 -0.00000000000E+00 -0.00000000000E+00 -0.45593999997E+02  0.45594000000E+02  0.51100000000E-03 0.  1.
         23    2    1    2    0    0  0.00000000000E+00  0.00000000000E+00  0.00000000000E+00  0.91188000000E+02  0.91188000000E+02 0.  0.
    9900012    2    3    3    0    0  0.35586086203E+02  0.18207253353E+02  0.16904141773E+02  0.47787267115E+02  0.19999982082E+02 0.  0.
        -12    1    3    3    0    0 -0.35586086203E+02 -0.18207253353E+02 -0.16904141773E+02  0.43400732885E+02  0.00000000000E+00 0.  1.
         11    1    4    4    0    0  0.19968300851E+02  0.55898881531E+01  0.55434067893E+01  0.21464138640E+02  0.51100000000E-03 0.  1.
        -11    1    4    4    0    0  0.11657254997E+02  0.13853339737E+02  0.12523162269E+02  0.22014454556E+02  0.51100000000E-03 0. -1.
        -12    1    4    4    0    0  0.39605303549E+01 -0.12359745366E+01 -0.11624272848E+01  0.43086739189E+01  0.00000000000E+00 0.  1.
</event>
<event>
 8    1  0.6469014E-010  0.9118800E+02  0.7816164E-02  0.1184000E+00
        -11   -1    0    0    0    0  0.00000000000E+00  0.00000000000E+00  0.45593999997E+02  0.45594000000E+02  0.51100000000E-03 0.  1.
         11   -1    0    0    0    0 -0.00000000000E+00 -0.00000000000E+00 -0.45593999997E+02  0.45594000000E+02  0.51100000000E-03 0. -1.
         23    2    1    2    0    0  0.00000000000E+00 -0.35527136788E-14  0.00000000000E+00  0.91188000000E+02  0.91188000000E+02 0.  0.
    9900012    2    3    3    0    0  0.32479870072E+02  0.27899630341E+02 -0.70916802493E+01  0.47787271183E+02  0.20000000634E+02 0.  0.
        -12    1    3    3    0    0 -0.32479870072E+02 -0.27899630341E+02  0.70916802493E+01  0.43400728817E+02  0.00000000000E+00 0.  1.
         11    1    4    4    0    0  0.13321804825E+02  0.61278774733E+01 -0.82001401109E+01  0.16800704277E+02  0.51100000000E-03 0. -1.
        -11    1    4    4    0    0  0.84150007329E+01  0.82476069442E+01  0.57370398792E+01  0.13105299862E+02  0.51100000000E-03 0.  1.
         12    1    4    4    0    0  0.10743064514E+02  0.13524145924E+02 -0.46285800176E+01  0.17881267044E+02  0.00000000000E+00 0. -1.
</event>
<event>
 8    1  0.6469014E-010  0.9118800E+02  0.7816164E-02  0.1184000E+00
        -11   -1    0    0    0    0  0.00000000000E+00  0.00000000000E+00  0.45593999997E+02  0.45594000000E+02  0.51100000000E-03 0.  1.
         11   -1    0    0    0    0 -0.00000000000E+00 -0.00000000000E+00 -0.45593999997E+02  0.45594000000E+02  0.51100000000E-03 0. -1.
         23    2    1    2    0    0  0.00000000000E+00  0.00000000000E+00  0.00000000000E+00  0.91188000000E+02  0.91188000000E+02 0.  0.
    9900012    2    3    3    0    0 -0.95330468926E+01  0.40469101911E+02 -0.12449747951E+02  0.47787269400E+02  0.19999992504E+02 0.  0.
         12    1    3    3    0    0  0.95330468926E+01 -0.40469101911E+02  0.12449747951E+02  0.43400730600E+02  0.00000000000E+00 0. -1.
         11    1    4    4    0    0  0.74359179231E+00  0.44751296768E+01  0.26420574996E+01  0.52497792782E+01  0.51100000000E-03 0. -1.
        -11    1    4    4    0    0 -0.12505573696E+02  0.29781102855E+02 -0.15690980077E+02  0.35909752391E+02  0.51100000000E-03 0.  1.
        -12    1    4    4    0    0  0.22289350107E+01  0.62128693790E+01  0.59917462658E+00  0.66277377314E+01  0.00000000000E+00 0.  1.
</event>
<event>
 8    1  0.6469014E-010  0.9118800E+02  0.7816164E-02  0.1184000E+00
        -11   -1    0    0    0    0  0.00000000000E+00  0.00000000000E+00  0.45593999997E+02  0.45594000000E+02  0.51100000000E-03 0. -1.
         11   -1    0    0    0    0 -0.00000000000E+00 -0.00000000000E+00 -0.45593999997E+02  0.45594000000E+02  0.51100000000E-03 0.  1.
         23    2    1    2    0    0  0.00000000000E+00  0.00000000000E+00  0.00000000000E+00  0.91188000000E+02  0.91188000000E+02 0.  0.
    9900012    2    3    3    0    0  0.63175065525E+01 -0.24644724345E+02 -0.35161771007E+02  0.47787268815E+02  0.19999989834E+02 0.  0.
         12    1    3    3    0    0 -0.63175065525E+01  0.24644724345E+02  0.35161771007E+02  0.43400731185E+02  0.00000000000E+00 0. -1.
         11    1    4    4    0    0 -0.51695813613E+01 -0.13314693562E+02 -0.10782369649E+02  0.17895952939E+02  0.51100000000E-03 0. -1.
        -11    1    4    4    0    0  0.91803740668E+01 -0.58634849621E+01 -0.18902652666E+02  0.21816736740E+02  0.51100000000E-03 0.  1.
        -12    1    4    4    0    0  0.23067138470E+01 -0.54665458212E+01 -0.54767486924E+01  0.80745791362E+01  0.00000000000E+00 0.  1.
</event>
<event>
 8    1  0.6469014E-010  0.9118800E+02  0.7816164E-02  0.1184000E+00
        -11   -1    0    0    0    0  0.00000000000E+00  0.00000000000E+00  0.45593999997E+02  0.45594000000E+02  0.51100000000E-03 0. -1.
         11   -1    0    0    0    0 -0.00000000000E+00 -0.00000000000E+00 -0.45593999997E+02  0.45594000000E+02  0.51100000000E-03 0.  1.
         23    2    1    2    0    0  0.88817841970E-15  0.00000000000E+00  0.00000000000E+00  0.91188000000E+02  0.91188000000E+02 0.  0.
    9900012    2    3    3    0    0 -0.55168303302E+01  0.29807581457E+02  0.31059555444E+02  0.47787270587E+02  0.19999997913E+02 0.  0.
        -12    1    3    3    0    0  0.55168303302E+01 -0.29807581457E+02 -0.31059555444E+02  0.43400729413E+02  0.00000000000E+00 0.  1.
         11    1    4    4    0    0  0.46944106741E+01  0.11526827049E+02  0.13169156043E+02  0.18119931141E+02  0.51100000000E-03 0. -1.
        -11    1    4    4    0    0 -0.85369803370E+01  0.77231824123E+01  0.41027756889E+01  0.12221307150E+02  0.51100000000E-03 0.  1.
        -12    1    4    4    0    0 -0.16742606673E+01  0.10557571996E+02  0.13787623713E+02  0.17446032296E+02  0.00000000000E+00 0.  1.
</event>
<event>
 8    1  0.6469014E-010  0.9118800E+02  0.7816164E-02  0.1184000E+00
        -11   -1    0    0    0    0  0.00000000000E+00  0.00000000000E+00  0.45593999997E+02  0.45594000000E+02  0.51100000000E-03 0. -1.
         11   -1    0    0    0    0 -0.00000000000E+00 -0.00000000000E+00 -0.45593999997E+02  0.45594000000E+02  0.51100000000E-03 0.  1.
         23    2    1    2    0    0 -0.35527136788E-14  0.00000000000E+00  0.00000000000E+00  0.91188000000E+02  0.91188000000E+02 0.  0.
    9900012    2    3    3    0    0  0.24016899858E+02  0.33770529397E+01  0.35991769331E+02  0.47787269304E+02  0.19999992066E+02 0.  0.
        -12    1    3    3    0    0 -0.24016899858E+02 -0.33770529397E+01 -0.35991769331E+02  0.43400730696E+02  0.00000000000E+00 0.  1.
         11    1    4    4    0    0  0.96192375540E+01  0.94487948181E+00  0.22932456804E+02  0.24886142804E+02  0.51100000000E-03 0. -1.
        -11    1    4    4    0    0  0.15326584699E+02  0.46613215835E+01  0.95795453804E+01  0.18665470993E+02  0.51100000000E-03 0.  1.
        -12    1    4    4    0    0 -0.92892239452E+00 -0.22291481256E+01  0.34797671467E+01  0.42356555073E+01  0.00000000000E+00 0.  1.
</event>
<event>
 8    1  0.6469014E-010  0.9118800E+02  0.7816164E-02  0.1184000E+00
        -11   -1    0    0    0    0  0.00000000000E+00  0.00000000000E+00  0.45593999997E+02  0.45594000000E+02  0.51100000000E-03 0. -1.
         11   -1    0    0    0    0 -0.00000000000E+00 -0.00000000000E+00 -0.45593999997E+02  0.45594000000E+02  0.51100000000E-03 0.  1.
         23    2    1    2    0    0  0.00000000000E+00  0.58286708793E-15 -0.71054273576E-14  0.91188000000E+02  0.91188000000E+02 0.  0.
    9900012    2    3    3    0    0 -0.10311667094E+02  0.99430494967E-01  0.42157833301E+02  0.47787271051E+02  0.20000000030E+02 0.  0.
        -12    1    3    3    0    0  0.10311667094E+02 -0.99430494967E-01 -0.42157833301E+02  0.43400728949E+02  0.00000000000E+00 0.  1.
         11    1    4    4    0    0 -0.12981280055E+01 -0.67157688295E+00  0.23722551685E+02  0.23767532698E+02  0.51100000000E-03 0. -1.
        -11    1    4    4    0    0 -0.45713372980E+01  0.65891158935E+01  0.85943017133E+01  0.11754811574E+02  0.51100000000E-03 0.  1.
        -12    1    4    4    0    0 -0.44422017905E+01 -0.58181085156E+01  0.98409799028E+01  0.12264926779E+02  0.00000000000E+00 0.  1.
</event>
<event>
 8    1  0.6469014E-010  0.9118800E+02  0.7816164E-02  0.1184000E+00
        -11   -1    0    0    0    0  0.00000000000E+00  0.00000000000E+00  0.45593999997E+02  0.45594000000E+02  0.51100000000E-03 0. -1.
         11   -1    0    0    0    0 -0.00000000000E+00 -0.00000000000E+00 -0.45593999997E+02  0.45594000000E+02  0.51100000000E-03 0.  1.
         23    2    1    2    0    0  0.00000000000E+00  0.10963452368E-14  0.00000000000E+00  0.91188000000E+02  0.91188000000E+02 0.  0.
    9900012    2    3    3    0    0 -0.16873236369E+02 -0.11839140238E+00 -0.39986279274E+02  0.47787278206E+02  0.20000032651E+02 0.  0.
         12    1    3    3    0    0  0.16873236369E+02  0.11839140238E+00  0.39986279274E+02  0.43400721794E+02  0.00000000000E+00 0. -1.
         11    1    4    4    0    0 -0.34309053398E+01  0.66973810919E+01 -0.21831515366E+02  0.23092013519E+02  0.51100000000E-03 0. -1.
        -11    1    4    4    0    0 -0.11585439165E+02 -0.54473957301E+01 -0.10070535002E+02  0.16288406809E+02  0.51100000000E-03 0.  1.
         12    1    4    4    0    0 -0.18568918641E+01 -0.13683767641E+01 -0.80842289055E+01  0.84068578768E+01  0.00000000000E+00 0. -1.
</event>
<event>
 8    1  0.6469014E-010  0.9118800E+02  0.7816164E-02  0.1184000E+00
        -11   -1    0    0    0    0  0.00000000000E+00  0.00000000000E+00  0.45593999997E+02  0.45594000000E+02  0.51100000000E-03 0. -1.
         11   -1    0    0    0    0 -0.00000000000E+00 -0.00000000000E+00 -0.45593999997E+02  0.45594000000E+02  0.51100000000E-03 0.  1.
         23    2    1    2    0    0 -0.35527136788E-14 -0.35527136788E-14 -0.71054273576E-14  0.91188000000E+02  0.91188000000E+02 0.  0.
    9900012    2    3    3    0    0  0.25793135206E+02  0.17828099493E+02  0.30008271893E+02  0.47787270314E+02  0.19999996668E+02 0.  0.
        -12    1    3    3    0    0 -0.25793135206E+02 -0.17828099493E+02 -0.30008271893E+02  0.43400729686E+02  0.00000000000E+00 0.  1.
         11    1    4    4    0    0  0.11412356713E+02  0.11480995521E+01  0.16096831258E+02  0.19765323046E+02  0.51100000000E-03 0. -1.
        -11    1    4    4    0    0  0.12626217945E+02  0.91029493705E+01  0.53596896583E+01  0.16462422067E+02  0.51100000000E-03 0.  1.
         12    1    4    4    0    0  0.17545605483E+01  0.75770505709E+01  0.85517509774E+01  0.11559525200E+02  0.00000000000E+00 0. -1.
</event>
<event>
 8    1  0.6469014E-010  0.9118800E+02  0.7816164E-02  0.1184000E+00
        -11   -1    0    0    0    0  0.00000000000E+00  0.00000000000E+00  0.45593999997E+02  0.45594000000E+02  0.51100000000E-03 0. -1.
         11   -1    0    0    0    0 -0.00000000000E+00 -0.00000000000E+00 -0.45593999997E+02  0.45594000000E+02  0.51100000000E-03 0.  1.
         23    2    1    2    0    0  0.00000000000E+00  0.00000000000E+00  0.00000000000E+00  0.91188000000E+02  0.91188000000E+02 0.  0.
    9900012    2    3    3    0    0 -0.92272272485E+01  0.14526327879E+02 -0.39843031426E+02  0.47787273306E+02  0.20000010310E+02 0.  0.
         12    1    3    3    0    0  0.92272272485E+01 -0.14526327879E+02  0.39843031426E+02  0.43400726694E+02  0.00000000000E+00 0. -1.
         11    1    4    4    0    0 -0.14877181080E+01 -0.14704732078E+01 -0.40619954246E+01  0.45689609009E+01  0.51100000000E-03 0. -1.
        -11    1    4    4    0    0  0.38087551651E+01  0.53422535921E+01 -0.19577417965E+02  0.20647556364E+02  0.51100000000E-03 0.  1.
        -12    1    4    4    0    0 -0.11548264306E+02  0.10654547495E+02 -0.16203618037E+02  0.22570756041E+02  0.00000000000E+00 0.  1.
</event>
<event>
 8    1  0.6469014E-010  0.9118800E+02  0.7816164E-02  0.1184000E+00
        -11   -1    0    0    0    0  0.00000000000E+00  0.00000000000E+00  0.45593999997E+02  0.45594000000E+02  0.51100000000E-03 0.  1.
         11   -1    0    0    0    0 -0.00000000000E+00 -0.00000000000E+00 -0.45593999997E+02  0.45594000000E+02  0.51100000000E-03 0. -1.
         23    2    1    2    0    0  0.00000000000E+00  0.00000000000E+00  0.35527136788E-14  0.91188000000E+02  0.91188000000E+02 0.  0.
    9900012    2    3    3    0    0 -0.31328445088E+02  0.21280794431E+02  0.21196216880E+02  0.47787270821E+02  0.19999998982E+02 0.  0.
        -12    1    3    3    0    0  0.31328445088E+02 -0.21280794431E+02 -0.21196216880E+02  0.43400729179E+02  0.00000000000E+00 0.  1.
         11    1    4    4    0    0 -0.22877227858E+02  0.95742882785E+01  0.73009877227E+01  0.25852252754E+02  0.51100000000E-03 0. -1.
        -11    1    4    4    0    0 -0.10621283683E+01  0.29637533683E+00  0.62345355364E+01  0.63313022852E+01  0.51100000000E-03 0.  1.
         12    1    4    4    0    0 -0.73890888618E+01  0.11410130815E+02  0.76606936212E+01  0.15603715781E+02  0.00000000000E+00 0. -1.
</event>
<event>
 8    1  0.6469014E-010  0.9118800E+02  0.7816164E-02  0.1184000E+00
        -11   -1    0    0    0    0  0.00000000000E+00  0.00000000000E+00  0.45593999997E+02  0.45594000000E+02  0.51100000000E-03 0. -1.
         11   -1    0    0    0    0 -0.00000000000E+00 -0.00000000000E+00 -0.45593999997E+02  0.45594000000E+02  0.51100000000E-03 0.  1.
         23    2    1    2    0    0 -0.35527136788E-14 -0.17763568394E-14  0.00000000000E+00  0.91188000000E+02  0.91188000000E+02 0.  0.
    9900012    2    3    3    0    0  0.20126846478E+02  0.14799185357E+02  0.35489679946E+02  0.47787271677E+02  0.20000002882E+02 0.  0.
        -12    1    3    3    0    0 -0.20126846478E+02 -0.14799185357E+02 -0.35489679946E+02  0.43400728323E+02  0.00000000000E+00 0.  1.
         11    1    4    4    0    0  0.56697601348E+01  0.84542692381E+00  0.73695840244E+01  0.93365783681E+01  0.51100000000E-03 0. -1.
        -11    1    4    4    0    0  0.11742972820E+02  0.42395451188E+01  0.54197996728E+01  0.13610487949E+02  0.51100000000E-03 0.  1.
        -12    1    4    4    0    0  0.27141135231E+01  0.97142133139E+01  0.22700296249E+02  0.24840205359E+02  0.00000000000E+00 0.  1.
</event>
<event>
 8    1  0.6469014E-010  0.9118800E+02  0.7816164E-02  0.1184000E+00
        -11   -1    0    0    0    0  0.00000000000E+00  0.00000000000E+00  0.45593999997E+02  0.45594000000E+02  0.51100000000E-03 0. -1.
         11   -1    0    0    0    0 -0.00000000000E+00 -0.00000000000E+00 -0.45593999997E+02  0.45594000000E+02  0.51100000000E-03 0.  1.
         23    2    1    2    0    0 -0.35527136788E-14  0.00000000000E+00  0.35527136788E-14  0.91188000000E+02  0.91188000000E+02 0.  0.
    9900012    2    3    3    0    0  0.27040717216E+02 -0.15745521250E+02 -0.30074875441E+02  0.47787309224E+02  0.20000174077E+02 0.  0.
         12    1    3    3    0    0 -0.27040717216E+02  0.15745521250E+02  0.30074875441E+02  0.43400690776E+02  0.00000000000E+00 0. -1.
         11    1    4    4    0    0  0.22775468361E+02 -0.12854845617E+02 -0.19334990888E+02  0.32524004793E+02  0.51100000000E-03 0.  1.
        -11    1    4    4    0    0 -0.10523573992E+00  0.22543599356E+01  0.34654238750E+00  0.22832663374E+01  0.51100000000E-03 0. -1.
        -12    1    4    4    0    0  0.43704845954E+01 -0.51450355686E+01 -0.11086426941E+02  0.12980038094E+02  0.00000000000E+00 0.  1.
</event>
<event>
 8    1  0.6469014E-010  0.9118800E+02  0.7816164E-02  0.1184000E+00
        -11   -1    0    0    0    0  0.00000000000E+00  0.00000000000E+00  0.45593999997E+02  0.45594000000E+02  0.51100000000E-03 0. -1.
         11   -1    0    0    0    0 -0.00000000000E+00 -0.00000000000E+00 -0.45593999997E+02  0.45594000000E+02  0.51100000000E-03 0.  1.
         23    2    1    2    0    0  0.00000000000E+00  0.00000000000E+00  0.00000000000E+00  0.91188000000E+02  0.91188000000E+02 0.  0.
    9900012    2    3    3    0    0 -0.23144295975E+01  0.31065153851E+02 -0.30219579718E+02  0.47787269978E+02  0.19999995137E+02 0.  0.
         12    1    3    3    0    0  0.23144295975E+01 -0.31065153851E+02  0.30219579718E+02  0.43400730022E+02  0.00000000000E+00 0. -1.
         11    1    4    4    0    0  0.21485195029E+01  0.13583934430E+01 -0.11453153173E+02  0.11731840720E+02  0.51100000000E-03 0. -1.
        -11    1    4    4    0    0 -0.25970763291E+01  0.24015194791E+02 -0.11847935177E+02  0.26904422583E+02  0.51100000000E-03 0.  1.
        -12    1    4    4    0    0 -0.18658727713E+01  0.56915656167E+01 -0.69184913676E+01  0.91510066753E+01  0.00000000000E+00 0.  1.
</event>
<event>
 8    1  0.6469014E-010  0.9118800E+02  0.7816164E-02  0.1184000E+00
        -11   -1    0    0    0    0  0.00000000000E+00  0.00000000000E+00  0.45593999997E+02  0.45594000000E+02  0.51100000000E-03 0. -1.
         11   -1    0    0    0    0 -0.00000000000E+00 -0.00000000000E+00 -0.45593999997E+02  0.45594000000E+02  0.51100000000E-03 0.  1.
         23    2    1    2    0    0  0.17763568394E-14  0.35527136788E-14  0.00000000000E+00  0.91188000000E+02  0.91188000000E+02 0.  0.
    9900012    2    3    3    0    0  0.15685277129E+02  0.21036490013E+02  0.34569661035E+02  0.47787270804E+02  0.19999998902E+02 0.  0.
        -12    1    3    3    0    0 -0.15685277129E+02 -0.21036490013E+02 -0.34569661035E+02  0.43400729196E+02  0.00000000000E+00 0.  1.
         11    1    4    4    0    0  0.21919290113E+01 -0.21011444350E+01  0.11696171381E+02  0.12083864695E+02  0.51100000000E-03 0. -1.
        -11    1    4    4    0    0  0.29920992524E+01  0.10067594061E+02  0.70509458151E+01  0.12650096650E+02  0.51100000000E-03 0.  1.
         12    1    4    4    0    0  0.10501248865E+02  0.13070040387E+02  0.15822543839E+02  0.23053309459E+02  0.00000000000E+00 0. -1.
</event>
<event>
 8    1  0.6469014E-010  0.9118800E+02  0.7816164E-02  0.1184000E+00
        -11   -1    0    0    0    0  0.00000000000E+00  0.00000000000E+00  0.45593999997E+02  0.45594000000E+02  0.51100000000E-03 0. -1.
         11   -1    0    0    0    0 -0.00000000000E+00 -0.00000000000E+00 -0.45593999997E+02  0.45594000000E+02  0.51100000000E-03 0.  1.
         23    2    1    2    0    0  0.35527136788E-14  0.35527136788E-14 -0.71054273576E-14  0.91188000000E+02  0.91188000000E+02 0.  0.
    9900012    2    3    3    0    0 -0.25935041793E+02 -0.20771583314E+02 -0.27920174722E+02  0.47787294675E+02  0.20000107741E+02 0.  0.
         12    1    3    3    0    0  0.25935041793E+02  0.20771583314E+02  0.27920174722E+02  0.43400705325E+02  0.00000000000E+00 0. -1.
         11    1    4    4    0    0  0.31799494191E+00 -0.30906625493E+01 -0.25012950780E+01  0.39887082001E+01  0.51100000000E-03 0. -1.
        -11    1    4    4    0    0  0.14586585175E+01  0.13737093014E+01 -0.10112512592E+01  0.22444133500E+01  0.51100000000E-03 0.  1.
        -12    1    4    4    0    0 -0.27711695252E+02 -0.19054630067E+02 -0.24407628385E+02  0.41554173125E+02  0.00000000000E+00 0.  1.
</event>
<event>
 8    1  0.6469014E-010  0.9118800E+02  0.7816164E-02  0.1184000E+00
        -11   -1    0    0    0    0  0.00000000000E+00  0.00000000000E+00  0.45593999997E+02  0.45594000000E+02  0.51100000000E-03 0. -1.
         11   -1    0    0    0    0 -0.00000000000E+00 -0.00000000000E+00 -0.45593999997E+02  0.45594000000E+02  0.51100000000E-03 0.  1.
         23    2    1    2    0    0 -0.55511151231E-16  0.00000000000E+00  0.35527136788E-14  0.91188000000E+02  0.91188000000E+02 0.  0.
    9900012    2    3    3    0    0 -0.22476488777E+00 -0.31726033656E+02 -0.29614713479E+02  0.47787274370E+02  0.20000015163E+02 0.  0.
         12    1    3    3    0    0  0.22476488777E+00  0.31726033656E+02  0.29614713479E+02  0.43400725630E+02  0.00000000000E+00 0. -1.
         11    1    4    4    0    0 -0.49289304935E+01 -0.27199774762E+02 -0.26319973752E+02  0.38168876346E+02  0.51100000000E-03 0.  1.
        -11    1    4    4    0    0  0.56485814078E+01 -0.15678610884E+01 -0.27104651812E+01  0.64584272135E+01  0.51100000000E-03 0. -1.
        -12    1    4    4    0    0 -0.94441580202E+00 -0.29583978048E+01 -0.58427454536E+00  0.31599708105E+01  0.00000000000E+00 0.  1.
</event>
<event>
 8    1  0.6469014E-010  0.9118800E+02  0.7816164E-02  0.1184000E+00
        -11   -1    0    0    0    0  0.00000000000E+00  0.00000000000E+00  0.45593999997E+02  0.45594000000E+02  0.51100000000E-03 0.  1.
         11   -1    0    0    0    0 -0.00000000000E+00 -0.00000000000E+00 -0.45593999997E+02  0.45594000000E+02  0.51100000000E-03 0. -1.
         23    2    1    2    0    0 -0.35527136788E-14  0.00000000000E+00  0.00000000000E+00  0.91188000000E+02  0.91188000000E+02 0.  0.
    9900012    2    3    3    0    0 -0.27450499329E+02  0.31434697916E+02 -0.11914398499E+02  0.47787273761E+02  0.20000012386E+02 0.  0.
         12    1    3    3    0    0  0.27450499329E+02 -0.31434697916E+02  0.11914398499E+02  0.43400726239E+02  0.00000000000E+00 0. -1.
         11    1    4    4    0    0 -0.42566726106E+01  0.48440048678E+01  0.27196075488E+01  0.69985648781E+01  0.51100000000E-03 0. -1.
        -11    1    4    4    0    0 -0.24821887350E+02  0.22137755540E+02 -0.13619318403E+02  0.35940118892E+02  0.51100000000E-03 0.  1.
        -12    1    4    4    0    0  0.16280606323E+01  0.44529375085E+01 -0.10146876450E+01  0.48485899903E+01  0.00000000000E+00 0.  1.
</event>
<event>
 8    1  0.6469014E-010  0.9118800E+02  0.7816164E-02  0.1184000E+00
        -11   -1    0    0    0    0  0.00000000000E+00  0.00000000000E+00  0.45593999997E+02  0.45594000000E+02  0.51100000000E-03 0.  1.
         11   -1    0    0    0    0 -0.00000000000E+00 -0.00000000000E+00 -0.45593999997E+02  0.45594000000E+02  0.51100000000E-03 0. -1.
         23    2    1    2    0    0  0.71054273576E-14  0.00000000000E+00 -0.17763568394E-14  0.91188000000E+02  0.91188000000E+02 0.  0.
    9900012    2    3    3    0    0 -0.39431241566E+02 -0.10640037586E+02  0.14682973615E+02  0.47787275059E+02  0.20000018303E+02 0.  0.
        -12    1    3    3    0    0  0.39431241566E+02  0.10640037586E+02 -0.14682973615E+02  0.43400724941E+02  0.00000000000E+00 0.  1.
         11    1    4    4    0    0 -0.22574423023E+02  0.30336262409E+00  0.13319943626E+01  0.22615720483E+02  0.51100000000E-03 0. -1.
        -11    1    4    4    0    0 -0.27487541805E+01 -0.53005872360E+01  0.52578629541E+01  0.79559410315E+01  0.51100000000E-03 0.  1.
        -12    1    4    4    0    0 -0.14108064362E+02 -0.56428129740E+01  0.80931162984E+01  0.17215613545E+02  0.00000000000E+00 0.  1.
</event>
<event>
 8    1  0.6469014E-010  0.9118800E+02  0.7816164E-02  0.1184000E+00
        -11   -1    0    0    0    0  0.00000000000E+00  0.00000000000E+00  0.45593999997E+02  0.45594000000E+02  0.51100000000E-03 0. -1.
         11   -1    0    0    0    0 -0.00000000000E+00 -0.00000000000E+00 -0.45593999997E+02  0.45594000000E+02  0.51100000000E-03 0.  1.
         23    2    1    2    0    0  0.35527136788E-14 -0.35527136788E-14  0.35527136788E-14  0.91188000000E+02  0.91188000000E+02 0.  0.
    9900012    2    3    3    0    0  0.27773061351E+02 -0.30540349901E+02  0.13400269029E+02  0.47787272830E+02  0.20000008139E+02 0.  0.
        -12    1    3    3    0    0 -0.27773061351E+02  0.30540349901E+02 -0.13400269029E+02  0.43400727170E+02  0.00000000000E+00 0.  1.
         11    1    4    4    0    0 -0.22360553143E+01 -0.46483879080E+01  0.18072567204E+01  0.54656775085E+01  0.51100000000E-03 0. -1.
        -11    1    4    4    0    0  0.13887948634E+01  0.76491408919E+00  0.59124869990E+00  0.16921643013E+01  0.51100000000E-03 0.  1.
         12    1    4    4    0    0  0.28620321802E+02 -0.26656876082E+02  0.11001763608E+02  0.40629431020E+02  0.00000000000E+00 0. -1.
</event>
<event>
 8    1  0.6469014E-010  0.9118800E+02  0.7816164E-02  0.1184000E+00
        -11   -1    0    0    0    0  0.00000000000E+00  0.00000000000E+00  0.45593999997E+02  0.45594000000E+02  0.51100000000E-03 0. -1.
         11   -1    0    0    0    0 -0.00000000000E+00 -0.00000000000E+00 -0.45593999997E+02  0.45594000000E+02  0.51100000000E-03 0.  1.
         23    2    1    2    0    0  0.00000000000E+00 -0.44408920985E-15  0.00000000000E+00  0.91188000000E+02  0.91188000000E+02 0.  0.
    9900012    2    3    3    0    0  0.73842256297E+01 -0.20383079426E+01 -0.42719335293E+02  0.47787273102E+02  0.20000009380E+02 0.  0.
         12    1    3    3    0    0 -0.73842256297E+01  0.20383079426E+01  0.42719335293E+02  0.43400726898E+02  0.00000000000E+00 0. -1.
         11    1    4    4    0    0  0.10967543258E+02  0.38278321993E+01 -0.14412188644E+02  0.18510820788E+02  0.51100000000E-03 0. -1.
        -11    1    4    4    0    0 -0.34733111625E+01 -0.44785238729E+01 -0.17878392720E+02  0.18755212423E+02  0.51100000000E-03 0.  1.
         12    1    4    4    0    0 -0.11000646597E+00 -0.13876162690E+01 -0.10428753929E+02  0.10521239891E+02  0.00000000000E+00 0. -1.
</event>
<event>
 8    1  0.6469014E-010  0.9118800E+02  0.7816164E-02  0.1184000E+00
        -11   -1    0    0    0    0  0.00000000000E+00  0.00000000000E+00  0.45593999997E+02  0.45594000000E+02  0.51100000000E-03 0. -1.
         11   -1    0    0    0    0 -0.00000000000E+00 -0.00000000000E+00 -0.45593999997E+02  0.45594000000E+02  0.51100000000E-03 0.  1.
         23    2    1    2    0    0  0.00000000000E+00  0.35527136788E-14  0.00000000000E+00  0.91188000000E+02  0.91188000000E+02 0.  0.
    9900012    2    3    3    0    0 -0.12688935494E+02  0.21847023209E+02  0.35289115315E+02  0.47787272278E+02  0.20000005626E+02 0.  0.
        -12    1    3    3    0    0  0.12688935494E+02 -0.21847023209E+02 -0.35289115315E+02  0.43400727722E+02  0.00000000000E+00 0.  1.
         11    1    4    4    0    0 -0.13713475682E+02  0.15791047956E+02  0.21699912102E+02  0.30138062253E+02  0.51100000000E-03 0. -1.
        -11    1    4    4    0    0 -0.34217666468E+01 -0.23509671888E+00  0.54740553140E+01  0.64598017999E+01  0.51100000000E-03 0.  1.
         12    1    4    4    0    0  0.44463068352E+01  0.62910719715E+01  0.81151478989E+01  0.11189408226E+02  0.00000000000E+00 0. -1.
</event>
<event>
 8    1  0.6469014E-010  0.9118800E+02  0.7816164E-02  0.1184000E+00
        -11   -1    0    0    0    0  0.00000000000E+00  0.00000000000E+00  0.45593999997E+02  0.45594000000E+02  0.51100000000E-03 0. -1.
         11   -1    0    0    0    0 -0.00000000000E+00 -0.00000000000E+00 -0.45593999997E+02  0.45594000000E+02  0.51100000000E-03 0.  1.
         23    2    1    2    0    0  0.17763568394E-14  0.00000000000E+00  0.00000000000E+00  0.91188000000E+02  0.91188000000E+02 0.  0.
    9900012    2    3    3    0    0  0.12013861807E+02 -0.18855034033E+02 -0.37199184096E+02  0.47787257134E+02  0.19999936578E+02 0.  0.
         12    1    3    3    0    0 -0.12013861807E+02  0.18855034033E+02  0.37199184096E+02  0.43400742866E+02  0.00000000000E+00 0. -1.
         11    1    4    4    0    0  0.23446252294E+00 -0.91341243138E+01 -0.37770565195E+01  0.98870296787E+01  0.51100000000E-03 0. -1.
        -11    1    4    4    0    0  0.24069782137E+01 -0.77078717489E+01 -0.18202999325E+02  0.19913664045E+02  0.51100000000E-03 0.  1.
         12    1    4    4    0    0  0.93724210699E+01 -0.20130379707E+01 -0.15219128252E+02  0.17986563410E+02  0.00000000000E+00 0. -1.
</event>
<event>
 8    1  0.6469014E-010  0.9118800E+02  0.7816164E-02  0.1184000E+00
        -11   -1    0    0    0    0  0.00000000000E+00  0.00000000000E+00  0.45593999997E+02  0.45594000000E+02  0.51100000000E-03 0. -1.
         11   -1    0    0    0    0 -0.00000000000E+00 -0.00000000000E+00 -0.45593999997E+02  0.45594000000E+02  0.51100000000E-03 0.  1.
         23    2    1    2    0    0  0.00000000000E+00  0.35527136788E-14  0.00000000000E+00  0.91188000000E+02  0.91188000000E+02 0.  0.
    9900012    2    3    3    0    0  0.12198219133E+02  0.27484280046E+02 -0.31296031000E+02  0.47787265490E+02  0.19999974675E+02 0.  0.
         12    1    3    3    0    0 -0.12198219133E+02 -0.27484280046E+02  0.31296031000E+02  0.43400734510E+02  0.00000000000E+00 0. -1.
         11    1    4    4    0    0  0.74385763903E+00  0.65541605194E+01  0.13861950305E+01  0.67403175908E+01  0.51100000000E-03 0. -1.
        -11    1    4    4    0    0  0.10001790047E+02  0.18766174939E+02 -0.24408917994E+02  0.32372834351E+02  0.51100000000E-03 0.  1.
        -12    1    4    4    0    0  0.14525714467E+01  0.21639445874E+01 -0.82733080364E+01  0.86741135484E+01  0.00000000000E+00 0.  1.
</event>
<event>
 8    1  0.6469014E-010  0.9118800E+02  0.7816164E-02  0.1184000E+00
        -11   -1    0    0    0    0  0.00000000000E+00  0.00000000000E+00  0.45593999997E+02  0.45594000000E+02  0.51100000000E-03 0. -1.
         11   -1    0    0    0    0 -0.00000000000E+00 -0.00000000000E+00 -0.45593999997E+02  0.45594000000E+02  0.51100000000E-03 0.  1.
         23    2    1    2    0    0 -0.17763568394E-14  0.00000000000E+00  0.71054273576E-14  0.91188000000E+02  0.91188000000E+02 0.  0.
    9900012    2    3    3    0    0  0.13030933407E+02  0.82455839185E+01  0.40568811267E+02  0.47787270430E+02  0.19999997198E+02 0.  0.
        -12    1    3    3    0    0 -0.13030933407E+02 -0.82455839185E+01 -0.40568811267E+02  0.43400729570E+02  0.00000000000E+00 0.  1.
         11    1    4    4    0    0  0.12333174308E+02  0.79537273582E+01  0.22336926673E+02  0.26726527288E+02  0.51100000000E-03 0. -1.
        -11    1    4    4    0    0 -0.42447497971E+01  0.25637270143E+01  0.69709619511E+01  0.85548178139E+01  0.51100000000E-03 0.  1.
        -12    1    4    4    0    0  0.49425088966E+01 -0.22718704540E+01  0.11260922643E+02  0.12505925328E+02  0.00000000000E+00 0.  1.
</event>
<event>
 8    1  0.6469014E-010  0.9118800E+02  0.7816164E-02  0.1184000E+00
        -11   -1    0    0    0    0  0.00000000000E+00  0.00000000000E+00  0.45593999997E+02  0.45594000000E+02  0.51100000000E-03 0. -1.
         11   -1    0    0    0    0 -0.00000000000E+00 -0.00000000000E+00 -0.45593999997E+02  0.45594000000E+02  0.51100000000E-03 0.  1.
         23    2    1    2    0    0  0.00000000000E+00 -0.35527136788E-14  0.35527136788E-14  0.91188000000E+02  0.91188000000E+02 0.  0.
    9900012    2    3    3    0    0 -0.16251436289E+02  0.25731299286E+02  0.30942110633E+02  0.47787272416E+02  0.20000006254E+02 0.  0.
        -12    1    3    3    0    0  0.16251436289E+02 -0.25731299286E+02 -0.30942110633E+02  0.43400727584E+02  0.00000000000E+00 0.  1.
         11    1    4    4    0    0 -0.92439814086E+01  0.32401945667E+01  0.12774363041E+02  0.16097652142E+02  0.51100000000E-03 0. -1.
        -11    1    4    4    0    0 -0.80584590719E+01  0.23126358647E+02  0.16177429725E+02  0.29350919230E+02  0.51100000000E-03 0.  1.
        -12    1    4    4    0    0  0.10510041914E+01 -0.63525392776E+00  0.19903178672E+01  0.23387010445E+01  0.00000000000E+00 0.  1.
</event>
<event>
 8    1  0.6469014E-010  0.9118800E+02  0.7816164E-02  0.1184000E+00
        -11   -1    0    0    0    0  0.00000000000E+00  0.00000000000E+00  0.45593999997E+02  0.45594000000E+02  0.51100000000E-03 0. -1.
         11   -1    0    0    0    0 -0.00000000000E+00 -0.00000000000E+00 -0.45593999997E+02  0.45594000000E+02  0.51100000000E-03 0.  1.
         23    2    1    2    0    0  0.17763568394E-14  0.35527136788E-14 -0.35527136788E-14  0.91188000000E+02  0.91188000000E+02 0.  0.
    9900012    2    3    3    0    0  0.14875502121E+02 -0.30716719209E+02  0.26810920895E+02  0.47787275565E+02  0.20000020609E+02 0.  0.
        -12    1    3    3    0    0 -0.14875502121E+02  0.30716719209E+02 -0.26810920895E+02  0.43400724435E+02  0.00000000000E+00 0.  1.
         11    1    4    4    0    0  0.14561413965E+02 -0.17583679184E+02  0.21741309223E+02  0.31526260123E+02  0.51100000000E-03 0. -1.
        -11    1    4    4    0    0 -0.28703951342E+01 -0.70769882195E+01  0.54905607410E+01  0.94058060791E+01  0.51100000000E-03 0.  1.
         12    1    4    4    0    0  0.31844832906E+01 -0.60560518048E+01 -0.42094906971E+00  0.68552093630E+01  0.00000000000E+00 0. -1.
</event>
<event>
 8    1  0.6469014E-010  0.9118800E+02  0.7816164E-02  0.1184000E+00
        -11   -1    0    0    0    0  0.00000000000E+00  0.00000000000E+00  0.45593999997E+02  0.45594000000E+02  0.51100000000E-03 0. -1.
         11   -1    0    0    0    0 -0.00000000000E+00 -0.00000000000E+00 -0.45593999997E+02  0.45594000000E+02  0.51100000000E-03 0.  1.
         23    2    1    2    0    0  0.00000000000E+00  0.44408920985E-15  0.00000000000E+00  0.91188000000E+02  0.91188000000E+02 0.  0.
    9900012    2    3    3    0    0  0.14255370572E+02  0.33508170811E+01 -0.40855595858E+02  0.47787270995E+02  0.19999999774E+02 0.  0.
         12    1    3    3    0    0 -0.14255370572E+02 -0.33508170811E+01  0.40855595858E+02  0.43400729005E+02  0.00000000000E+00 0. -1.
         11    1    4    4    0    0 -0.18774286893E+01 -0.23177623050E+01 -0.33364829787E+01  0.44753636181E+01  0.51100000000E-03 0. -1.
        -11    1    4    4    0    0  0.88773894236E+01  0.79001730711E+01 -0.12856044411E+02  0.17507103007E+02  0.51100000000E-03 0.  1.
        -12    1    4    4    0    0  0.72554098378E+01 -0.22315936850E+01 -0.24663068469E+02  0.25804804370E+02  0.00000000000E+00 0.  1.
</event>
<event>
 8    1  0.6469014E-010  0.9118800E+02  0.7816164E-02  0.1184000E+00
        -11   -1    0    0    0    0  0.00000000000E+00  0.00000000000E+00  0.45593999997E+02  0.45594000000E+02  0.51100000000E-03 0. -1.
         11   -1    0    0    0    0 -0.00000000000E+00 -0.00000000000E+00 -0.45593999997E+02  0.45594000000E+02  0.51100000000E-03 0.  1.
         23    2    1    2    0    0  0.00000000000E+00  0.00000000000E+00  0.00000000000E+00  0.91188000000E+02  0.91188000000E+02 0.  0.
    9900012    2    3    3    0    0  0.22815787604E+02  0.32691892282E+02 -0.17155276907E+02  0.47787268316E+02  0.19999987558E+02 0.  0.
         12    1    3    3    0    0 -0.22815787604E+02 -0.32691892282E+02  0.17155276907E+02  0.43400731684E+02  0.00000000000E+00 0. -1.
         11    1    4    4    0    0  0.46579690985E+00  0.13021370380E+02 -0.37480422230E+01  0.13558055690E+02  0.51100000000E-03 0. -1.
        -11    1    4    4    0    0  0.14346453260E+02  0.12958407095E+02 -0.13838338611E+02  0.23774790248E+02  0.51100000000E-03 0.  1.
        -12    1    4    4    0    0  0.80035374347E+01  0.67121148071E+01  0.43110392660E+00  0.10454422378E+02  0.00000000000E+00 0.  1.
</event>
<event>
 8    1  0.6469014E-010  0.9118800E+02  0.7816164E-02  0.1184000E+00
        -11   -1    0    0    0    0  0.00000000000E+00  0.00000000000E+00  0.45593999997E+02  0.45594000000E+02  0.51100000000E-03 0. -1.
         11   -1    0    0    0    0 -0.00000000000E+00 -0.00000000000E+00 -0.45593999997E+02  0.45594000000E+02  0.51100000000E-03 0.  1.
         23    2    1    2    0    0  0.00000000000E+00  0.17763568394E-14 -0.71054273576E-14  0.91188000000E+02  0.91188000000E+02 0.  0.
    9900012    2    3    3    0    0 -0.24685809417E+02 -0.14311519115E+02  0.32701902813E+02  0.47787271740E+02  0.20000003169E+02 0.  0.
        -12    1    3    3    0    0  0.24685809417E+02  0.14311519115E+02 -0.32701902813E+02  0.43400728260E+02  0.00000000000E+00 0.  1.
         11    1    4    4    0    0 -0.11367570300E+02 -0.47600215205E+01  0.22591212534E+02  0.25734069701E+02  0.51100000000E-03 0. -1.
        -11    1    4    4    0    0 -0.67640901022E+01 -0.11461507435E+01 -0.66988813340E+00  0.68931362101E+01  0.51100000000E-03 0.  1.
         12    1    4    4    0    0 -0.65541490146E+01 -0.84053468512E+01  0.10780578413E+02  0.15160065828E+02  0.00000000000E+00 0. -1.
</event>
<event>
 8    1  0.6469014E-010  0.9118800E+02  0.7816164E-02  0.1184000E+00
        -11   -1    0    0    0    0  0.00000000000E+00  0.00000000000E+00  0.45593999997E+02  0.45594000000E+02  0.51100000000E-03 0. -1.
         11   -1    0    0    0    0 -0.00000000000E+00 -0.00000000000E+00 -0.45593999997E+02  0.45594000000E+02  0.51100000000E-03 0.  1.
         23    2    1    2    0    0  0.00000000000E+00 -0.11102230246E-14  0.00000000000E+00  0.91188000000E+02  0.91188000000E+02 0.  0.
    9900012    2    3    3    0    0  0.11524837390E+02 -0.11114886695E+01 -0.41827819672E+02  0.47787265186E+02  0.19999973288E+02 0.  0.
         12    1    3    3    0    0 -0.11524837390E+02  0.11114886695E+01  0.41827819672E+02  0.43400734814E+02  0.00000000000E+00 0. -1.
         11    1    4    4    0    0 -0.10163953961E+00 -0.59344011537E+01 -0.49328897734E+01  0.77175675848E+01  0.51100000000E-03 0.  1.
        -11    1    4    4    0    0  0.26543560154E+01  0.18878496347E+01 -0.17879406727E+01  0.37156848911E+01  0.51100000000E-03 0. -1.
         12    1    4    4    0    0  0.89721209145E+01  0.29350628494E+01 -0.35106989225E+02  0.36354012710E+02  0.00000000000E+00 0. -1.
</event>
<event>
 8    1  0.6469014E-010  0.9118800E+02  0.7816164E-02  0.1184000E+00
        -11   -1    0    0    0    0  0.00000000000E+00  0.00000000000E+00  0.45593999997E+02  0.45594000000E+02  0.51100000000E-03 0. -1.
         11   -1    0    0    0    0 -0.00000000000E+00 -0.00000000000E+00 -0.45593999997E+02  0.45594000000E+02  0.51100000000E-03 0.  1.
         23    2    1    2    0    0  0.35527136788E-14  0.17763568394E-14  0.00000000000E+00  0.91188000000E+02  0.91188000000E+02 0.  0.
    9900012    2    3    3    0    0 -0.26484074988E+02 -0.11302081809E+02  0.32472760488E+02  0.47787268959E+02  0.19999990492E+02 0.  0.
        -12    1    3    3    0    0  0.26484074988E+02  0.11302081809E+02 -0.32472760488E+02  0.43400731041E+02  0.00000000000E+00 0.  1.
         11    1    4    4    0    0 -0.16225905128E+02 -0.30417245338E+01  0.12016181668E+02  0.20418636280E+02  0.51100000000E-03 0. -1.
        -11    1    4    4    0    0 -0.71662229629E+01 -0.10871773072E+02  0.19068148491E+02  0.23089921793E+02  0.51100000000E-03 0.  1.
        -12    1    4    4    0    0 -0.30919468968E+01  0.26114157960E+01  0.13884303284E+01  0.42787108864E+01  0.00000000000E+00 0.  1.
</event>
<event>
 8    1  0.6469014E-010  0.9118800E+02  0.7816164E-02  0.1184000E+00
        -11   -1    0    0    0    0  0.00000000000E+00  0.00000000000E+00  0.45593999997E+02  0.45594000000E+02  0.51100000000E-03 0.  1.
         11   -1    0    0    0    0 -0.00000000000E+00 -0.00000000000E+00 -0.45593999997E+02  0.45594000000E+02  0.51100000000E-03 0. -1.
         23    2    1    2    0    0  0.00000000000E+00 -0.71054273576E-14 -0.11102230246E-15  0.91188000000E+02  0.91188000000E+02 0.  0.
    9900012    2    3    3    0    0  0.26538401550E+02  0.34327676795E+02 -0.97364772794E+00  0.47787261056E+02  0.19999954459E+02 0.  0.
         12    1    3    3    0    0 -0.26538401550E+02 -0.34327676795E+02  0.97364772794E+00  0.43400738944E+02  0.00000000000E+00 0. -1.
         11    1    4    4    0    0  0.41006925695E+01 -0.88855621414E+00 -0.12178387941E+00  0.41976235265E+01  0.51100000000E-03 0. -1.
        -11    1    4    4    0    0  0.10689222376E+02  0.94058233658E+01  0.40669068511E+01  0.14807725004E+02  0.51100000000E-03 0.  1.
         12    1    4    4    0    0  0.11748486605E+02  0.25810409643E+02 -0.49187706996E+01  0.28781912526E+02  0.00000000000E+00 0. -1.
</event>
<event>
 8    1  0.6469014E-010  0.9118800E+02  0.7816164E-02  0.1184000E+00
        -11   -1    0    0    0    0  0.00000000000E+00  0.00000000000E+00  0.45593999997E+02  0.45594000000E+02  0.51100000000E-03 0. -1.
         11   -1    0    0    0    0 -0.00000000000E+00 -0.00000000000E+00 -0.45593999997E+02  0.45594000000E+02  0.51100000000E-03 0.  1.
         23    2    1    2    0    0  0.00000000000E+00  0.71054273576E-14  0.00000000000E+00  0.91188000000E+02  0.91188000000E+02 0.  0.
    9900012    2    3    3    0    0 -0.33778893454E+01 -0.37738582451E+02 -0.21166234939E+02  0.47787305958E+02  0.20000159183E+02 0.  0.
         12    1    3    3    0    0  0.33778893454E+01  0.37738582451E+02  0.21166234939E+02  0.43400694042E+02  0.00000000000E+00 0. -1.
         11    1    4    4    0    0 -0.10762674935E+01 -0.49287271252E+01 -0.12855794909E+02  0.13810219614E+02  0.51100000000E-03 0. -1.
        -11    1    4    4    0    0 -0.23053572968E+01 -0.22313676847E+02 -0.51594578255E+01  0.23018141802E+02  0.51100000000E-03 0.  1.
         12    1    4    4    0    0  0.37354448428E-02 -0.10496178479E+02 -0.31509822051E+01  0.10958944542E+02  0.00000000000E+00 0. -1.
</event>
<event>
 8    1  0.6469014E-010  0.9118800E+02  0.7816164E-02  0.1184000E+00
        -11   -1    0    0    0    0  0.00000000000E+00  0.00000000000E+00  0.45593999997E+02  0.45594000000E+02  0.51100000000E-03 0. -1.
         11   -1    0    0    0    0 -0.00000000000E+00 -0.00000000000E+00 -0.45593999997E+02  0.45594000000E+02  0.51100000000E-03 0.  1.
         23    2    1    2    0    0  0.17763568394E-14  0.00000000000E+00  0.00000000000E+00  0.91188000000E+02  0.91188000000E+02 0.  0.
    9900012    2    3    3    0    0 -0.13530777306E+02 -0.12782035834E+02 -0.39206629177E+02  0.47787284038E+02  0.20000059241E+02 0.  0.
         12    1    3    3    0    0  0.13530777306E+02  0.12782035834E+02  0.39206629177E+02  0.43400715962E+02  0.00000000000E+00 0. -1.
         11    1    4    4    0    0 -0.28142992234E+01 -0.45143763021E+01 -0.42304815981E+01  0.67968263424E+01  0.51100000000E-03 0. -1.
        -11    1    4    4    0    0  0.38986752865E+01 -0.47117573719E+01 -0.12911447941E+02  0.14286560633E+02  0.51100000000E-03 0.  1.
        -12    1    4    4    0    0 -0.14615153370E+02 -0.35559021603E+01 -0.22064699638E+02  0.26703897062E+02  0.00000000000E+00 0.  1.
</event>
<event>
 8    1  0.6469014E-010  0.9118800E+02  0.7816164E-02  0.1184000E+00
        -11   -1    0    0    0    0  0.00000000000E+00  0.00000000000E+00  0.45593999997E+02  0.45594000000E+02  0.51100000000E-03 0.  1.
         11   -1    0    0    0    0 -0.00000000000E+00 -0.00000000000E+00 -0.45593999997E+02  0.45594000000E+02  0.51100000000E-03 0. -1.
         23    2    1    2    0    0  0.71054273576E-14  0.00000000000E+00 -0.17763568394E-14  0.91188000000E+02  0.91188000000E+02 0.  0.
    9900012    2    3    3    0    0  0.41960407675E+02  0.51115841279E+01 -0.98397187883E+01  0.47787260716E+02  0.19999952910E+02 0.  0.
         12    1    3    3    0    0 -0.41960407675E+02 -0.51115841279E+01  0.98397187883E+01  0.43400739284E+02  0.00000000000E+00 0. -1.
         11    1    4    4    0    0  0.26487107011E+01  0.19924362281E+01 -0.57732834298E+01  0.66570468170E+01  0.51100000000E-03 0. -1.
        -11    1    4    4    0    0  0.26665806937E+02 -0.30310682594E+01 -0.34032893024E+01  0.27052449293E+02  0.51100000000E-03 0.  1.
         12    1    4    4    0    0  0.12645890037E+02  0.61502161592E+01 -0.66314605610E+00  0.14077764606E+02  0.00000000000E+00 0. -1.
</event>
<event>
 8    1  0.6469014E-010  0.9118800E+02  0.7816164E-02  0.1184000E+00
        -11   -1    0    0    0    0  0.00000000000E+00  0.00000000000E+00  0.45593999997E+02  0.45594000000E+02  0.51100000000E-03 0.  1.
         11   -1    0    0    0    0 -0.00000000000E+00 -0.00000000000E+00 -0.45593999997E+02  0.45594000000E+02  0.51100000000E-03 0. -1.
         23    2    1    2    0    0 -0.17763568394E-14 -0.17763568394E-14  0.00000000000E+00  0.91188000000E+02  0.91188000000E+02 0.  0.
    9900012    2    3    3    0    0 -0.13067938825E+02 -0.12844538968E+02 -0.39342981168E+02  0.47787269895E+02  0.19999994759E+02 0.  0.
         12    1    3    3    0    0  0.13067938825E+02  0.12844538968E+02  0.39342981168E+02  0.43400730105E+02  0.00000000000E+00 0. -1.
         11    1    4    4    0    0 -0.12652036567E+01 -0.38447505734E+01 -0.24265558827E+01  0.47192182592E+01  0.51100000000E-03 0. -1.
        -11    1    4    4    0    0 -0.95030997595E+01 -0.12083901653E+02 -0.17583770714E+02  0.23356339117E+02  0.51100000000E-03 0.  1.
         12    1    4    4    0    0 -0.22996354084E+01  0.30841132578E+01 -0.19332654572E+02  0.19711712518E+02  0.00000000000E+00 0. -1.
</event>
<event>
 8    1  0.6469014E-010  0.9118800E+02  0.7816164E-02  0.1184000E+00
        -11   -1    0    0    0    0  0.00000000000E+00  0.00000000000E+00  0.45593999997E+02  0.45594000000E+02  0.51100000000E-03 0. -1.
         11   -1    0    0    0    0 -0.00000000000E+00 -0.00000000000E+00 -0.45593999997E+02  0.45594000000E+02  0.51100000000E-03 0.  1.
         23    2    1    2    0    0 -0.44408920985E-15 -0.71054273576E-14 -0.35527136788E-14  0.91188000000E+02  0.91188000000E+02 0.  0.
    9900012    2    3    3    0    0  0.28830831499E+01 -0.32111366108E+02 -0.29054625555E+02  0.47787271114E+02  0.20000000315E+02 0.  0.
         12    1    3    3    0    0 -0.28830831499E+01  0.32111366108E+02  0.29054625555E+02  0.43400728886E+02  0.00000000000E+00 0. -1.
         11    1    4    4    0    0 -0.17106209606E+01 -0.54749632120E+00  0.13574413865E+01  0.22513604046E+01  0.51100000000E-03 0. -1.
        -11    1    4    4    0    0 -0.58373330774E-01 -0.27933118304E+02 -0.24071566691E+02  0.36874148517E+02  0.51100000000E-03 0.  1.
        -12    1    4    4    0    0  0.46520774413E+01 -0.36307514820E+01 -0.63405002505E+01  0.86617621920E+01  0.00000000000E+00 0.  1.
</event>
<event>
 8    1  0.6469014E-010  0.9118800E+02  0.7816164E-02  0.1184000E+00
        -11   -1    0    0    0    0  0.00000000000E+00  0.00000000000E+00  0.45593999997E+02  0.45594000000E+02  0.51100000000E-03 0.  1.
         11   -1    0    0    0    0 -0.00000000000E+00 -0.00000000000E+00 -0.45593999997E+02  0.45594000000E+02  0.51100000000E-03 0. -1.
         23    2    1    2    0    0  0.00000000000E+00 -0.71054273576E-14  0.00000000000E+00  0.91188000000E+02  0.91188000000E+02 0.  0.
    9900012    2    3    3    0    0  0.23566696451E+02  0.32305667729E+02  0.16869363870E+02  0.47787299701E+02  0.20000130658E+02 0.  0.
         12    1    3    3    0    0 -0.23566696451E+02 -0.32305667729E+02 -0.16869363870E+02  0.43400700299E+02  0.00000000000E+00 0. -1.
         11    1    4    4    0    0  0.15197194948E+02  0.20009000309E+02  0.49179121308E+01  0.25602747658E+02  0.51100000000E-03 0. -1.
        -11    1    4    4    0    0  0.29929786411E+01  0.11697682668E+02  0.11631041025E+02  0.16765286056E+02  0.51100000000E-03 0.  1.
         12    1    4    4    0    0  0.53765228625E+01  0.59898475239E+00  0.32041071472E+00  0.54192659881E+01  0.00000000000E+00 0. -1.
</event>
<event>
 8    1  0.6469014E-010  0.9118800E+02  0.7816164E-02  0.1184000E+00
        -11   -1    0    0    0    0  0.00000000000E+00  0.00000000000E+00  0.45593999997E+02  0.45594000000E+02  0.51100000000E-03 0. -1.
         11   -1    0    0    0    0 -0.00000000000E+00 -0.00000000000E+00 -0.45593999997E+02  0.45594000000E+02  0.51100000000E-03 0.  1.
         23    2    1    2    0    0  0.00000000000E+00  0.00000000000E+00 -0.35527136788E-14  0.91188000000E+02  0.91188000000E+02 0.  0.
    9900012    2    3    3    0    0  0.29616916765E+02  0.12092768948E+02 -0.29329611925E+02  0.47787274716E+02  0.20000016740E+02 0.  0.
         12    1    3    3    0    0 -0.29616916765E+02 -0.12092768948E+02  0.29329611925E+02  0.43400725284E+02  0.00000000000E+00 0. -1.
         11    1    4    4    0    0  0.15380478284E+02  0.44243677598E+01 -0.16996735328E+02  0.23345730967E+02  0.51100000000E-03 0. -1.
        -11    1    4    4    0    0  0.13112785172E+02  0.77433828347E+01 -0.15105155644E+02  0.21449261992E+02  0.51100000000E-03 0.  1.
        -12    1    4    4    0    0  0.11236533087E+01 -0.74981646098E-01  0.27722790463E+01  0.29922817574E+01  0.00000000000E+00 0.  1.
</event>
<event>
 8    1  0.6469014E-010  0.9118800E+02  0.7816164E-02  0.1184000E+00
        -11   -1    0    0    0    0  0.00000000000E+00  0.00000000000E+00  0.45593999997E+02  0.45594000000E+02  0.51100000000E-03 0. -1.
         11   -1    0    0    0    0 -0.00000000000E+00 -0.00000000000E+00 -0.45593999997E+02  0.45594000000E+02  0.51100000000E-03 0.  1.
         23    2    1    2    0    0  0.17763568394E-14  0.00000000000E+00  0.00000000000E+00  0.91188000000E+02  0.91188000000E+02 0.  0.
    9900012    2    3    3    0    0 -0.81834253469E+01  0.35011796263E+02 -0.24306975047E+02  0.47787270007E+02  0.19999995270E+02 0.  0.
         12    1    3    3    0    0  0.81834253469E+01 -0.35011796263E+02  0.24306975047E+02  0.43400729993E+02  0.00000000000E+00 0. -1.
         11    1    4    4    0    0 -0.11637480067E+02  0.17711022040E+02 -0.55596316265E+01  0.21909375803E+02  0.51100000000E-03 0. -1.
        -11    1    4    4    0    0  0.93515490258E+00  0.11171644517E+02 -0.11651919246E+02  0.16169334503E+02  0.51100000000E-03 0.  1.
         12    1    4    4    0    0  0.25188998171E+01  0.61291297065E+01 -0.70954241746E+01  0.97085597009E+01  0.00000000000E+00 0. -1.
</event>
<event>
 8    1  0.6469014E-010  0.9118800E+02  0.7816164E-02  0.1184000E+00
        -11   -1    0    0    0    0  0.00000000000E+00  0.00000000000E+00  0.45593999997E+02  0.45594000000E+02  0.51100000000E-03 0. -1.
         11   -1    0    0    0    0 -0.00000000000E+00 -0.00000000000E+00 -0.45593999997E+02  0.45594000000E+02  0.51100000000E-03 0.  1.
         23    2    1    2    0    0  0.00000000000E+00  0.00000000000E+00  0.00000000000E+00  0.91188000000E+02  0.91188000000E+02 0.  0.
    9900012    2    3    3    0    0 -0.12126953618E+02  0.35765617278E+02  0.21386465999E+02  0.47787270614E+02  0.19999998036E+02 0.  0.
        -12    1    3    3    0    0  0.12126953618E+02 -0.35765617278E+02 -0.21386465999E+02  0.43400729386E+02  0.00000000000E+00 0.  1.
         11    1    4    4    0    0 -0.93233145077E+01  0.10739156079E+02  0.16579647284E+02  0.21843497225E+02  0.51100000000E-03 0. -1.
        -11    1    4    4    0    0 -0.48364926644E-01  0.12886450270E+02  0.99682052746E+00  0.12925037375E+02  0.51100000000E-03 0.  1.
         12    1    4    4    0    0 -0.27552741835E+01  0.12140010930E+02  0.38099981868E+01  0.13018736013E+02  0.00000000000E+00 0. -1.
</event>
<event>
 8    1  0.6469014E-010  0.9118800E+02  0.7816164E-02  0.1184000E+00
        -11   -1    0    0    0    0  0.00000000000E+00  0.00000000000E+00  0.45593999997E+02  0.45594000000E+02  0.51100000000E-03 0. -1.
         11   -1    0    0    0    0 -0.00000000000E+00 -0.00000000000E+00 -0.45593999997E+02  0.45594000000E+02  0.51100000000E-03 0.  1.
         23    2    1    2    0    0  0.17763568394E-14  0.00000000000E+00  0.35527136788E-14  0.91188000000E+02  0.91188000000E+02 0.  0.
    9900012    2    3    3    0    0 -0.15462816133E+02 -0.25866169590E+02  0.31232450218E+02  0.47787270067E+02  0.19999995545E+02 0.  0.
        -12    1    3    3    0    0  0.15462816133E+02  0.25866169590E+02 -0.31232450218E+02  0.43400729933E+02  0.00000000000E+00 0.  1.
         11    1    4    4    0    0 -0.85360146666E+01 -0.87327276764E+01  0.35427478537E+01  0.12715154017E+02  0.51100000000E-03 0. -1.
        -11    1    4    4    0    0 -0.42142884631E+01 -0.41637693163E+01  0.21546930435E+01  0.63039594338E+01  0.51100000000E-03 0.  1.
         12    1    4    4    0    0 -0.27125130037E+01 -0.12969672598E+02  0.25535009321E+02  0.28768156617E+02  0.00000000000E+00 0. -1.
</event>
<event>
 8    1  0.6469014E-010  0.9118800E+02  0.7816164E-02  0.1184000E+00
        -11   -1    0    0    0    0  0.00000000000E+00  0.00000000000E+00  0.45593999997E+02  0.45594000000E+02  0.51100000000E-03 0. -1.
         11   -1    0    0    0    0 -0.00000000000E+00 -0.00000000000E+00 -0.45593999997E+02  0.45594000000E+02  0.51100000000E-03 0.  1.
         23    2    1    2    0    0  0.00000000000E+00  0.11102230246E-14  0.00000000000E+00  0.91188000000E+02  0.91188000000E+02 0.  0.
    9900012    2    3    3    0    0 -0.83035145586E+01 -0.73726932305E+00 -0.42592650477E+02  0.47787242003E+02  0.19999867588E+02 0.  0.
         12    1    3    3    0    0  0.83035145586E+01  0.73726932305E+00  0.42592650477E+02  0.43400757997E+02  0.00000000000E+00 0. -1.
         11    1    4    4    0    0 -0.31123989164E+01 -0.68917671895E+01 -0.22772095828E+02  0.23994829249E+02  0.51100000000E-03 0.  1.
        -11    1    4    4    0    0 -0.69635264134E+01  0.70475175445E+01 -0.11230465667E+02  0.14976032953E+02  0.51100000000E-03 0. -1.
        -12    1    4    4    0    0  0.17724107711E+01 -0.89301967814E+00 -0.85900889815E+01  0.88163798011E+01  0.00000000000E+00 0.  1.
</event>
<event>
 8    1  0.6469014E-010  0.9118800E+02  0.7816164E-02  0.1184000E+00
        -11   -1    0    0    0    0  0.00000000000E+00  0.00000000000E+00  0.45593999997E+02  0.45594000000E+02  0.51100000000E-03 0. -1.
         11   -1    0    0    0    0 -0.00000000000E+00 -0.00000000000E+00 -0.45593999997E+02  0.45594000000E+02  0.51100000000E-03 0.  1.
         23    2    1    2    0    0  0.35527136788E-14 -0.17763568394E-14  0.00000000000E+00  0.91188000000E+02  0.91188000000E+02 0.  0.
    9900012    2    3    3    0    0 -0.16219116341E+02 -0.90223773450E+01  0.39232131123E+02  0.47787272584E+02  0.20000007018E+02 0.  0.
        -12    1    3    3    0    0  0.16219116341E+02  0.90223773450E+01 -0.39232131123E+02  0.43400727416E+02  0.00000000000E+00 0.  1.
         11    1    4    4    0    0 -0.83073000200E+01 -0.97902352256E+01  0.13476777501E+02  0.18614066494E+02  0.51100000000E-03 0. -1.
        -11    1    4    4    0    0 -0.29208907613E+01  0.28095695464E+00  0.23486671248E+02  0.23669268392E+02  0.51100000000E-03 0.  1.
         12    1    4    4    0    0 -0.49909255601E+01  0.48690092595E+00  0.22686823739E+01  0.55039376969E+01  0.00000000000E+00 0. -1.
</event>
<event>
 8    1  0.6469014E-010  0.9118800E+02  0.7816164E-02  0.1184000E+00
        -11   -1    0    0    0    0  0.00000000000E+00  0.00000000000E+00  0.45593999997E+02  0.45594000000E+02  0.51100000000E-03 0. -1.
         11   -1    0    0    0    0 -0.00000000000E+00 -0.00000000000E+00 -0.45593999997E+02  0.45594000000E+02  0.51100000000E-03 0.  1.
         23    2    1    2    0    0 -0.35527136788E-14  0.00000000000E+00  0.00000000000E+00  0.91188000000E+02  0.91188000000E+02 0.  0.
    9900012    2    3    3    0    0 -0.28525191139E+02 -0.18582574112E+02  0.26918851637E+02  0.47787272315E+02  0.20000005792E+02 0.  0.
        -12    1    3    3    0    0  0.28525191139E+02  0.18582574112E+02 -0.26918851637E+02  0.43400727685E+02  0.00000000000E+00 0.  1.
         11    1    4    4    0    0 -0.13729256125E+02 -0.18211515526E+01  0.11763823595E+02  0.18171312901E+02  0.51100000000E-03 0. -1.
        -11    1    4    4    0    0 -0.12758127795E+02 -0.15702064644E+02  0.74238171236E+01  0.21550817151E+02  0.51100000000E-03 0.  1.
         12    1    4    4    0    0 -0.20378072190E+01 -0.10593579154E+01  0.77312109179E+01  0.80651422624E+01  0.00000000000E+00 0. -1.
</event>
<event>
 8    1  0.6469014E-010  0.9118800E+02  0.7816164E-02  0.1184000E+00
        -11   -1    0    0    0    0  0.00000000000E+00  0.00000000000E+00  0.45593999997E+02  0.45594000000E+02  0.51100000000E-03 0. -1.
         11   -1    0    0    0    0 -0.00000000000E+00 -0.00000000000E+00 -0.45593999997E+02  0.45594000000E+02  0.51100000000E-03 0.  1.
         23    2    1    2    0    0  0.00000000000E+00 -0.71054273576E-14  0.00000000000E+00  0.91188000000E+02  0.91188000000E+02 0.  0.
    9900012    2    3    3    0    0 -0.27090460032E+01 -0.43247771137E+02 -0.24321420426E+01  0.47787263215E+02  0.19999964303E+02 0.  0.
         12    1    3    3    0    0  0.27090460032E+01  0.43247771137E+02  0.24321420426E+01  0.43400736785E+02  0.00000000000E+00 0. -1.
         11    1    4    4    0    0 -0.57725454931E+01 -0.38375478312E+02 -0.12934500604E+01  0.38828760352E+02  0.51100000000E-03 0. -1.
        -11    1    4    4    0    0  0.45435530688E+01 -0.48689542639E+01 -0.23332373886E+01  0.70565279767E+01  0.51100000000E-03 0.  1.
         12    1    4    4    0    0 -0.14800535788E+01 -0.33385613700E-02  0.11945454065E+01  0.19019748869E+01  0.00000000000E+00 0. -1.
</event>
<event>
 8    1  0.6469014E-010  0.9118800E+02  0.7816164E-02  0.1184000E+00
        -11   -1    0    0    0    0  0.00000000000E+00  0.00000000000E+00  0.45593999997E+02  0.45594000000E+02  0.51100000000E-03 0.  1.
         11   -1    0    0    0    0 -0.00000000000E+00 -0.00000000000E+00 -0.45593999997E+02  0.45594000000E+02  0.51100000000E-03 0. -1.
         23    2    1    2    0    0  0.00000000000E+00  0.00000000000E+00  0.35527136788E-14  0.91188000000E+02  0.91188000000E+02 0.  0.
    9900012    2    3    3    0    0 -0.31614384552E+02  0.16144153109E+02  0.24970442621E+02  0.47787239697E+02  0.19999857072E+02 0.  0.
        -12    1    3    3    0    0  0.31614384552E+02 -0.16144153109E+02 -0.24970442621E+02  0.43400760303E+02  0.00000000000E+00 0.  1.
         11    1    4    4    0    0 -0.15407355380E+02  0.74199337810E-01  0.54516478499E+01  0.16343578858E+02  0.51100000000E-03 0. -1.
        -11    1    4    4    0    0 -0.20365988687E+00 -0.97914472678E+00  0.24901495956E-01  0.10004109611E+01  0.51100000000E-03 0.  1.
         12    1    4    4    0    0 -0.16003369286E+02  0.17049098498E+02  0.19493893275E+02  0.30443249878E+02  0.00000000000E+00 0. -1.
</event>
<event>
 8    1  0.6469014E-010  0.9118800E+02  0.7816164E-02  0.1184000E+00
        -11   -1    0    0    0    0  0.00000000000E+00  0.00000000000E+00  0.45593999997E+02  0.45594000000E+02  0.51100000000E-03 0. -1.
         11   -1    0    0    0    0 -0.00000000000E+00 -0.00000000000E+00 -0.45593999997E+02  0.45594000000E+02  0.51100000000E-03 0.  1.
         23    2    1    2    0    0 -0.17763568394E-14  0.17763568394E-14  0.00000000000E+00  0.91188000000E+02  0.91188000000E+02 0.  0.
    9900012    2    3    3    0    0  0.97071974891E+01 -0.83085625452E+01  0.41477240946E+02  0.47787269463E+02  0.19999992789E+02 0.  0.
        -12    1    3    3    0    0 -0.97071974891E+01  0.83085625452E+01 -0.41477240946E+02  0.43400730537E+02  0.00000000000E+00 0.  1.
         11    1    4    4    0    0  0.62687639483E+01 -0.98463723862E+00  0.92754988140E+00  0.64130539508E+01  0.51100000000E-03 0. -1.
        -11    1    4    4    0    0  0.25162795222E+01 -0.65242035879E+01  0.35043850993E+02  0.35734694455E+02  0.51100000000E-03 0.  1.
         12    1    4    4    0    0  0.92215401860E+00 -0.79972171864E+00  0.55058400714E+01  0.56395210570E+01  0.00000000000E+00 0. -1.
</event>
<event>
 8    1  0.6469014E-010  0.9118800E+02  0.7816164E-02  0.1184000E+00
        -11   -1    0    0    0    0  0.00000000000E+00  0.00000000000E+00  0.45593999997E+02  0.45594000000E+02  0.51100000000E-03 0. -1.
         11   -1    0    0    0    0 -0.00000000000E+00 -0.00000000000E+00 -0.45593999997E+02  0.45594000000E+02  0.51100000000E-03 0.  1.
         23    2    1    2    0    0  0.00000000000E+00  0.00000000000E+00  0.00000000000E+00  0.91188000000E+02  0.91188000000E+02 0.  0.
    9900012    2    3    3    0    0 -0.20318368846E+02  0.32100721212E+02 -0.20984063131E+02  0.47787270509E+02  0.19999997558E+02 0.  0.
         12    1    3    3    0    0  0.20318368846E+02 -0.32100721212E+02  0.20984063131E+02  0.43400729491E+02  0.00000000000E+00 0. -1.
         11    1    4    4    0    0  0.27238065613E+01  0.22971638670E+00 -0.10547565737E+01  0.29299152706E+01  0.51100000000E-03 0. -1.
        -11    1    4    4    0    0 -0.80192989933E+01  0.79746248990E+01 -0.94861334973E+01  0.14761115392E+02  0.51100000000E-03 0.  1.
         12    1    4    4    0    0 -0.15022876414E+02  0.23896379926E+02 -0.10443173060E+02  0.30096239846E+02  0.00000000000E+00 0. -1.
</event>
<event>
 8    1  0.6469014E-010  0.9118800E+02  0.7816164E-02  0.1184000E+00
        -11   -1    0    0    0    0  0.00000000000E+00  0.00000000000E+00  0.45593999997E+02  0.45594000000E+02  0.51100000000E-03 0. -1.
         11   -1    0    0    0    0 -0.00000000000E+00 -0.00000000000E+00 -0.45593999997E+02  0.45594000000E+02  0.51100000000E-03 0.  1.
         23    2    1    2    0    0 -0.22204460493E-15  0.35527136788E-14  0.00000000000E+00  0.91188000000E+02  0.91188000000E+02 0.  0.
    9900012    2    3    3    0    0  0.13333254178E+01 -0.31040755653E+02 -0.30303700058E+02  0.47787302939E+02  0.20000145420E+02 0.  0.
         12    1    3    3    0    0 -0.13333254178E+01  0.31040755653E+02  0.30303700058E+02  0.43400697061E+02  0.00000000000E+00 0. -1.
         11    1    4    4    0    0 -0.73655258507E+00  0.10102396542E+01 -0.39329996663E+01  0.41269335475E+01  0.51100000000E-03 0. -1.
        -11    1    4    4    0    0  0.43116280278E+01 -0.27142191605E+02 -0.26616001532E+02  0.38258335551E+02  0.51100000000E-03 0.  1.
        -12    1    4    4    0    0 -0.22417500249E+01 -0.49088037023E+01  0.24530114015E+00  0.54020338403E+01  0.00000000000E+00 0.  1.
</event>
<event>
 8    1  0.6469014E-010  0.9118800E+02  0.7816164E-02  0.1184000E+00
        -11   -1    0    0    0    0  0.00000000000E+00  0.00000000000E+00  0.45593999997E+02  0.45594000000E+02  0.51100000000E-03 0. -1.
         11   -1    0    0    0    0 -0.00000000000E+00 -0.00000000000E+00 -0.45593999997E+02  0.45594000000E+02  0.51100000000E-03 0.  1.
         23    2    1    2    0    0  0.00000000000E+00 -0.35527136788E-14 -0.35527136788E-14  0.91188000000E+02  0.91188000000E+02 0.  0.
    9900012    2    3    3    0    0 -0.19323936581E+02  0.23282008799E+02  0.31115220704E+02  0.47787269382E+02  0.19999992419E+02 0.  0.
        -12    1    3    3    0    0  0.19323936581E+02 -0.23282008799E+02 -0.31115220704E+02  0.43400730618E+02  0.00000000000E+00 0.  1.
         11    1    4    4    0    0 -0.10255506724E+02  0.43230486110E+00  0.49508106968E+01  0.11396176222E+02  0.51100000000E-03 0. -1.
        -11    1    4    4    0    0 -0.11495082317E+01  0.92241006008E+01  0.12177225530E+02  0.15319602571E+02  0.51100000000E-03 0.  1.
         12    1    4    4    0    0 -0.79189216253E+01  0.13625603337E+02  0.13987184478E+02  0.21071490589E+02  0.00000000000E+00 0. -1.
</event>
<event>
 8    1  0.6469014E-010  0.9118800E+02  0.7816164E-02  0.1184000E+00
        -11   -1    0    0    0    0  0.00000000000E+00  0.00000000000E+00  0.45593999997E+02  0.45594000000E+02  0.51100000000E-03 0.  1.
         11   -1    0    0    0    0 -0.00000000000E+00 -0.00000000000E+00 -0.45593999997E+02  0.45594000000E+02  0.51100000000E-03 0. -1.
         23    2    1    2    0    0  0.44408920985E-15  0.00000000000E+00  0.00000000000E+00  0.91188000000E+02  0.91188000000E+02 0.  0.
    9900012    2    3    3    0    0  0.12726314295E+01  0.42855204066E+02 -0.67405175884E+01  0.47787277844E+02  0.20000031002E+02 0.  0.
         12    1    3    3    0    0 -0.12726314295E+01 -0.42855204066E+02  0.67405175884E+01  0.43400722156E+02  0.00000000000E+00 0. -1.
         11    1    4    4    0    0  0.16835310628E+01  0.15885680202E+01 -0.13285252832E+01  0.26688583483E+01  0.51100000000E-03 0. -1.
        -11    1    4    4    0    0  0.43960331562E+01  0.14777393944E+02 -0.91656234389E+01  0.17936140404E+02  0.51100000000E-03 0.  1.
        -12    1    4    4    0    0 -0.48069327894E+01  0.26489242102E+02  0.37536311336E+01  0.27182279092E+02  0.00000000000E+00 0.  1.
</event>
<event>
 8    1  0.6469014E-010  0.9118800E+02  0.7816164E-02  0.1184000E+00
        -11   -1    0    0    0    0  0.00000000000E+00  0.00000000000E+00  0.45593999997E+02  0.45594000000E+02  0.51100000000E-03 0. -1.
         11   -1    0    0    0    0 -0.00000000000E+00 -0.00000000000E+00 -0.45593999997E+02  0.45594000000E+02  0.51100000000E-03 0.  1.
         23    2    1    2    0    0 -0.17763568394E-14  0.35527136788E-14  0.35527136788E-14  0.91188000000E+02  0.91188000000E+02 0.  0.
    9900012    2    3    3    0    0 -0.10297516803E+02  0.30948612910E+02 -0.28631597214E+02  0.47787264379E+02  0.19999969611E+02 0.  0.
         12    1    3    3    0    0  0.10297516803E+02 -0.30948612910E+02  0.28631597214E+02  0.43400735621E+02  0.00000000000E+00 0. -1.
         11    1    4    4    0    0 -0.13362314845E+02  0.12967368331E+02 -0.93831205010E+01  0.20850588722E+02  0.51100000000E-03 0. -1.
        -11    1    4    4    0    0  0.22197550389E+01  0.15886417707E+02 -0.18651070810E+02  0.24600163061E+02  0.51100000000E-03 0.  1.
        -12    1    4    4    0    0  0.84504300298E+00  0.20948268719E+01 -0.59740590299E+00  0.23365125964E+01  0.00000000000E+00 0.  1.
</event>
<event>
 8    1  0.6469014E-010  0.9118800E+02  0.7816164E-02  0.1184000E+00
        -11   -1    0    0    0    0  0.00000000000E+00  0.00000000000E+00  0.45593999997E+02  0.45594000000E+02  0.51100000000E-03 0. -1.
         11   -1    0    0    0    0 -0.00000000000E+00 -0.00000000000E+00 -0.45593999997E+02  0.45594000000E+02  0.51100000000E-03 0.  1.
         23    2    1    2    0    0  0.35527136788E-14  0.00000000000E+00  0.00000000000E+00  0.91188000000E+02  0.91188000000E+02 0.  0.
    9900012    2    3    3    0    0  0.23616352387E+02  0.85139614924E+01  0.35403441976E+02  0.47787270235E+02  0.19999996309E+02 0.  0.
        -12    1    3    3    0    0 -0.23616352387E+02 -0.85139614924E+01 -0.35403441976E+02  0.43400729765E+02  0.00000000000E+00 0.  1.
         11    1    4    4    0    0  0.15337201447E+02 -0.11638454947E+01  0.13808946747E+02  0.20670541722E+02  0.51100000000E-03 0.  1.
        -11    1    4    4    0    0  0.99595550271E+00  0.80677915309E+01  0.70041717721E+01  0.10730312671E+02  0.51100000000E-03 0. -1.
         12    1    4    4    0    0  0.72831954381E+01  0.16100154563E+01  0.14590323457E+02  0.16386415842E+02  0.00000000000E+00 0. -1.
</event>
<event>
 8    1  0.6469014E-010  0.9118800E+02  0.7816164E-02  0.1184000E+00
        -11   -1    0    0    0    0  0.00000000000E+00  0.00000000000E+00  0.45593999997E+02  0.45594000000E+02  0.51100000000E-03 0. -1.
         11   -1    0    0    0    0 -0.00000000000E+00 -0.00000000000E+00 -0.45593999997E+02  0.45594000000E+02  0.51100000000E-03 0.  1.
         23    2    1    2    0    0  0.00000000000E+00  0.00000000000E+00  0.17763568394E-14  0.91188000000E+02  0.91188000000E+02 0.  0.
    9900012    2    3    3    0    0  0.32384905085E+02  0.26303801583E+02  0.11956215249E+02  0.47787272608E+02  0.20000007127E+02 0.  0.
        -12    1    3    3    0    0 -0.32384905085E+02 -0.26303801583E+02 -0.11956215249E+02  0.43400727392E+02  0.00000000000E+00 0.  1.
         11    1    4    4    0    0  0.12310102245E+02  0.15753953140E+02 -0.12579421384E+01  0.20032675196E+02  0.51100000000E-03 0.  1.
        -11    1    4    4    0    0  0.20624316398E+02  0.10660100337E+02  0.13747131813E+02  0.26981174909E+02  0.51100000000E-03 0. -1.
         12    1    4    4    0    0 -0.54951355823E+00 -0.11025189424E+00 -0.53297442500E+00  0.77342250327E+00  0.00000000000E+00 0. -1.
</event>
<event>
 8    1  0.6469014E-010  0.9118800E+02  0.7816164E-02  0.1184000E+00
        -11   -1    0    0    0    0  0.00000000000E+00  0.00000000000E+00  0.45593999997E+02  0.45594000000E+02  0.51100000000E-03 0. -1.
         11   -1    0    0    0    0 -0.00000000000E+00 -0.00000000000E+00 -0.45593999997E+02  0.45594000000E+02  0.51100000000E-03 0.  1.
         23    2    1    2    0    0  0.35527136788E-14  0.35527136788E-14 -0.71054273576E-14  0.91188000000E+02  0.91188000000E+02 0.  0.
    9900012    2    3    3    0    0 -0.22969276199E+02 -0.23350384004E+02  0.28474454914E+02  0.47787278061E+02  0.20000031989E+02 0.  0.
        -12    1    3    3    0    0  0.22969276199E+02  0.23350384004E+02 -0.28474454914E+02  0.43400721939E+02  0.00000000000E+00 0.  1.
         11    1    4    4    0    0 -0.18835027782E+01 -0.89418264667E+01  0.13200220027E+02  0.16054583529E+02  0.51100000000E-03 0.  1.
        -11    1    4    4    0    0 -0.18808607164E+02 -0.10845792849E+02  0.76601177760E+01  0.23023299733E+02  0.51100000000E-03 0. -1.
         12    1    4    4    0    0 -0.22771662570E+01 -0.35627646882E+01  0.76141171110E+01  0.87093947990E+01  0.00000000000E+00 0. -1.
</event>
<event>
 8    1  0.6469014E-010  0.9118800E+02  0.7816164E-02  0.1184000E+00
        -11   -1    0    0    0    0  0.00000000000E+00  0.00000000000E+00  0.45593999997E+02  0.45594000000E+02  0.51100000000E-03 0. -1.
         11   -1    0    0    0    0 -0.00000000000E+00 -0.00000000000E+00 -0.45593999997E+02  0.45594000000E+02  0.51100000000E-03 0.  1.
         23    2    1    2    0    0  0.00000000000E+00 -0.35527136788E-14  0.35527136788E-14  0.91188000000E+02  0.91188000000E+02 0.  0.
    9900012    2    3    3    0    0 -0.22242075984E+02  0.23090258288E+02 -0.29253260824E+02  0.47787271426E+02  0.20000001740E+02 0.  0.
         12    1    3    3    0    0  0.22242075984E+02 -0.23090258288E+02  0.29253260824E+02  0.43400728574E+02  0.00000000000E+00 0. -1.
         11    1    4    4    0    0 -0.69932109263E+01  0.12372025612E+02 -0.14194885199E+02  0.20086482591E+02  0.51100000000E-03 0. -1.
        -11    1    4    4    0    0  0.85039512087E+00 -0.16138755416E+01  0.76517421620E+00  0.19781956343E+01  0.51100000000E-03 0.  1.
        -12    1    4    4    0    0 -0.16099260179E+02  0.12332108218E+02 -0.15823549841E+02  0.25722593201E+02  0.00000000000E+00 0.  1.
</event>
<event>
 8    1  0.6469014E-010  0.9118800E+02  0.7816164E-02  0.1184000E+00
        -11   -1    0    0    0    0  0.00000000000E+00  0.00000000000E+00  0.45593999997E+02  0.45594000000E+02  0.51100000000E-03 0. -1.
         11   -1    0    0    0    0 -0.00000000000E+00 -0.00000000000E+00 -0.45593999997E+02  0.45594000000E+02  0.51100000000E-03 0.  1.
         23    2    1    2    0    0  0.00000000000E+00 -0.88817841970E-15 -0.71054273576E-14  0.91188000000E+02  0.91188000000E+02 0.  0.
    9900012    2    3    3    0    0  0.11663346865E+02  0.64369081856E+01  0.41305636142E+02  0.47787273922E+02  0.20000013118E+02 0.  0.
        -12    1    3    3    0    0 -0.11663346865E+02 -0.64369081856E+01 -0.41305636142E+02  0.43400726078E+02  0.00000000000E+00 0.  1.
         11    1    4    4    0    0  0.13567543091E+02  0.10108312213E+02  0.31664641331E+02  0.35901333014E+02  0.51100000000E-03 0. -1.
        -11    1    4    4    0    0 -0.12715200806E+01 -0.51203620091E+01  0.65190537280E+01  0.83864731675E+01  0.51100000000E-03 0.  1.
         12    1    4    4    0    0 -0.63267614588E+00  0.14489579818E+01  0.31219410830E+01  0.34994677401E+01  0.00000000000E+00 0. -1.
</event>
<event>
 8    1  0.6469014E-010  0.9118800E+02  0.7816164E-02  0.1184000E+00
        -11   -1    0    0    0    0  0.00000000000E+00  0.00000000000E+00  0.45593999997E+02  0.45594000000E+02  0.51100000000E-03 0. -1.
         11   -1    0    0    0    0 -0.00000000000E+00 -0.00000000000E+00 -0.45593999997E+02  0.45594000000E+02  0.51100000000E-03 0.  1.
         23    2    1    2    0    0  0.00000000000E+00 -0.17763568394E-14 -0.71054273576E-14  0.91188000000E+02  0.91188000000E+02 0.  0.
    9900012    2    3    3    0    0 -0.19332590868E+02 -0.12334425002E+02 -0.36847470429E+02  0.47787272048E+02  0.20000004574E+02 0.  0.
         12    1    3    3    0    0  0.19332590868E+02  0.12334425002E+02  0.36847470429E+02  0.43400727952E+02  0.00000000000E+00 0. -1.
         11    1    4    4    0    0  0.20686445712E+00  0.38874297523E+01 -0.88756827535E+01  0.96918856569E+01  0.51100000000E-03 0. -1.
        -11    1    4    4    0    0 -0.16132379634E+02 -0.10811513230E+02 -0.20015387057E+02  0.27888316734E+02  0.51100000000E-03 0.  1.
         12    1    4    4    0    0 -0.34070756906E+01 -0.54103415241E+01 -0.79564006184E+01  0.10207069656E+02  0.00000000000E+00 0. -1.
</event>
<event>
 8    1  0.6469014E-010  0.9118800E+02  0.7816164E-02  0.1184000E+00
        -11   -1    0    0    0    0  0.00000000000E+00  0.00000000000E+00  0.45593999997E+02  0.45594000000E+02  0.51100000000E-03 0. -1.
         11   -1    0    0    0    0 -0.00000000000E+00 -0.00000000000E+00 -0.45593999997E+02  0.45594000000E+02  0.51100000000E-03 0.  1.
         23    2    1    2    0    0 -0.35527136788E-14  0.35527136788E-14  0.35527136788E-14  0.91188000000E+02  0.91188000000E+02 0.  0.
    9900012    2    3    3    0    0 -0.28543754344E+02  0.27305910782E+02  0.17979565287E+02  0.47787269089E+02  0.19999991086E+02 0.  0.
        -12    1    3    3    0    0  0.28543754344E+02 -0.27305910782E+02 -0.17979565287E+02  0.43400730911E+02  0.00000000000E+00 0.  1.
         11    1    4    4    0    0  0.10694560466E+01  0.41496659261E+01  0.74079154060E+01  0.85580765630E+01  0.51100000000E-03 0. -1.
        -11    1    4    4    0    0 -0.25249878226E+02  0.18130457921E+02  0.93661740795E+01  0.32465290265E+02  0.51100000000E-03 0.  1.
         12    1    4    4    0    0 -0.43633321647E+01  0.50257869348E+01  0.12054758012E+01  0.67639022613E+01  0.00000000000E+00 0. -1.
</event>
<event>
 8    1  0.6469014E-010  0.9118800E+02  0.7816164E-02  0.1184000E+00
        -11   -1    0    0    0    0  0.00000000000E+00  0.00000000000E+00  0.45593999997E+02  0.45594000000E+02  0.51100000000E-03 0. -1.
         11   -1    0    0    0    0 -0.00000000000E+00 -0.00000000000E+00 -0.45593999997E+02  0.45594000000E+02  0.51100000000E-03 0.  1.
         23    2    1    2    0    0  0.00000000000E+00  0.00000000000E+00  0.00000000000E+00  0.91188000000E+02  0.91188000000E+02 0.  0.
    9900012    2    3    3    0    0 -0.50103950510E+01 -0.13953357308E+02 -0.40789986211E+02  0.47787271736E+02  0.20000003153E+02 0.  0.
         12    1    3    3    0    0  0.50103950510E+01  0.13953357308E+02  0.40789986211E+02  0.43400728264E+02  0.00000000000E+00 0. -1.
         11    1    4    4    0    0  0.12631594465E+00  0.40371344680E+01 -0.13149777764E+02  0.13756128305E+02  0.51100000000E-03 0. -1.
        -11    1    4    4    0    0 -0.64582931582E+01 -0.16824331207E+02 -0.25912602490E+02  0.31563121505E+02  0.51100000000E-03 0.  1.
         12    1    4    4    0    0  0.13215821626E+01 -0.11661605682E+01 -0.17276059579E+01  0.24680219263E+01  0.00000000000E+00 0. -1.
</event>
<event>
 8    1  0.6469014E-010  0.9118800E+02  0.7816164E-02  0.1184000E+00
        -11   -1    0    0    0    0  0.00000000000E+00  0.00000000000E+00  0.45593999997E+02  0.45594000000E+02  0.51100000000E-03 0. -1.
         11   -1    0    0    0    0 -0.00000000000E+00 -0.00000000000E+00 -0.45593999997E+02  0.45594000000E+02  0.51100000000E-03 0.  1.
         23    2    1    2    0    0 -0.17763568394E-14  0.35527136788E-14  0.00000000000E+00  0.91188000000E+02  0.91188000000E+02 0.  0.
    9900012    2    3    3    0    0 -0.15470023390E+02  0.17381772377E+02  0.36635716919E+02  0.47787269720E+02  0.19999993960E+02 0.  0.
        -12    1    3    3    0    0  0.15470023390E+02 -0.17381772377E+02 -0.36635716919E+02  0.43400730280E+02  0.00000000000E+00 0.  1.
         11    1    4    4    0    0 -0.85195910038E+01  0.44547178221E+01  0.33512777385E+01  0.10181306620E+02  0.51100000000E-03 0. -1.
        -11    1    4    4    0    0 -0.34794650171E+01  0.24828499708E+01  0.25897792007E+01  0.49978172588E+01  0.51100000000E-03 0.  1.
         12    1    4    4    0    0 -0.34709673693E+01  0.10444204584E+02  0.30694659980E+02  0.32608145841E+02  0.00000000000E+00 0. -1.
</event>
<event>
 8    1  0.6469014E-010  0.9118800E+02  0.7816164E-02  0.1184000E+00
        -11   -1    0    0    0    0  0.00000000000E+00  0.00000000000E+00  0.45593999997E+02  0.45594000000E+02  0.51100000000E-03 0.  1.
         11   -1    0    0    0    0 -0.00000000000E+00 -0.00000000000E+00 -0.45593999997E+02  0.45594000000E+02  0.51100000000E-03 0. -1.
         23    2    1    2    0    0  0.00000000000E+00  0.00000000000E+00  0.00000000000E+00  0.91188000000E+02  0.91188000000E+02 0.  0.
    9900012    2    3    3    0    0 -0.12103072712E+02 -0.40875273225E+02  0.81456071741E+01  0.47787271360E+02  0.20000001437E+02 0.  0.
         12    1    3    3    0    0  0.12103072712E+02  0.40875273225E+02 -0.81456071741E+01  0.43400728640E+02  0.00000000000E+00 0. -1.
         11    1    4    4    0    0 -0.11060122104E+02 -0.19053251941E+02 -0.33664069617E+01  0.22286439971E+02  0.51100000000E-03 0. -1.
        -11    1    4    4    0    0 -0.14463771470E+01 -0.11935219899E+02  0.96855822595E+01  0.15438652300E+02  0.51100000000E-03 0.  1.
         12    1    4    4    0    0  0.40342653933E+00 -0.98868013851E+01  0.18264318764E+01  0.10062179088E+02  0.00000000000E+00 0. -1.
</event>
<event>
 8    1  0.6469014E-010  0.9118800E+02  0.7816164E-02  0.1184000E+00
        -11   -1    0    0    0    0  0.00000000000E+00  0.00000000000E+00  0.45593999997E+02  0.45594000000E+02  0.51100000000E-03 0. -1.
         11   -1    0    0    0    0 -0.00000000000E+00 -0.00000000000E+00 -0.45593999997E+02  0.45594000000E+02  0.51100000000E-03 0.  1.
         23    2    1    2    0    0  0.00000000000E+00  0.00000000000E+00  0.71054273576E-14  0.91188000000E+02  0.91188000000E+02 0.  0.
    9900012    2    3    3    0    0  0.23821857225E+02  0.17089770606E+02  0.32001291220E+02  0.47787265204E+02  0.19999973371E+02 0.  0.
        -12    1    3    3    0    0 -0.23821857225E+02 -0.17089770606E+02 -0.32001291220E+02  0.43400734796E+02  0.00000000000E+00 0.  1.
         11    1    4    4    0    0  0.48716361417E+01  0.15035378426E+02  0.16970874252E+02  0.23190645016E+02  0.51100000000E-03 0. -1.
        -11    1    4    4    0    0 -0.90091201154E-01  0.34007542879E+00  0.24167139164E+00  0.42681734319E+00  0.51100000000E-03 0.  1.
         12    1    4    4    0    0  0.19040312285E+02  0.17143167518E+01  0.14788745577E+02  0.24169802845E+02  0.00000000000E+00 0. -1.
</event>
<event>
 8    1  0.6469014E-010  0.9118800E+02  0.7816164E-02  0.1184000E+00
        -11   -1    0    0    0    0  0.00000000000E+00  0.00000000000E+00  0.45593999997E+02  0.45594000000E+02  0.51100000000E-03 0. -1.
         11   -1    0    0    0    0 -0.00000000000E+00 -0.00000000000E+00 -0.45593999997E+02  0.45594000000E+02  0.51100000000E-03 0.  1.
         23    2    1    2    0    0 -0.17763568394E-14  0.35527136788E-14 -0.71054273576E-14  0.91188000000E+02  0.91188000000E+02 0.  0.
    9900012    2    3    3    0    0  0.14615966380E+02 -0.18996870030E+02  0.36181703195E+02  0.47787272008E+02  0.20000004394E+02 0.  0.
        -12    1    3    3    0    0 -0.14615966380E+02  0.18996870030E+02 -0.36181703195E+02  0.43400727992E+02  0.00000000000E+00 0.  1.
         11    1    4    4    0    0  0.77584809808E+01  0.55934699740E+00  0.72558426261E+01  0.10637393885E+02  0.51100000000E-03 0. -1.
        -11    1    4    4    0    0 -0.98689992216E+00  0.92057544748E+00  0.12455669217E+01  0.18365369118E+01  0.51100000000E-03 0.  1.
         12    1    4    4    0    0  0.78443853212E+01 -0.20476792475E+02  0.27680293647E+02  0.35313341211E+02  0.00000000000E+00 0. -1.
</event>
<event>
 8    1  0.6469014E-010  0.9118800E+02  0.7816164E-02  0.1184000E+00
        -11   -1    0    0    0    0  0.00000000000E+00  0.00000000000E+00  0.45593999997E+02  0.45594000000E+02  0.51100000000E-03 0. -1.
         11   -1    0    0    0    0 -0.00000000000E+00 -0.00000000000E+00 -0.45593999997E+02  0.45594000000E+02  0.51100000000E-03 0.  1.
         23    2    1    2    0    0  0.00000000000E+00 -0.88817841970E-15  0.71054273576E-14  0.91188000000E+02  0.91188000000E+02 0.  0.
    9900012    2    3    3    0    0  0.28312124118E+01  0.43110073408E+01 -0.43093187370E+02  0.47787270217E+02  0.19999996228E+02 0.  0.
         12    1    3    3    0    0 -0.28312124118E+01 -0.43110073408E+01  0.43093187370E+02  0.43400729783E+02  0.00000000000E+00 0. -1.
         11    1    4    4    0    0 -0.67987477129E+01 -0.39889357824E+00 -0.10035874728E+02  0.12128514681E+02  0.51100000000E-03 0. -1.
        -11    1    4    4    0    0  0.62113538659E+01 -0.12536557396E+01 -0.13127771270E+02  0.14577069265E+02  0.51100000000E-03 0.  1.
        -12    1    4    4    0    0  0.34186062587E+01  0.59635566587E+01 -0.19929541371E+02  0.21081686271E+02  0.00000000000E+00 0.  1.
</event>
<event>
 8    1  0.6469014E-010  0.9118800E+02  0.7816164E-02  0.1184000E+00
        -11   -1    0    0    0    0  0.00000000000E+00  0.00000000000E+00  0.45593999997E+02  0.45594000000E+02  0.51100000000E-03 0. -1.
         11   -1    0    0    0    0 -0.00000000000E+00 -0.00000000000E+00 -0.45593999997E+02  0.45594000000E+02  0.51100000000E-03 0.  1.
         23    2    1    2    0    0  0.17763568394E-14  0.00000000000E+00 -0.71054273576E-14  0.91188000000E+02  0.91188000000E+02 0.  0.
    9900012    2    3    3    0    0  0.13699392182E+02 -0.94570917772E+01 -0.40081336836E+02  0.47787268513E+02  0.19999988456E+02 0.  0.
         12    1    3    3    0    0 -0.13699392182E+02  0.94570917772E+01  0.40081336836E+02  0.43400731487E+02  0.00000000000E+00 0. -1.
         11    1    4    4    0    0  0.80657724915E+01 -0.98781812630E+01 -0.19789099343E+02  0.23542378895E+02  0.51100000000E-03 0. -1.
        -11    1    4    4    0    0  0.69153215640E+01  0.42445600282E+01 -0.17644477180E+02  0.19420750176E+02  0.51100000000E-03 0.  1.
         12    1    4    4    0    0 -0.12817018733E+01 -0.38234705424E+01 -0.26477603131E+01  0.48241394420E+01  0.00000000000E+00 0. -1.
</event>
<event>
 8    1  0.6469014E-010  0.9118800E+02  0.7816164E-02  0.1184000E+00
        -11   -1    0    0    0    0  0.00000000000E+00  0.00000000000E+00  0.45593999997E+02  0.45594000000E+02  0.51100000000E-03 0. -1.
         11   -1    0    0    0    0 -0.00000000000E+00 -0.00000000000E+00 -0.45593999997E+02  0.45594000000E+02  0.51100000000E-03 0.  1.
         23    2    1    2    0    0  0.00000000000E+00 -0.35527136788E-14 -0.71054273576E-14  0.91188000000E+02  0.91188000000E+02 0.  0.
    9900012    2    3    3    0    0  0.44041998002E+01 -0.26857175450E+02 -0.33807074981E+02  0.47787272267E+02  0.20000005573E+02 0.  0.
         12    1    3    3    0    0 -0.44041998002E+01  0.26857175450E+02  0.33807074981E+02  0.43400727733E+02  0.00000000000E+00 0. -1.
         11    1    4    4    0    0  0.83493445196E+01 -0.11673698087E+02 -0.85838538859E+01  0.16723316918E+02  0.51100000000E-03 0. -1.
        -11    1    4    4    0    0 -0.46134139843E+01 -0.77623494128E+01 -0.71592386464E+01  0.11523556537E+02  0.51100000000E-03 0.  1.
        -12    1    4    4    0    0  0.66826926492E+00 -0.74211279502E+01 -0.18063982448E+02  0.19540398813E+02  0.00000000000E+00 0.  1.
</event>
<event>
 8    1  0.6469014E-010  0.9118800E+02  0.7816164E-02  0.1184000E+00
        -11   -1    0    0    0    0  0.00000000000E+00  0.00000000000E+00  0.45593999997E+02  0.45594000000E+02  0.51100000000E-03 0. -1.
         11   -1    0    0    0    0 -0.00000000000E+00 -0.00000000000E+00 -0.45593999997E+02  0.45594000000E+02  0.51100000000E-03 0.  1.
         23    2    1    2    0    0  0.00000000000E+00  0.00000000000E+00  0.00000000000E+00  0.91188000000E+02  0.91188000000E+02 0.  0.
    9900012    2    3    3    0    0 -0.22786399479E+02 -0.40636992278E+01  0.36713617491E+02  0.47787270030E+02  0.19999995375E+02 0.  0.
        -12    1    3    3    0    0  0.22786399479E+02  0.40636992278E+01 -0.36713617491E+02  0.43400729970E+02  0.00000000000E+00 0.  1.
         11    1    4    4    0    0 -0.19995892224E+02 -0.99531825837E+01  0.23972963259E+02  0.32765904795E+02  0.51100000000E-03 0. -1.
        -11    1    4    4    0    0 -0.34978532674E+01  0.57621260305E+01  0.12598922182E+02  0.14288803808E+02  0.51100000000E-03 0.  1.
         12    1    4    4    0    0  0.70734601234E+00  0.12735732543E+00  0.14173205089E+00  0.73256142661E+00  0.00000000000E+00 0. -1.
</event>
<event>
 8    1  0.6469014E-010  0.9118800E+02  0.7816164E-02  0.1184000E+00
        -11   -1    0    0    0    0  0.00000000000E+00  0.00000000000E+00  0.45593999997E+02  0.45594000000E+02  0.51100000000E-03 0. -1.
         11   -1    0    0    0    0 -0.00000000000E+00 -0.00000000000E+00 -0.45593999997E+02  0.45594000000E+02  0.51100000000E-03 0.  1.
         23    2    1    2    0    0  0.00000000000E+00  0.00000000000E+00 -0.88817841970E-15  0.91188000000E+02  0.91188000000E+02 0.  0.
    9900012    2    3    3    0    0 -0.12709523103E+02  0.41017877581E+02 -0.62948157255E+01  0.47787274617E+02  0.20000016290E+02 0.  0.
         12    1    3    3    0    0  0.12709523103E+02 -0.41017877581E+02  0.62948157255E+01  0.43400725383E+02  0.00000000000E+00 0. -1.
         11    1    4    4    0    0 -0.87034160448E+00  0.11865355296E+01 -0.39819805242E+01  0.42451772905E+01  0.51100000000E-03 0. -1.
        -11    1    4    4    0    0 -0.14398578209E+02  0.29384400568E+02 -0.15498659551E+01  0.32759183994E+02  0.51100000000E-03 0.  1.
         12    1    4    4    0    0  0.25593967110E+01  0.10446941483E+02 -0.76296924624E+00  0.10782913333E+02  0.00000000000E+00 0. -1.
</event>
<event>
 8    1  0.6469014E-010  0.9118800E+02  0.7816164E-02  0.1184000E+00
        -11   -1    0    0    0    0  0.00000000000E+00  0.00000000000E+00  0.45593999997E+02  0.45594000000E+02  0.51100000000E-03 0. -1.
         11   -1    0    0    0    0 -0.00000000000E+00 -0.00000000000E+00 -0.45593999997E+02  0.45594000000E+02  0.51100000000E-03 0.  1.
         23    2    1    2    0    0 -0.11102230246E-15  0.35527136788E-14 -0.71054273576E-14  0.91188000000E+02  0.91188000000E+02 0.  0.
    9900012    2    3    3    0    0 -0.94322451801E+00 -0.23659984617E+02  0.36372222856E+02  0.47787272586E+02  0.20000007029E+02 0.  0.
        -12    1    3    3    0    0  0.94322451801E+00  0.23659984617E+02 -0.36372222856E+02  0.43400727414E+02  0.00000000000E+00 0.  1.
         11    1    4    4    0    0 -0.29492759430E+01 -0.10181806465E+02  0.81739890942E+01  0.13385869769E+02  0.51100000000E-03 0. -1.
        -11    1    4    4    0    0  0.44268208529E+01 -0.38103179428E+00  0.17246116115E+01  0.47661529102E+01  0.51100000000E-03 0.  1.
        -12    1    4    4    0    0 -0.24207694279E+01 -0.13097146358E+02  0.26473622150E+02  0.29635249907E+02  0.00000000000E+00 0.  1.
</event>
<event>
 8    1  0.6469014E-010  0.9118800E+02  0.7816164E-02  0.1184000E+00
        -11   -1    0    0    0    0  0.00000000000E+00  0.00000000000E+00  0.45593999997E+02  0.45594000000E+02  0.51100000000E-03 0. -1.
         11   -1    0    0    0    0 -0.00000000000E+00 -0.00000000000E+00 -0.45593999997E+02  0.45594000000E+02  0.51100000000E-03 0.  1.
         23    2    1    2    0    0  0.33306690739E-15  0.00000000000E+00  0.35527136788E-14  0.91188000000E+02  0.91188000000E+02 0.  0.
    9900012    2    3    3    0    0 -0.87865750008E+00  0.33785839892E+02 -0.27228077796E+02  0.47787271473E+02  0.20000001954E+02 0.  0.
         12    1    3    3    0    0  0.87865750008E+00 -0.33785839892E+02  0.27228077796E+02  0.43400728527E+02  0.00000000000E+00 0. -1.
         11    1    4    4    0    0  0.18796457978E+00 -0.15626544765E+01 -0.43602387116E+01  0.46356123198E+01  0.51100000000E-03 0. -1.
        -11    1    4    4    0    0 -0.26331649251E+01  0.25065164966E+02 -0.20490126072E+02  0.32481399585E+02  0.51100000000E-03 0.  1.
        -12    1    4    4    0    0  0.15665428453E+01  0.10283329403E+02 -0.23777130126E+01  0.10670259569E+02  0.00000000000E+00 0.  1.
</event>
<event>
 8    1  0.6469014E-010  0.9118800E+02  0.7816164E-02  0.1184000E+00
        -11   -1    0    0    0    0  0.00000000000E+00  0.00000000000E+00  0.45593999997E+02  0.45594000000E+02  0.51100000000E-03 0. -1.
         11   -1    0    0    0    0 -0.00000000000E+00 -0.00000000000E+00 -0.45593999997E+02  0.45594000000E+02  0.51100000000E-03 0.  1.
         23    2    1    2    0    0 -0.88817841970E-15  0.00000000000E+00  0.71054273576E-14  0.91188000000E+02  0.91188000000E+02 0.  0.
    9900012    2    3    3    0    0  0.24852579324E+01 -0.17791674315E+02  0.39508261025E+02  0.47787275684E+02  0.20000021156E+02 0.  0.
        -12    1    3    3    0    0 -0.24852579324E+01  0.17791674315E+02 -0.39508261025E+02  0.43400724316E+02  0.00000000000E+00 0.  1.
         11    1    4    4    0    0 -0.50097067412E+01 -0.17696569860E+02  0.31487811129E+02  0.36465709871E+02  0.51100000000E-03 0. -1.
        -11    1    4    4    0    0  0.10487266712E+01 -0.88125212023E+00  0.70863908126E+00  0.15422718758E+01  0.51100000000E-03 0.  1.
         12    1    4    4    0    0  0.64462380024E+01  0.78614766503E+00  0.73118108148E+01  0.97792939380E+01  0.00000000000E+00 0. -1.
</event>
<event>
 8    1  0.6469014E-010  0.9118800E+02  0.7816164E-02  0.1184000E+00
        -11   -1    0    0    0    0  0.00000000000E+00  0.00000000000E+00  0.45593999997E+02  0.45594000000E+02  0.51100000000E-03 0.  1.
         11   -1    0    0    0    0 -0.00000000000E+00 -0.00000000000E+00 -0.45593999997E+02  0.45594000000E+02  0.51100000000E-03 0. -1.
         23    2    1    2    0    0  0.00000000000E+00  0.00000000000E+00  0.00000000000E+00  0.91188000000E+02  0.91188000000E+02 0.  0.
    9900012    2    3    3    0    0  0.36986013799E+02  0.19021411180E+02 -0.12403390248E+02  0.47787269710E+02  0.19999993916E+02 0.  0.
        -12    1    3    3    0    0 -0.36986013799E+02 -0.19021411180E+02  0.12403390248E+02  0.43400730290E+02  0.00000000000E+00 0.  1.
         11    1    4    4    0    0  0.19323862894E+02  0.15405356874E+02 -0.11852713495E+02  0.27408456998E+02  0.51100000000E-03 0. -1.
        -11    1    4    4    0    0  0.76907424263E+01  0.17095427771E+01  0.44645929416E+01  0.90555312362E+01  0.51100000000E-03 0.  1.
         12    1    4    4    0    0  0.99714084791E+01  0.19065115289E+01 -0.50152696946E+01  0.11323281476E+02  0.00000000000E+00 0. -1.
</event>
<event>
 8    1  0.6469014E-010  0.9118800E+02  0.7816164E-02  0.1184000E+00
        -11   -1    0    0    0    0  0.00000000000E+00  0.00000000000E+00  0.45593999997E+02  0.45594000000E+02  0.51100000000E-03 0. -1.
         11   -1    0    0    0    0 -0.00000000000E+00 -0.00000000000E+00 -0.45593999997E+02  0.45594000000E+02  0.51100000000E-03 0.  1.
         23    2    1    2    0    0  0.00000000000E+00  0.00000000000E+00  0.00000000000E+00  0.91188000000E+02  0.91188000000E+02 0.  0.
    9900012    2    3    3    0    0 -0.53941001492E+01  0.20113353728E+02 -0.38078600584E+02  0.47787272620E+02  0.20000007186E+02 0.  0.
         12    1    3    3    0    0  0.53941001492E+01 -0.20113353728E+02  0.38078600584E+02  0.43400727380E+02  0.00000000000E+00 0. -1.
         11    1    4    4    0    0  0.17505968474E+01  0.19478857449E+02 -0.18759385307E+02  0.27099908011E+02  0.51100000000E-03 0. -1.
        -11    1    4    4    0    0 -0.68319968442E+01  0.10068619500E+01 -0.17822560100E+02  0.19113701909E+02  0.51100000000E-03 0.  1.
         12    1    4    4    0    0 -0.31270015236E+00 -0.37236567048E+00 -0.14966551766E+01  0.15736627007E+01  0.00000000000E+00 0. -1.
</event>
<event>
 8    1  0.6469014E-010  0.9118800E+02  0.7816164E-02  0.1184000E+00
        -11   -1    0    0    0    0  0.00000000000E+00  0.00000000000E+00  0.45593999997E+02  0.45594000000E+02  0.51100000000E-03 0. -1.
         11   -1    0    0    0    0 -0.00000000000E+00 -0.00000000000E+00 -0.45593999997E+02  0.45594000000E+02  0.51100000000E-03 0.  1.
         23    2    1    2    0    0  0.00000000000E+00  0.00000000000E+00  0.71054273576E-14  0.91188000000E+02  0.91188000000E+02 0.  0.
    9900012    2    3    3    0    0 -0.52418471894E+01 -0.89824520280E+01 -0.42136235916E+02  0.47787265172E+02  0.19999973226E+02 0.  0.
         12    1    3    3    0    0  0.52418471894E+01  0.89824520280E+01  0.42136235916E+02  0.43400734828E+02  0.00000000000E+00 0. -1.
         11    1    4    4    0    0 -0.13048497419E+01 -0.80351846898E+01 -0.34660457589E+01  0.88476154591E+01  0.51100000000E-03 0. -1.
        -11    1    4    4    0    0 -0.29097621853E+01 -0.12142641020E+01 -0.34206765881E+02  0.34351768304E+02  0.51100000000E-03 0.  1.
         12    1    4    4    0    0 -0.10272352623E+01  0.26699676372E+00 -0.44634242762E+01  0.45878814092E+01  0.00000000000E+00 0. -1.
</event>
<event>
 8    1  0.6469014E-010  0.9118800E+02  0.7816164E-02  0.1184000E+00
        -11   -1    0    0    0    0  0.00000000000E+00  0.00000000000E+00  0.45593999997E+02  0.45594000000E+02  0.51100000000E-03 0. -1.
         11   -1    0    0    0    0 -0.00000000000E+00 -0.00000000000E+00 -0.45593999997E+02  0.45594000000E+02  0.51100000000E-03 0.  1.
         23    2    1    2    0    0  0.00000000000E+00  0.00000000000E+00 -0.35527136788E-14  0.91188000000E+02  0.91188000000E+02 0.  0.
    9900012    2    3    3    0    0 -0.28413544443E+02  0.10101560181E+02  0.31213010267E+02  0.47787273787E+02  0.20000012502E+02 0.  0.
        -12    1    3    3    0    0  0.28413544443E+02 -0.10101560181E+02 -0.31213010267E+02  0.43400726213E+02  0.00000000000E+00 0.  1.
         11    1    4    4    0    0 -0.14738635201E+02  0.28221627675E+01  0.19069737962E+02  0.24266167321E+02  0.51100000000E-03 0. -1.
        -11    1    4    4    0    0 -0.59139674443E+01  0.80823387974E+01  0.12078081527E+01  0.10087517641E+02  0.51100000000E-03 0.  1.
        -12    1    4    4    0    0 -0.77609417979E+01 -0.80294138354E+00  0.10935464153E+02  0.13433588824E+02  0.00000000000E+00 0.  1.
</event>
<event>
 8    1  0.6469014E-010  0.9118800E+02  0.7816164E-02  0.1184000E+00
        -11   -1    0    0    0    0  0.00000000000E+00  0.00000000000E+00  0.45593999997E+02  0.45594000000E+02  0.51100000000E-03 0. -1.
         11   -1    0    0    0    0 -0.00000000000E+00 -0.00000000000E+00 -0.45593999997E+02  0.45594000000E+02  0.51100000000E-03 0.  1.
         23    2    1    2    0    0  0.00000000000E+00  0.00000000000E+00  0.00000000000E+00  0.91188000000E+02  0.91188000000E+02 0.  0.
    9900012    2    3    3    0    0 -0.12324481813E+02 -0.23398067646E+02 -0.34413079239E+02  0.47787280603E+02  0.20000043580E+02 0.  0.
         12    1    3    3    0    0  0.12324481813E+02  0.23398067646E+02  0.34413079239E+02  0.43400719397E+02  0.00000000000E+00 0. -1.
         11    1    4    4    0    0 -0.48933836561E+01 -0.19237299618E+02 -0.12893770948E+02  0.23669985842E+02  0.51100000000E-03 0. -1.
        -11    1    4    4    0    0 -0.53511853517E+01 -0.27912622298E+01 -0.20594769362E+02  0.21460914586E+02  0.51100000000E-03 0.  1.
        -12    1    4    4    0    0 -0.20799128052E+01 -0.13695057977E+01 -0.92453892788E+00  0.26563801754E+01  0.00000000000E+00 0.  1.
</event>
<event>
 8    1  0.6469014E-010  0.9118800E+02  0.7816164E-02  0.1184000E+00
        -11   -1    0    0    0    0  0.00000000000E+00  0.00000000000E+00  0.45593999997E+02  0.45594000000E+02  0.51100000000E-03 0. -1.
         11   -1    0    0    0    0 -0.00000000000E+00 -0.00000000000E+00 -0.45593999997E+02  0.45594000000E+02  0.51100000000E-03 0.  1.
         23    2    1    2    0    0  0.00000000000E+00  0.00000000000E+00  0.00000000000E+00  0.91188000000E+02  0.91188000000E+02 0.  0.
    9900012    2    3    3    0    0  0.12010622045E+02  0.90346050294E+01  0.40715404473E+02  0.47787270843E+02  0.19999999083E+02 0.  0.
        -12    1    3    3    0    0 -0.12010622045E+02 -0.90346050294E+01 -0.40715404473E+02  0.43400729157E+02  0.00000000000E+00 0.  1.
         11    1    4    4    0    0  0.52302161401E+01  0.16992977491E+01  0.36206195313E+02  0.36621460279E+02  0.51100000000E-03 0. -1.
        -11    1    4    4    0    0  0.60486549008E+01  0.69215063713E+01  0.46694036636E+01  0.10310034306E+02  0.51100000000E-03 0.  1.
         12    1    4    4    0    0  0.73175100424E+00  0.41380090892E+00 -0.16019450362E+00  0.85577625780E+00  0.00000000000E+00 0. -1.
</event>
<event>
 8    1  0.6469014E-010  0.9118800E+02  0.7816164E-02  0.1184000E+00
        -11   -1    0    0    0    0  0.00000000000E+00  0.00000000000E+00  0.45593999997E+02  0.45594000000E+02  0.51100000000E-03 0. -1.
         11   -1    0    0    0    0 -0.00000000000E+00 -0.00000000000E+00 -0.45593999997E+02  0.45594000000E+02  0.51100000000E-03 0.  1.
         23    2    1    2    0    0  0.17763568394E-14 -0.88817841970E-15  0.00000000000E+00  0.91188000000E+02  0.91188000000E+02 0.  0.
    9900012    2    3    3    0    0 -0.11882019196E+02  0.22960857105E+01  0.41679358349E+02  0.47787270719E+02  0.19999998514E+02 0.  0.
        -12    1    3    3    0    0  0.11882019196E+02 -0.22960857105E+01 -0.41679358349E+02  0.43400729281E+02  0.00000000000E+00 0.  1.
         11    1    4    4    0    0  0.13401598732E+01  0.17186287615E+01  0.17976872110E+02  0.18108496471E+02  0.51100000000E-03 0. -1.
        -11    1    4    4    0    0 -0.12460772609E+02 -0.40320467926E+01  0.16083664793E+02  0.20741565244E+02  0.51100000000E-03 0.  1.
        -12    1    4    4    0    0 -0.76140645983E+00  0.46095037417E+01  0.76188214465E+01  0.89372090037E+01  0.00000000000E+00 0.  1.
</event>
<event>
 8    1  0.6469014E-010  0.9118800E+02  0.7816164E-02  0.1184000E+00
        -11   -1    0    0    0    0  0.00000000000E+00  0.00000000000E+00  0.45593999997E+02  0.45594000000E+02  0.51100000000E-03 0. -1.
         11   -1    0    0    0    0 -0.00000000000E+00 -0.00000000000E+00 -0.45593999997E+02  0.45594000000E+02  0.51100000000E-03 0.  1.
         23    2    1    2    0    0  0.00000000000E+00  0.17763568394E-14  0.71054273576E-14  0.91188000000E+02  0.91188000000E+02 0.  0.
    9900012    2    3    3    0    0  0.22119814832E+02 -0.15469621863E+02 -0.33985703537E+02  0.47787268973E+02  0.19999990557E+02 0.  0.
         12    1    3    3    0    0 -0.22119814832E+02  0.15469621863E+02  0.33985703537E+02  0.43400731027E+02  0.00000000000E+00 0. -1.
         11    1    4    4    0    0  0.48319960981E+01 -0.49870108359E+01 -0.81510217020E+00  0.69916275057E+01  0.51100000000E-03 0. -1.
        -11    1    4    4    0    0  0.61561063852E+01 -0.71968988771E+00 -0.20139156505E+02  0.21071336558E+02  0.51100000000E-03 0.  1.
         12    1    4    4    0    0  0.11131712348E+02 -0.97629211391E+01 -0.13031444862E+02  0.19724304910E+02  0.00000000000E+00 0. -1.
</event>
<event>
 8    1  0.6469014E-010  0.9118800E+02  0.7816164E-02  0.1184000E+00
        -11   -1    0    0    0    0  0.00000000000E+00  0.00000000000E+00  0.45593999997E+02  0.45594000000E+02  0.51100000000E-03 0. -1.
         11   -1    0    0    0    0 -0.00000000000E+00 -0.00000000000E+00 -0.45593999997E+02  0.45594000000E+02  0.51100000000E-03 0.  1.
         23    2    1    2    0    0  0.00000000000E+00  0.61062266354E-15  0.00000000000E+00  0.91188000000E+02  0.91188000000E+02 0.  0.
    9900012    2    3    3    0    0 -0.63063784797E+01  0.42915185025E+00 -0.42937961421E+02  0.47787272911E+02  0.20000008510E+02 0.  0.
         12    1    3    3    0    0  0.63063784797E+01 -0.42915185025E+00  0.42937961421E+02  0.43400727089E+02  0.00000000000E+00 0. -1.
         11    1    4    4    0    0 -0.10365601821E+02 -0.51876701787E+01 -0.21284040946E+02  0.24235676641E+02  0.51100000000E-03 0. -1.
        -11    1    4    4    0    0  0.35754433374E+01  0.82795355355E-01 -0.10470872205E+02  0.11064800727E+02  0.51100000000E-03 0.  1.
         12    1    4    4    0    0  0.48378000401E+00  0.55340266736E+01 -0.11183048270E+02  0.12486795543E+02  0.00000000000E+00 0. -1.
</event>
<event>
 8    1  0.6469014E-010  0.9118800E+02  0.7816164E-02  0.1184000E+00
        -11   -1    0    0    0    0  0.00000000000E+00  0.00000000000E+00  0.45593999997E+02  0.45594000000E+02  0.51100000000E-03 0. -1.
         11   -1    0    0    0    0 -0.00000000000E+00 -0.00000000000E+00 -0.45593999997E+02  0.45594000000E+02  0.51100000000E-03 0.  1.
         23    2    1    2    0    0  0.00000000000E+00  0.00000000000E+00  0.00000000000E+00  0.91188000000E+02  0.91188000000E+02 0.  0.
    9900012    2    3    3    0    0  0.13027667670E+02  0.23122099513E+02  0.34340533879E+02  0.47787264086E+02  0.19999968272E+02 0.  0.
        -12    1    3    3    0    0 -0.13027667670E+02 -0.23122099513E+02 -0.34340533879E+02  0.43400735914E+02  0.00000000000E+00 0.  1.
         11    1    4    4    0    0  0.75896945396E+01 -0.10222955002E+01  0.45416684109E+01  0.89036679806E+01  0.51100000000E-03 0.  1.
        -11    1    4    4    0    0  0.50716665566E+01  0.20151235263E+02  0.23054006781E+02  0.31036773563E+02  0.51100000000E-03 0. -1.
        -12    1    4    4    0    0  0.36630657412E+00  0.39931597504E+01  0.67448586872E+01  0.78468225422E+01  0.00000000000E+00 0.  1.
</event>
<event>
 8    1  0.6469014E-010  0.9118800E+02  0.7816164E-02  0.1184000E+00
        -11   -1    0    0    0    0  0.00000000000E+00  0.00000000000E+00  0.45593999997E+02  0.45594000000E+02  0.51100000000E-03 0. -1.
         11   -1    0    0    0    0 -0.00000000000E+00 -0.00000000000E+00 -0.45593999997E+02  0.45594000000E+02  0.51100000000E-03 0.  1.
         23    2    1    2    0    0  0.00000000000E+00 -0.35527136788E-14  0.00000000000E+00  0.91188000000E+02  0.91188000000E+02 0.  0.
    9900012    2    3    3    0    0 -0.26034237855E+02  0.25067794325E+02 -0.24030135793E+02  0.47787270983E+02  0.19999999720E+02 0.  0.
         12    1    3    3    0    0  0.26034237855E+02 -0.25067794325E+02  0.24030135793E+02  0.43400729017E+02  0.00000000000E+00 0. -1.
         11    1    4    4    0    0 -0.17640857180E+01  0.38287833340E+01 -0.53115457513E+01  0.67811576275E+01  0.51100000000E-03 0. -1.
        -11    1    4    4    0    0 -0.19964964754E+00  0.59720888125E+00 -0.72642668016E+01  0.72915081331E+01  0.51100000000E-03 0.  1.
        -12    1    4    4    0    0 -0.24070502490E+02  0.20641802109E+02 -0.11454323240E+02  0.33714605222E+02  0.00000000000E+00 0.  1.
</event>
<event>
 8    1  0.6469014E-010  0.9118800E+02  0.7816164E-02  0.1184000E+00
        -11   -1    0    0    0    0  0.00000000000E+00  0.00000000000E+00  0.45593999997E+02  0.45594000000E+02  0.51100000000E-03 0. -1.
         11   -1    0    0    0    0 -0.00000000000E+00 -0.00000000000E+00 -0.45593999997E+02  0.45594000000E+02  0.51100000000E-03 0.  1.
         23    2    1    2    0    0  0.88817841970E-15  0.00000000000E+00 -0.35527136788E-14  0.91188000000E+02  0.91188000000E+02 0.  0.
    9900012    2    3    3    0    0 -0.57482242948E+01  0.34019451059E+02 -0.26329799910E+02  0.47787268483E+02  0.19999988322E+02 0.  0.
         12    1    3    3    0    0  0.57482242948E+01 -0.34019451059E+02  0.26329799910E+02  0.43400731517E+02  0.00000000000E+00 0. -1.
         11    1    4    4    0    0 -0.30857676828E+01  0.20104104924E+01  0.24854304141E+01  0.44430931956E+01  0.51100000000E-03 0. -1.
        -11    1    4    4    0    0 -0.24386018930E+01  0.17866847962E+02 -0.13724322651E+02  0.22661157688E+02  0.51100000000E-03 0.  1.
         12    1    4    4    0    0 -0.22385471895E+00  0.14142192605E+02 -0.15090907674E+02  0.20683017599E+02  0.00000000000E+00 0. -1.
</event>
<event>
 8    1  0.6469014E-010  0.9118800E+02  0.7816164E-02  0.1184000E+00
        -11   -1    0    0    0    0  0.00000000000E+00  0.00000000000E+00  0.45593999997E+02  0.45594000000E+02  0.51100000000E-03 0. -1.
         11   -1    0    0    0    0 -0.00000000000E+00 -0.00000000000E+00 -0.45593999997E+02  0.45594000000E+02  0.51100000000E-03 0.  1.
         23    2    1    2    0    0 -0.35527136788E-14  0.35527136788E-14  0.35527136788E-14  0.91188000000E+02  0.91188000000E+02 0.  0.
    9900012    2    3    3    0    0 -0.30857092778E+02 -0.18857409776E+02  0.23997104401E+02  0.47787273073E+02  0.20000009249E+02 0.  0.
        -12    1    3    3    0    0  0.30857092778E+02  0.18857409776E+02 -0.23997104401E+02  0.43400726927E+02  0.00000000000E+00 0.  1.
         11    1    4    4    0    0 -0.56682283798E+01 -0.64105221232E+01  0.12137499776E+02  0.14850673652E+02  0.51100000000E-03 0. -1.
        -11    1    4    4    0    0 -0.18978647350E+02 -0.31749373337E+01  0.51669974311E+01  0.19924034356E+02  0.51100000000E-03 0.  1.
        -12    1    4    4    0    0 -0.62102170476E+01 -0.92719503195E+01  0.66926071935E+01  0.13012565064E+02  0.00000000000E+00 0.  1.
</event>
<event>
 8    1  0.6469014E-010  0.9118800E+02  0.7816164E-02  0.1184000E+00
        -11   -1    0    0    0    0  0.00000000000E+00  0.00000000000E+00  0.45593999997E+02  0.45594000000E+02  0.51100000000E-03 0. -1.
         11   -1    0    0    0    0 -0.00000000000E+00 -0.00000000000E+00 -0.45593999997E+02  0.45594000000E+02  0.51100000000E-03 0.  1.
         23    2    1    2    0    0  0.00000000000E+00 -0.44408920985E-15  0.00000000000E+00  0.91188000000E+02  0.91188000000E+02 0.  0.
    9900012    2    3    3    0    0 -0.21299168141E+02  0.38780975044E+01  0.37615542421E+02  0.47787271488E+02  0.20000002020E+02 0.  0.
        -12    1    3    3    0    0  0.21299168141E+02 -0.38780975044E+01 -0.37615542421E+02  0.43400728512E+02  0.00000000000E+00 0.  1.
         11    1    4    4    0    0 -0.23410093454E+01  0.27102344357E+00  0.20600363353E+01  0.31301003859E+01  0.51100000000E-03 0. -1.
        -11    1    4    4    0    0 -0.31998333588E+01 -0.25028726297E+01  0.23618740836E+02  0.23965563291E+02  0.51100000000E-03 0.  1.
        -12    1    4    4    0    0 -0.15758325437E+02  0.61099466905E+01  0.11936765250E+02  0.20691607810E+02  0.00000000000E+00 0.  1.
</event>
<event>
 8    1  0.6469014E-010  0.9118800E+02  0.7816164E-02  0.1184000E+00
        -11   -1    0    0    0    0  0.00000000000E+00  0.00000000000E+00  0.45593999997E+02  0.45594000000E+02  0.51100000000E-03 0. -1.
         11   -1    0    0    0    0 -0.00000000000E+00 -0.00000000000E+00 -0.45593999997E+02  0.45594000000E+02  0.51100000000E-03 0.  1.
         23    2    1    2    0    0 -0.35527136788E-14  0.00000000000E+00  0.00000000000E+00  0.91188000000E+02  0.91188000000E+02 0.  0.
    9900012    2    3    3    0    0 -0.22253341416E+02  0.22778883120E+02 -0.29487869696E+02  0.47787272131E+02  0.20000004953E+02 0.  0.
         12    1    3    3    0    0  0.22253341416E+02 -0.22778883120E+02  0.29487869696E+02  0.43400727869E+02  0.00000000000E+00 0. -1.
         11    1    4    4    0    0 -0.69574548766E+01  0.45948569990E+01 -0.20720411436E+01  0.85914052379E+01  0.51100000000E-03 0. -1.
        -11    1    4    4    0    0 -0.83500650038E+01  0.12291356191E+02 -0.61880345381E+01  0.16096359660E+02  0.51100000000E-03 0.  1.
        -12    1    4    4    0    0 -0.69458215356E+01  0.58926699297E+01 -0.21227794014E+02  0.23099507233E+02  0.00000000000E+00 0.  1.
</event>
<event>
 8    1  0.6469014E-010  0.9118800E+02  0.7816164E-02  0.1184000E+00
        -11   -1    0    0    0    0  0.00000000000E+00  0.00000000000E+00  0.45593999997E+02  0.45594000000E+02  0.51100000000E-03 0. -1.
         11   -1    0    0    0    0 -0.00000000000E+00 -0.00000000000E+00 -0.45593999997E+02  0.45594000000E+02  0.51100000000E-03 0.  1.
         23    2    1    2    0    0  0.17763568394E-14  0.00000000000E+00  0.00000000000E+00  0.91188000000E+02  0.91188000000E+02 0.  0.
    9900012    2    3    3    0    0  0.13145671559E+02 -0.24254658483E+02 -0.33504115810E+02  0.47787275178E+02  0.20000018848E+02 0.  0.
         12    1    3    3    0    0 -0.13145671559E+02  0.24254658483E+02  0.33504115810E+02  0.43400724822E+02  0.00000000000E+00 0. -1.
         11    1    4    4    0    0  0.16370369184E+01 -0.17430880079E+02 -0.16427139919E+02  0.24007632044E+02  0.51100000000E-03 0. -1.
        -11    1    4    4    0    0 -0.11694192183E+01 -0.10208453197E+01 -0.53185782480E+01  0.55404820472E+01  0.51100000000E-03 0.  1.
         12    1    4    4    0    0  0.12678053859E+02 -0.58029330845E+01 -0.11758397642E+02  0.18239161087E+02  0.00000000000E+00 0. -1.
</event>
<event>
 8    1  0.6469014E-010  0.9118800E+02  0.7816164E-02  0.1184000E+00
        -11   -1    0    0    0    0  0.00000000000E+00  0.00000000000E+00  0.45593999997E+02  0.45594000000E+02  0.51100000000E-03 0. -1.
         11   -1    0    0    0    0 -0.00000000000E+00 -0.00000000000E+00 -0.45593999997E+02  0.45594000000E+02  0.51100000000E-03 0.  1.
         23    2    1    2    0    0  0.00000000000E+00  0.00000000000E+00 -0.35527136788E-14  0.91188000000E+02  0.91188000000E+02 0.  0.
    9900012    2    3    3    0    0 -0.25269493789E+02 -0.33441984768E+02 -0.11256531908E+02  0.47787272216E+02  0.20000005342E+02 0.  0.
         12    1    3    3    0    0  0.25269493789E+02  0.33441984768E+02  0.11256531908E+02  0.43400727784E+02  0.00000000000E+00 0. -1.
         11    1    4    4    0    0  0.10263613149E+01 -0.60662284899E+01  0.19997336045E+01  0.64692720139E+01  0.51100000000E-03 0. -1.
        -11    1    4    4    0    0 -0.22735588406E+02 -0.19980612304E+02 -0.71844213136E+01  0.31108644427E+02  0.51100000000E-03 0.  1.
         12    1    4    4    0    0 -0.35602666974E+01 -0.73951439744E+01 -0.60718441994E+01  0.10209355775E+02  0.00000000000E+00 0. -1.
</event>
<event>
 8    1  0.6469014E-010  0.9118800E+02  0.7816164E-02  0.1184000E+00
        -11   -1    0    0    0    0  0.00000000000E+00  0.00000000000E+00  0.45593999997E+02  0.45594000000E+02  0.51100000000E-03 0. -1.
         11   -1    0    0    0    0 -0.00000000000E+00 -0.00000000000E+00 -0.45593999997E+02  0.45594000000E+02  0.51100000000E-03 0.  1.
         23    2    1    2    0    0  0.00000000000E+00  0.00000000000E+00  0.00000000000E+00  0.91188000000E+02  0.91188000000E+02 0.  0.
    9900012    2    3    3    0    0 -0.56356083565E+01  0.22894220290E+02  0.36437862370E+02  0.47787271684E+02  0.20000002916E+02 0.  0.
        -12    1    3    3    0    0  0.56356083565E+01 -0.22894220290E+02 -0.36437862370E+02  0.43400728316E+02  0.00000000000E+00 0.  1.
         11    1    4    4    0    0  0.72870369226E+00 -0.18205412956E+00  0.10944759871E+02  0.10970502344E+02  0.51100000000E-03 0. -1.
        -11    1    4    4    0    0 -0.21275707131E+01  0.20477620003E+02  0.24013916587E+02  0.31631118669E+02  0.51100000000E-03 0.  1.
        -12    1    4    4    0    0 -0.42367413357E+01  0.25986544167E+01  0.14791859118E+01  0.51856506713E+01  0.00000000000E+00 0.  1.
</event>
<event>
 8    1  0.6469014E-010  0.9118800E+02  0.7816164E-02  0.1184000E+00
        -11   -1    0    0    0    0  0.00000000000E+00  0.00000000000E+00  0.45593999997E+02  0.45594000000E+02  0.51100000000E-03 0. -1.
         11   -1    0    0    0    0 -0.00000000000E+00 -0.00000000000E+00 -0.45593999997E+02  0.45594000000E+02  0.51100000000E-03 0.  1.
         23    2    1    2    0    0  0.00000000000E+00 -0.17763568394E-14  0.00000000000E+00  0.91188000000E+02  0.91188000000E+02 0.  0.
    9900012    2    3    3    0    0 -0.41118337754E+02 -0.10839192570E+02  0.86845057128E+01  0.47787234630E+02  0.19999833970E+02 0.  0.
        -12    1    3    3    0    0  0.41118337754E+02  0.10839192570E+02 -0.86845057128E+01  0.43400765370E+02  0.00000000000E+00 0.  1.
         11    1    4    4    0    0 -0.15128476579E+02 -0.12206911866E+02  0.71791436555E+01  0.20722442057E+02  0.51100000000E-03 0. -1.
        -11    1    4    4    0    0 -0.26317130471E+02  0.12807575457E+01  0.20452053322E+01  0.26427534149E+02  0.51100000000E-03 0.  1.
         12    1    4    4    0    0  0.32726929502E+00  0.86961750301E-01 -0.53984327485E+00  0.63725842394E+00  0.00000000000E+00 0. -1.
</event>
<event>
 8    1  0.6469014E-010  0.9118800E+02  0.7816164E-02  0.1184000E+00
        -11   -1    0    0    0    0  0.00000000000E+00  0.00000000000E+00  0.45593999997E+02  0.45594000000E+02  0.51100000000E-03 0. -1.
         11   -1    0    0    0    0 -0.00000000000E+00 -0.00000000000E+00 -0.45593999997E+02  0.45594000000E+02  0.51100000000E-03 0.  1.
         23    2    1    2    0    0  0.00000000000E+00  0.00000000000E+00  0.71054273576E-14  0.91188000000E+02  0.91188000000E+02 0.  0.
    9900012    2    3    3    0    0 -0.10334714438E+02 -0.80433027228E+01 -0.41377803603E+02  0.47787266455E+02  0.19999979074E+02 0.  0.
         12    1    3    3    0    0  0.10334714438E+02  0.80433027228E+01  0.41377803603E+02  0.43400733545E+02  0.00000000000E+00 0. -1.
         11    1    4    4    0    0 -0.92513136550E+01  0.26783786062E+01 -0.11052697806E+02  0.14660240290E+02  0.51100000000E-03 0. -1.
        -11    1    4    4    0    0 -0.20758854487E+01 -0.94203215721E+01 -0.15813768603E+02  0.18523688526E+02  0.51100000000E-03 0.  1.
        -12    1    4    4    0    0  0.99248466577E+00 -0.13013597568E+01 -0.14511337195E+02  0.14603337639E+02  0.00000000000E+00 0.  1.
</event>
<event>
 8    1  0.6469014E-010  0.9118800E+02  0.7816164E-02  0.1184000E+00
        -11   -1    0    0    0    0  0.00000000000E+00  0.00000000000E+00  0.45593999997E+02  0.45594000000E+02  0.51100000000E-03 0. -1.
         11   -1    0    0    0    0 -0.00000000000E+00 -0.00000000000E+00 -0.45593999997E+02  0.45594000000E+02  0.51100000000E-03 0.  1.
         23    2    1    2    0    0  0.00000000000E+00  0.00000000000E+00  0.00000000000E+00  0.91188000000E+02  0.91188000000E+02 0.  0.
    9900012    2    3    3    0    0 -0.13328655647E+02  0.42619023082E+01 -0.41082920412E+02  0.47787271639E+02  0.20000002712E+02 0.  0.
         12    1    3    3    0    0  0.13328655647E+02 -0.42619023082E+01  0.41082920412E+02  0.43400728361E+02  0.00000000000E+00 0. -1.
         11    1    4    4    0    0 -0.22665343795E+01 -0.37237975643E+01 -0.35806479833E+01  0.56413550353E+01  0.51100000000E-03 0. -1.
        -11    1    4    4    0    0 -0.84967146159E+01  0.56820371707E+00 -0.30368037773E+02  0.31539415549E+02  0.51100000000E-03 0.  1.
        -12    1    4    4    0    0 -0.25654066511E+01  0.74174961554E+01 -0.71342346563E+01  0.10606501055E+02  0.00000000000E+00 0.  1.
</event>
<event>
 8    1  0.6469014E-010  0.9118800E+02  0.7816164E-02  0.1184000E+00
        -11   -1    0    0    0    0  0.00000000000E+00  0.00000000000E+00  0.45593999997E+02  0.45594000000E+02  0.51100000000E-03 0. -1.
         11   -1    0    0    0    0 -0.00000000000E+00 -0.00000000000E+00 -0.45593999997E+02  0.45594000000E+02  0.51100000000E-03 0.  1.
         23    2    1    2    0    0 -0.17763568394E-14 -0.88817841970E-15  0.71054273576E-14  0.91188000000E+02  0.91188000000E+02 0.  0.
    9900012    2    3    3    0    0  0.11722166040E+02  0.48097169953E+01 -0.41510010482E+02  0.47787268158E+02  0.19999986838E+02 0.  0.
         12    1    3    3    0    0 -0.11722166040E+02 -0.48097169953E+01  0.41510010482E+02  0.43400731842E+02  0.00000000000E+00 0. -1.
         11    1    4    4    0    0 -0.88236383712E+00 -0.34045294218E-02  0.10048328773E+01  0.13372609709E+01  0.51100000000E-03 0. -1.
        -11    1    4    4    0    0  0.15162044522E+02  0.46792282841E+01 -0.33323078451E+02  0.36908133645E+02  0.51100000000E-03 0.  1.
        -12    1    4    4    0    0 -0.25575146453E+01  0.13389324054E+00 -0.91917649083E+01  0.95418735420E+01  0.00000000000E+00 0.  1.
</event>
<event>
 8    1  0.6469014E-010  0.9118800E+02  0.7816164E-02  0.1184000E+00
        -11   -1    0    0    0    0  0.00000000000E+00  0.00000000000E+00  0.45593999997E+02  0.45594000000E+02  0.51100000000E-03 0. -1.
         11   -1    0    0    0    0 -0.00000000000E+00 -0.00000000000E+00 -0.45593999997E+02  0.45594000000E+02  0.51100000000E-03 0.  1.
         23    2    1    2    0    0 -0.44408920985E-15  0.00000000000E+00  0.00000000000E+00  0.91188000000E+02  0.91188000000E+02 0.  0.
    9900012    2    3    3    0    0  0.36511368634E+01 -0.43063196526E+01 -0.43032006921E+02  0.47787207277E+02  0.19999709255E+02 0.  0.
         12    1    3    3    0    0 -0.36511368634E+01  0.43063196526E+01  0.43032006921E+02  0.43400792723E+02  0.00000000000E+00 0. -1.
         11    1    4    4    0    0 -0.59662712913E+00  0.18339740983E+01 -0.17309623938E+02  0.17416730637E+02  0.51100000000E-03 0. -1.
        -11    1    4    4    0    0  0.11802037130E+01  0.47053754752E+01 -0.69848141781E+01  0.85041794742E+01  0.51100000000E-03 0.  1.
        -12    1    4    4    0    0  0.30675602796E+01 -0.10845669226E+02 -0.18737568805E+02  0.21866297166E+02  0.00000000000E+00 0.  1.
</event>
<event>
 8    1  0.6469014E-010  0.9118800E+02  0.7816164E-02  0.1184000E+00
        -11   -1    0    0    0    0  0.00000000000E+00  0.00000000000E+00  0.45593999997E+02  0.45594000000E+02  0.51100000000E-03 0. -1.
         11   -1    0    0    0    0 -0.00000000000E+00 -0.00000000000E+00 -0.45593999997E+02  0.45594000000E+02  0.51100000000E-03 0.  1.
         23    2    1    2    0    0  0.00000000000E+00 -0.35527136788E-14  0.00000000000E+00  0.91188000000E+02  0.91188000000E+02 0.  0.
    9900012    2    3    3    0    0 -0.92189048922E+01  0.23524527378E+02  0.35287828172E+02  0.47787280964E+02  0.20000045228E+02 0.  0.
        -12    1    3    3    0    0  0.92189048922E+01 -0.23524527378E+02 -0.35287828172E+02  0.43400719036E+02  0.00000000000E+00 0.  1.
         11    1    4    4    0    0 -0.15669092603E+01 -0.38579988471E+00  0.43435123466E+01  0.46335888841E+01  0.51100000000E-03 0. -1.
        -11    1    4    4    0    0 -0.88518260766E+01  0.46220224517E+01  0.61891741015E+01  0.11748352768E+02  0.51100000000E-03 0.  1.
        -12    1    4    4    0    0  0.11998304447E+01  0.19288304811E+02  0.24755141724E+02  0.31405339312E+02  0.00000000000E+00 0.  1.
</event>
<event>
 8    1  0.6469014E-010  0.9118800E+02  0.7816164E-02  0.1184000E+00
        -11   -1    0    0    0    0  0.00000000000E+00  0.00000000000E+00  0.45593999997E+02  0.45594000000E+02  0.51100000000E-03 0. -1.
         11   -1    0    0    0    0 -0.00000000000E+00 -0.00000000000E+00 -0.45593999997E+02  0.45594000000E+02  0.51100000000E-03 0.  1.
         23    2    1    2    0    0  0.00000000000E+00  0.00000000000E+00  0.00000000000E+00  0.91188000000E+02  0.91188000000E+02 0.  0.
    9900012    2    3    3    0    0 -0.82722741700E+01 -0.40652675287E+02  0.12749621504E+02  0.47787269863E+02  0.19999994612E+02 0.  0.
        -12    1    3    3    0    0  0.82722741700E+01  0.40652675287E+02 -0.12749621504E+02  0.43400730137E+02  0.00000000000E+00 0.  1.
         11    1    4    4    0    0 -0.36827548328E+01 -0.26447647946E+02  0.57008612384E+01  0.27304589067E+02  0.51100000000E-03 0. -1.
        -11    1    4    4    0    0 -0.12965104885E+01 -0.75906768336E+01  0.99178930355E+01  0.12556429300E+02  0.51100000000E-03 0.  1.
        -12    1    4    4    0    0 -0.32930088488E+01 -0.66143505079E+01 -0.28691327695E+01  0.79262514954E+01  0.00000000000E+00 0.  1.
</event>
<event>
 8    1  0.6469014E-010  0.9118800E+02  0.7816164E-02  0.1184000E+00
        -11   -1    0    0    0    0  0.00000000000E+00  0.00000000000E+00  0.45593999997E+02  0.45594000000E+02  0.51100000000E-03 0. -1.
         11   -1    0    0    0    0 -0.00000000000E+00 -0.00000000000E+00 -0.45593999997E+02  0.45594000000E+02  0.51100000000E-03 0.  1.
         23    2    1    2    0    0 -0.88817841970E-15  0.17763568394E-14  0.00000000000E+00  0.91188000000E+02  0.91188000000E+02 0.  0.
    9900012    2    3    3    0    0 -0.70880288697E+01  0.14257006463E+02 -0.40374767165E+02  0.47787260258E+02  0.19999950820E+02 0.  0.
         12    1    3    3    0    0  0.70880288697E+01 -0.14257006463E+02  0.40374767165E+02  0.43400739742E+02  0.00000000000E+00 0. -1.
         11    1    4    4    0    0  0.42149762662E+01  0.12871856068E+02 -0.16937804109E+02  0.21687321454E+02  0.51100000000E-03 0. -1.
        -11    1    4    4    0    0 -0.94580976902E+01  0.16232538493E+01 -0.20275122577E+02  0.22431477007E+02  0.51100000000E-03 0.  1.
        -12    1    4    4    0    0 -0.18449074457E+01 -0.23810345407E+00 -0.31618404793E+01  0.36684617968E+01  0.00000000000E+00 0.  1.
</event>
<event>
 8    1  0.6469014E-010  0.9118800E+02  0.7816164E-02  0.1184000E+00
        -11   -1    0    0    0    0  0.00000000000E+00  0.00000000000E+00  0.45593999997E+02  0.45594000000E+02  0.51100000000E-03 0. -1.
         11   -1    0    0    0    0 -0.00000000000E+00 -0.00000000000E+00 -0.45593999997E+02  0.45594000000E+02  0.51100000000E-03 0.  1.
         23    2    1    2    0    0  0.00000000000E+00  0.17763568394E-14  0.35527136788E-14  0.91188000000E+02  0.91188000000E+02 0.  0.
    9900012    2    3    3    0    0 -0.38145649038E+02  0.11179593256E+02  0.17422674094E+02  0.47787269379E+02  0.19999992407E+02 0.  0.
        -12    1    3    3    0    0  0.38145649038E+02 -0.11179593256E+02 -0.17422674094E+02  0.43400730621E+02  0.00000000000E+00 0.  1.
         11    1    4    4    0    0 -0.24897383923E+02  0.12258060919E+02  0.48363696182E+01  0.28169669062E+02  0.51100000000E-03 0. -1.
        -11    1    4    4    0    0 -0.50938723607E+01 -0.31477564840E+01  0.81306075137E+01  0.10097657417E+02  0.51100000000E-03 0.  1.
         12    1    4    4    0    0 -0.81543927533E+01  0.20692888215E+01  0.44556969617E+01  0.95199428999E+01  0.00000000000E+00 0. -1.
</event>
<event>
 8    1  0.6469014E-010  0.9118800E+02  0.7816164E-02  0.1184000E+00
        -11   -1    0    0    0    0  0.00000000000E+00  0.00000000000E+00  0.45593999997E+02  0.45594000000E+02  0.51100000000E-03 0. -1.
         11   -1    0    0    0    0 -0.00000000000E+00 -0.00000000000E+00 -0.45593999997E+02  0.45594000000E+02  0.51100000000E-03 0.  1.
         23    2    1    2    0    0  0.00000000000E+00 -0.35527136788E-14  0.17763568394E-14  0.91188000000E+02  0.91188000000E+02 0.  0.
    9900012    2    3    3    0    0 -0.29366107056E+02 -0.30587197562E+02  0.92561894460E+01  0.47787286395E+02  0.20000069991E+02 0.  0.
        -12    1    3    3    0    0  0.29366107056E+02  0.30587197562E+02 -0.92561894460E+01  0.43400713605E+02  0.00000000000E+00 0.  1.
         11    1    4    4    0    0 -0.11667299366E+02 -0.62416161721E+01  0.90144794110E+01  0.16010761576E+02  0.51100000000E-03 0. -1.
        -11    1    4    4    0    0 -0.15617283288E+02 -0.20598173934E+02  0.38990110288E+01  0.26141663948E+02  0.51100000000E-03 0.  1.
         12    1    4    4    0    0 -0.20815244015E+01 -0.37474074559E+01 -0.36573009938E+01  0.56348608709E+01  0.00000000000E+00 0. -1.
</event>
<event>
 8    1  0.6469014E-010  0.9118800E+02  0.7816164E-02  0.1184000E+00
        -11   -1    0    0    0    0  0.00000000000E+00  0.00000000000E+00  0.45593999997E+02  0.45594000000E+02  0.51100000000E-03 0. -1.
         11   -1    0    0    0    0 -0.00000000000E+00 -0.00000000000E+00 -0.45593999997E+02  0.45594000000E+02  0.51100000000E-03 0.  1.
         23    2    1    2    0    0  0.00000000000E+00  0.00000000000E+00  0.00000000000E+00  0.91188000000E+02  0.91188000000E+02 0.  0.
    9900012    2    3    3    0    0 -0.47369221353E+01  0.23259122171E+02  0.36334537453E+02  0.47787264898E+02  0.19999971978E+02 0.  0.
        -12    1    3    3    0    0  0.47369221353E+01 -0.23259122171E+02 -0.36334537453E+02  0.43400735102E+02  0.00000000000E+00 0.  1.
         11    1    4    4    0    0 -0.77491321310E+01  0.84207776698E+01  0.11274010359E+02  0.16064303756E+02  0.51100000000E-03 0. -1.
        -11    1    4    4    0    0  0.44141150238E+01  0.10974930622E+02  0.82618889221E+01  0.14428871142E+02  0.51100000000E-03 0.  1.
        -12    1    4    4    0    0 -0.14019050281E+01  0.38634138784E+01  0.16798638172E+02  0.17294090000E+02  0.00000000000E+00 0.  1.
</event>
<event>
 8    1  0.6469014E-010  0.9118800E+02  0.7816164E-02  0.1184000E+00
        -11   -1    0    0    0    0  0.00000000000E+00  0.00000000000E+00  0.45593999997E+02  0.45594000000E+02  0.51100000000E-03 0. -1.
         11   -1    0    0    0    0 -0.00000000000E+00 -0.00000000000E+00 -0.45593999997E+02  0.45594000000E+02  0.51100000000E-03 0.  1.
         23    2    1    2    0    0  0.00000000000E+00  0.00000000000E+00  0.00000000000E+00  0.91188000000E+02  0.91188000000E+02 0.  0.
    9900012    2    3    3    0    0  0.15603626624E+02  0.25048283334E+02  0.31823476666E+02  0.47787270411E+02  0.19999997112E+02 0.  0.
        -12    1    3    3    0    0 -0.15603626624E+02 -0.25048283334E+02 -0.31823476666E+02  0.43400729589E+02  0.00000000000E+00 0.  1.
         11    1    4    4    0    0  0.31609574208E+01  0.54463133537E+01  0.68464251133E+01  0.93020168811E+01  0.51100000000E-03 0. -1.
        -11    1    4    4    0    0 -0.26025650269E+00  0.15715384043E+02  0.16149514738E+02  0.22535479928E+02  0.51100000000E-03 0.  1.
        -12    1    4    4    0    0  0.12702925706E+02  0.38865859368E+01  0.88275368144E+01  0.15949773602E+02  0.00000000000E+00 0.  1.
</event>
<event>
 8    1  0.6469014E-010  0.9118800E+02  0.7816164E-02  0.1184000E+00
        -11   -1    0    0    0    0  0.00000000000E+00  0.00000000000E+00  0.45593999997E+02  0.45594000000E+02  0.51100000000E-03 0. -1.
         11   -1    0    0    0    0 -0.00000000000E+00 -0.00000000000E+00 -0.45593999997E+02  0.45594000000E+02  0.51100000000E-03 0.  1.
         23    2    1    2    0    0  0.17763568394E-14 -0.33306690739E-15  0.00000000000E+00  0.91188000000E+02  0.91188000000E+02 0.  0.
    9900012    2    3    3    0    0  0.14607622955E+02  0.84453253661E+00  0.40859844464E+02  0.47787276812E+02  0.20000026296E+02 0.  0.
        -12    1    3    3    0    0 -0.14607622955E+02 -0.84453253661E+00 -0.40859844464E+02  0.43400723188E+02  0.00000000000E+00 0.  1.
         11    1    4    4    0    0  0.58467404232E+00 -0.65991145628E+00 -0.17473071138E+01  0.19571431416E+01  0.51100000000E-03 0. -1.
        -11    1    4    4    0    0  0.49258087253E+01  0.31599687673E+01  0.27516301881E+02  0.28131758986E+02  0.51100000000E-03 0.  1.
         12    1    4    4    0    0  0.90971401879E+01 -0.16555247744E+01  0.15090849697E+02  0.17698374684E+02  0.00000000000E+00 0. -1.
</event>
<event>
 8    1  0.6469014E-010  0.9118800E+02  0.7816164E-02  0.1184000E+00
        -11   -1    0    0    0    0  0.00000000000E+00  0.00000000000E+00  0.45593999997E+02  0.45594000000E+02  0.51100000000E-03 0. -1.
         11   -1    0    0    0    0 -0.00000000000E+00 -0.00000000000E+00 -0.45593999997E+02  0.45594000000E+02  0.51100000000E-03 0.  1.
         23    2    1    2    0    0  0.35527136788E-14 -0.17763568394E-14 -0.35527136788E-14  0.91188000000E+02  0.91188000000E+02 0.  0.
    9900012    2    3    3    0    0  0.29192047815E+02 -0.10537904129E+02 -0.30338110767E+02  0.47787262172E+02  0.19999959547E+02 0.  0.
         12    1    3    3    0    0 -0.29192047815E+02  0.10537904129E+02  0.30338110767E+02  0.43400737828E+02  0.00000000000E+00 0. -1.
         11    1    4    4    0    0  0.20586829525E+02 -0.89067441441E+01 -0.30619149898E+02  0.37956290412E+02  0.51100000000E-03 0. -1.
        -11    1    4    4    0    0  0.62521434702E+01 -0.29786728885E+01 -0.66918849511E+00  0.69577010321E+01  0.51100000000E-03 0.  1.
         12    1    4    4    0    0  0.23530748203E+01  0.13475129032E+01  0.95022762567E+00  0.28732707277E+01  0.00000000000E+00 0. -1.
</event>
<event>
 8    1  0.6469014E-010  0.9118800E+02  0.7816164E-02  0.1184000E+00
        -11   -1    0    0    0    0  0.00000000000E+00  0.00000000000E+00  0.45593999997E+02  0.45594000000E+02  0.51100000000E-03 0. -1.
         11   -1    0    0    0    0 -0.00000000000E+00 -0.00000000000E+00 -0.45593999997E+02  0.45594000000E+02  0.51100000000E-03 0.  1.
         23    2    1    2    0    0  0.35527136788E-14  0.00000000000E+00  0.00000000000E+00  0.91188000000E+02  0.91188000000E+02 0.  0.
    9900012    2    3    3    0    0  0.27121344164E+02 -0.13002097566E+02  0.31288988239E+02  0.47787278400E+02  0.20000033536E+02 0.  0.
        -12    1    3    3    0    0 -0.27121344164E+02  0.13002097566E+02 -0.31288988239E+02  0.43400721600E+02  0.00000000000E+00 0.  1.
         11    1    4    4    0    0  0.18243940885E+02 -0.31003789777E+01  0.28600021905E+02  0.34064864334E+02  0.51100000000E-03 0. -1.
        -11    1    4    4    0    0  0.68730011317E+01 -0.85473441174E+01  0.16568681249E+01  0.11092359905E+02  0.51100000000E-03 0.  1.
         12    1    4    4    0    0  0.20044021478E+01 -0.13543744712E+01  0.10320982087E+01  0.26300541612E+01  0.00000000000E+00 0. -1.
</event>
<event>
 8    1  0.6469014E-010  0.9118800E+02  0.7816164E-02  0.1184000E+00
        -11   -1    0    0    0    0  0.00000000000E+00  0.00000000000E+00  0.45593999997E+02  0.45594000000E+02  0.51100000000E-03 0. -1.
         11   -1    0    0    0    0 -0.00000000000E+00 -0.00000000000E+00 -0.45593999997E+02  0.45594000000E+02  0.51100000000E-03 0.  1.
         23    2    1    2    0    0  0.00000000000E+00  0.00000000000E+00  0.00000000000E+00  0.91188000000E+02  0.91188000000E+02 0.  0.
    9900012    2    3    3    0    0 -0.10600444454E+02  0.24560363183E+02  0.34176636353E+02  0.47787270344E+02  0.19999996805E+02 0.  0.
        -12    1    3    3    0    0  0.10600444454E+02 -0.24560363183E+02 -0.34176636353E+02  0.43400729656E+02  0.00000000000E+00 0.  1.
         11    1    4    4    0    0 -0.39599280901E+01  0.16681420387E+02  0.28324320371E+02  0.33109182130E+02  0.51100000000E-03 0. -1.
        -11    1    4    4    0    0 -0.12994532562E+01  0.79956711668E+01  0.38964742115E+01  0.89889847989E+01  0.51100000000E-03 0.  1.
         12    1    4    4    0    0 -0.53410631077E+01 -0.11672837045E+00  0.19558417706E+01  0.56891034148E+01  0.00000000000E+00 0. -1.
</event>
<event>
 8    1  0.6469014E-010  0.9118800E+02  0.7816164E-02  0.1184000E+00
        -11   -1    0    0    0    0  0.00000000000E+00  0.00000000000E+00  0.45593999997E+02  0.45594000000E+02  0.51100000000E-03 0. -1.
         11   -1    0    0    0    0 -0.00000000000E+00 -0.00000000000E+00 -0.45593999997E+02  0.45594000000E+02  0.51100000000E-03 0.  1.
         23    2    1    2    0    0  0.00000000000E+00  0.88817841970E-15  0.00000000000E+00  0.91188000000E+02  0.91188000000E+02 0.  0.
    9900012    2    3    3    0    0 -0.21247929575E+01  0.71666729593E+01 -0.42752160315E+02  0.47787272379E+02  0.20000006083E+02 0.  0.
         12    1    3    3    0    0  0.21247929575E+01 -0.71666729593E+01  0.42752160315E+02  0.43400727621E+02  0.00000000000E+00 0. -1.
         11    1    4    4    0    0 -0.84348647457E+00  0.48118107646E+01 -0.20640706167E+01  0.53033366892E+01  0.51100000000E-03 0. -1.
        -11    1    4    4    0    0  0.49644666673E+01  0.24877084630E+00 -0.24614545895E+02  0.25111425410E+02  0.51100000000E-03 0.  1.
        -12    1    4    4    0    0 -0.62457731502E+01  0.21060913483E+01 -0.16073543804E+02  0.17372510280E+02  0.00000000000E+00 0.  1.
</event>
<event>
 8    1  0.6469014E-010  0.9118800E+02  0.7816164E-02  0.1184000E+00
        -11   -1    0    0    0    0  0.00000000000E+00  0.00000000000E+00  0.45593999997E+02  0.45594000000E+02  0.51100000000E-03 0.  1.
         11   -1    0    0    0    0 -0.00000000000E+00 -0.00000000000E+00 -0.45593999997E+02  0.45594000000E+02  0.51100000000E-03 0. -1.
         23    2    1    2    0    0 -0.35527136788E-14 -0.71054273576E-14  0.00000000000E+00  0.91188000000E+02  0.91188000000E+02 0.  0.
    9900012    2    3    3    0    0  0.25827909109E+02  0.34849759408E+02 -0.14270820354E+01  0.47787272093E+02  0.20000004780E+02 0.  0.
        -12    1    3    3    0    0 -0.25827909109E+02 -0.34849759408E+02  0.14270820354E+01  0.43400727907E+02  0.00000000000E+00 0.  1.
         11    1    4    4    0    0  0.49605560138E+01  0.11137475318E+02 -0.35996367728E+00  0.12197542643E+02  0.51100000000E-03 0. -1.
        -11    1    4    4    0    0  0.19543790033E+02  0.26240954583E+02 -0.93634133786E+00  0.32732616175E+02  0.51100000000E-03 0.  1.
        -12    1    4    4    0    0  0.13235630620E+01 -0.25286704923E+01 -0.13077702022E+00  0.28571132751E+01  0.00000000000E+00 0.  1.
</event>
<event>
 8    1  0.6469014E-010  0.9118800E+02  0.7816164E-02  0.1184000E+00
        -11   -1    0    0    0    0  0.00000000000E+00  0.00000000000E+00  0.45593999997E+02  0.45594000000E+02  0.51100000000E-03 0. -1.
         11   -1    0    0    0    0 -0.00000000000E+00 -0.00000000000E+00 -0.45593999997E+02  0.45594000000E+02  0.51100000000E-03 0.  1.
         23    2    1    2    0    0 -0.88817841970E-15  0.00000000000E+00 -0.71054273576E-14  0.91188000000E+02  0.91188000000E+02 0.  0.
    9900012    2    3    3    0    0 -0.54623205152E+01 -0.54406944669E+01 -0.42710482276E+02  0.47787269615E+02  0.19999993485E+02 0.  0.
         12    1    3    3    0    0  0.54623205152E+01  0.54406944669E+01  0.42710482276E+02  0.43400730385E+02  0.00000000000E+00 0. -1.
         11    1    4    4    0    0  0.36156536203E+01 -0.42343941157E+01 -0.30404832471E+02  0.30910465582E+02  0.51100000000E-03 0. -1.
        -11    1    4    4    0    0 -0.79608219722E+01 -0.35877049024E+01 -0.10636067597E+02  0.13761258922E+02  0.51100000000E-03 0.  1.
        -12    1    4    4    0    0 -0.11171521633E+01  0.23814045512E+01 -0.16695822077E+01  0.31155451114E+01  0.00000000000E+00 0.  1.
</event>
<event>
 8    1  0.6469014E-010  0.9118800E+02  0.7816164E-02  0.1184000E+00
        -11   -1    0    0    0    0  0.00000000000E+00  0.00000000000E+00  0.45593999997E+02  0.45594000000E+02  0.51100000000E-03 0. -1.
         11   -1    0    0    0    0 -0.00000000000E+00 -0.00000000000E+00 -0.45593999997E+02  0.45594000000E+02  0.51100000000E-03 0.  1.
         23    2    1    2    0    0  0.35527136788E-14  0.00000000000E+00  0.00000000000E+00  0.91188000000E+02  0.91188000000E+02 0.  0.
    9900012    2    3    3    0    0 -0.28293782234E+02 -0.25139299504E+02 -0.21239135224E+02  0.47787270079E+02  0.19999995596E+02 0.  0.
         12    1    3    3    0    0  0.28293782234E+02  0.25139299504E+02  0.21239135224E+02  0.43400729921E+02  0.00000000000E+00 0. -1.
         11    1    4    4    0    0 -0.25243790617E+02 -0.17111118738E+02 -0.19183095349E+02  0.36028190304E+02  0.51100000000E-03 0. -1.
        -11    1    4    4    0    0 -0.55024172256E+01 -0.41481373938E+01 -0.19748860985E+01  0.71682504508E+01  0.51100000000E-03 0.  1.
         12    1    4    4    0    0  0.24524256087E+01 -0.38800433727E+01 -0.81153775866E-01  0.45908293233E+01  0.00000000000E+00 0. -1.
</event>
<event>
 8    1  0.6469014E-010  0.9118800E+02  0.7816164E-02  0.1184000E+00
        -11   -1    0    0    0    0  0.00000000000E+00  0.00000000000E+00  0.45593999997E+02  0.45594000000E+02  0.51100000000E-03 0. -1.
         11   -1    0    0    0    0 -0.00000000000E+00 -0.00000000000E+00 -0.45593999997E+02  0.45594000000E+02  0.51100000000E-03 0.  1.
         23    2    1    2    0    0  0.17763568394E-14  0.00000000000E+00  0.00000000000E+00  0.91188000000E+02  0.91188000000E+02 0.  0.
    9900012    2    3    3    0    0 -0.11269586439E+02  0.11029684223E+02 -0.40434710347E+02  0.47787270589E+02  0.19999997923E+02 0.  0.
         12    1    3    3    0    0  0.11269586439E+02 -0.11029684223E+02  0.40434710347E+02  0.43400729411E+02  0.00000000000E+00 0. -1.
         11    1    4    4    0    0 -0.11417708476E+01 -0.40822533384E+01 -0.45257211432E+01  0.62008535796E+01  0.51100000000E-03 0. -1.
        -11    1    4    4    0    0 -0.76642683924E+01  0.11060128629E+02 -0.15020217213E+02  0.20166169211E+02  0.51100000000E-03 0.  1.
        -12    1    4    4    0    0 -0.24635471989E+01  0.40518089322E+01 -0.20888771991E+02  0.21420247798E+02  0.00000000000E+00 0.  1.
</event>
<event>
 8    1  0.6469014E-010  0.9118800E+02  0.7816164E-02  0.1184000E+00
        -11   -1    0    0    0    0  0.00000000000E+00  0.00000000000E+00  0.45593999997E+02  0.45594000000E+02  0.51100000000E-03 0. -1.
         11   -1    0    0    0    0 -0.00000000000E+00 -0.00000000000E+00 -0.45593999997E+02  0.45594000000E+02  0.51100000000E-03 0.  1.
         23    2    1    2    0    0  0.00000000000E+00  0.00000000000E+00  0.00000000000E+00  0.91188000000E+02  0.91188000000E+02 0.  0.
    9900012    2    3    3    0    0 -0.39690051857E+02  0.24830128463E+01  0.17382679634E+02  0.47787272812E+02  0.20000008059E+02 0.  0.
        -12    1    3    3    0    0  0.39690051857E+02 -0.24830128463E+01 -0.17382679634E+02  0.43400727188E+02  0.00000000000E+00 0.  1.
         11    1    4    4    0    0 -0.13753517829E+02 -0.14111131551E+01  0.11085825085E+02  0.17721343377E+02  0.51100000000E-03 0. -1.
        -11    1    4    4    0    0 -0.19381565449E+02  0.21825096116E+01 -0.17083887352E+01  0.19578738973E+02  0.51100000000E-03 0.  1.
        -12    1    4    4    0    0 -0.65549685787E+01  0.17116163897E+01  0.80052432846E+01  0.10487190462E+02  0.00000000000E+00 0.  1.
</event>
<event>
 8    1  0.6469015E-010  0.9118800E+02  0.7816164E-02  0.1184000E+00
        -11   -1    0    0    0    0  0.00000000000E+00  0.00000000000E+00  0.45593999997E+02  0.45594000000E+02  0.51100000000E-03 0. -1.
         11   -1    0    0    0    0 -0.00000000000E+00 -0.00000000000E+00 -0.45593999997E+02  0.45594000000E+02  0.51100000000E-03 0.  1.
         23    2    1    2    0    0  0.00000000000E+00  0.00000000000E+00 -0.71054273576E-14  0.91188000000E+02  0.91188000000E+02 0.  0.
    9900012    2    3    3    0    0  0.15103305761E+02  0.11730592783E+02 -0.38960318678E+02  0.47787273238E+02  0.20000010002E+02 0.  0.
         12    1    3    3    0    0 -0.15103305761E+02 -0.11730592783E+02  0.38960318678E+02  0.43400726762E+02  0.00000000000E+00 0. -1.
         11    1    4    4    0    0  0.36906625357E+01 -0.34740165364E+01 -0.22166103020E+01  0.55320106959E+01  0.51100000000E-03 0. -1.
        -11    1    4    4    0    0  0.14943385043E+01  0.90599769400E+01 -0.17021669614E+02  0.19340461898E+02  0.51100000000E-03 0.  1.
         12    1    4    4    0    0  0.99183047215E+01  0.61446323791E+01 -0.19722038762E+02  0.22914800644E+02  0.00000000000E+00 0. -1.
</event>
<event>
 8    1  0.6469014E-010  0.9118800E+02  0.7816164E-02  0.1184000E+00
        -11   -1    0    0    0    0  0.00000000000E+00  0.00000000000E+00  0.45593999997E+02  0.45594000000E+02  0.51100000000E-03 0. -1.
         11   -1    0    0    0    0 -0.00000000000E+00 -0.00000000000E+00 -0.45593999997E+02  0.45594000000E+02  0.51100000000E-03 0.  1.
         23    2    1    2    0    0  0.13322676296E-14  0.00000000000E+00  0.00000000000E+00  0.91188000000E+02  0.91188000000E+02 0.  0.
    9900012    2    3    3    0    0  0.20254683978E+01 -0.33491947110E+02  0.27528350242E+02  0.47787272927E+02  0.20000008582E+02 0.  0.
        -12    1    3    3    0    0 -0.20254683978E+01  0.33491947110E+02 -0.27528350242E+02  0.43400727073E+02  0.00000000000E+00 0.  1.
         11    1    4    4    0    0  0.63507650134E+01 -0.11569818379E+02  0.82044255400E+01  0.15540447622E+02  0.51100000000E-03 0. -1.
        -11    1    4    4    0    0 -0.62625011989E+01 -0.10008415903E+02  0.15701171274E+02  0.19644696225E+02  0.51100000000E-03 0.  1.
         12    1    4    4    0    0  0.19372045833E+01 -0.11913712828E+02  0.36227534281E+01  0.12602129080E+02  0.00000000000E+00 0. -1.
</event>
<event>
 8    1  0.6469014E-010  0.9118800E+02  0.7816164E-02  0.1184000E+00
        -11   -1    0    0    0    0  0.00000000000E+00  0.00000000000E+00  0.45593999997E+02  0.45594000000E+02  0.51100000000E-03 0. -1.
         11   -1    0    0    0    0 -0.00000000000E+00 -0.00000000000E+00 -0.45593999997E+02  0.45594000000E+02  0.51100000000E-03 0.  1.
         23    2    1    2    0    0  0.00000000000E+00  0.00000000000E+00  0.00000000000E+00  0.91188000000E+02  0.91188000000E+02 0.  0.
    9900012    2    3    3    0    0  0.23851219512E+02  0.17046186004E+02 -0.32002657614E+02  0.47787271620E+02  0.20000002626E+02 0.  0.
         12    1    3    3    0    0 -0.23851219512E+02 -0.17046186004E+02  0.32002657614E+02  0.43400728380E+02  0.00000000000E+00 0. -1.
         11    1    4    4    0    0  0.16222102359E+02  0.34555519147E+01 -0.12905363299E+02  0.21015371663E+02  0.51100000000E-03 0. -1.
        -11    1    4    4    0    0  0.13722540071E+01  0.12296311108E+02 -0.12679317927E+02  0.17715740213E+02  0.51100000000E-03 0.  1.
        -12    1    4    4    0    0  0.62568631456E+01  0.12943229813E+01 -0.64179763885E+01  0.90561597449E+01  0.00000000000E+00 0.  1.
</event>
<event>
 8    1  0.6469014E-010  0.9118800E+02  0.7816164E-02  0.1184000E+00
        -11   -1    0    0    0    0  0.00000000000E+00  0.00000000000E+00  0.45593999997E+02  0.45594000000E+02  0.51100000000E-03 0. -1.
         11   -1    0    0    0    0 -0.00000000000E+00 -0.00000000000E+00 -0.45593999997E+02  0.45594000000E+02  0.51100000000E-03 0.  1.
         23    2    1    2    0    0 -0.71054273576E-14  0.00000000000E+00 -0.88817841970E-15  0.91188000000E+02  0.91188000000E+02 0.  0.
    9900012    2    3    3    0    0 -0.35421308196E+02 -0.24063219489E+02 -0.70651524446E+01  0.47787262845E+02  0.19999962616E+02 0.  0.
         12    1    3    3    0    0  0.35421308196E+02  0.24063219489E+02  0.70651524446E+01  0.43400737155E+02  0.00000000000E+00 0. -1.
         11    1    4    4    0    0 -0.16258554240E+02 -0.67692553149E+01 -0.80641896336E+01  0.19369939551E+02  0.51100000000E-03 0. -1.
        -11    1    4    4    0    0 -0.53879973995E+01 -0.23280690938E+00 -0.29342412625E+01  0.61395836244E+01  0.51100000000E-03 0.  1.
         12    1    4    4    0    0 -0.13774756557E+02 -0.17061157265E+02  0.39332784515E+01  0.22277739670E+02  0.00000000000E+00 0. -1.
</event>
<event>
 8    1  0.6469014E-010  0.9118800E+02  0.7816164E-02  0.1184000E+00
        -11   -1    0    0    0    0  0.00000000000E+00  0.00000000000E+00  0.45593999997E+02  0.45594000000E+02  0.51100000000E-03 0. -1.
         11   -1    0    0    0    0 -0.00000000000E+00 -0.00000000000E+00 -0.45593999997E+02  0.45594000000E+02  0.51100000000E-03 0.  1.
         23    2    1    2    0    0  0.00000000000E+00  0.00000000000E+00  0.00000000000E+00  0.91188000000E+02  0.91188000000E+02 0.  0.
    9900012    2    3    3    0    0 -0.73387380526E+01 -0.25056314922E+02  0.34669108462E+02  0.47787273333E+02  0.20000010435E+02 0.  0.
        -12    1    3    3    0    0  0.73387380526E+01  0.25056314922E+02 -0.34669108462E+02  0.43400726667E+02  0.00000000000E+00 0.  1.
         11    1    4    4    0    0 -0.61535976068E+01 -0.16785618794E+02  0.14412596796E+02  0.22964030754E+02  0.51100000000E-03 0. -1.
        -11    1    4    4    0    0 -0.15021044386E+01  0.22342775230E+01  0.91265554348E+01  0.95153732538E+01  0.51100000000E-03 0.  1.
         12    1    4    4    0    0  0.31696399283E+00 -0.10504973651E+02  0.11129956231E+02  0.15307869325E+02  0.00000000000E+00 0. -1.
</event>
<event>
 8    1  0.6469014E-010  0.9118800E+02  0.7816164E-02  0.1184000E+00
        -11   -1    0    0    0    0  0.00000000000E+00  0.00000000000E+00  0.45593999997E+02  0.45594000000E+02  0.51100000000E-03 0. -1.
         11   -1    0    0    0    0 -0.00000000000E+00 -0.00000000000E+00 -0.45593999997E+02  0.45594000000E+02  0.51100000000E-03 0.  1.
         23    2    1    2    0    0  0.13322676296E-14 -0.53290705182E-14  0.00000000000E+00  0.91188000000E+02  0.91188000000E+02 0.  0.
    9900012    2    3    3    0    0  0.20190576483E+01  0.13987734900E+02 -0.41035235863E+02  0.47787263788E+02  0.19999966915E+02 0.  0.
         12    1    3    3    0    0 -0.20190576483E+01 -0.13987734900E+02  0.41035235863E+02  0.43400736212E+02  0.00000000000E+00 0. -1.
         11    1    4    4    0    0 -0.31110242487E+01  0.31843501807E+01 -0.87255577874E+01  0.97956070211E+01  0.51100000000E-03 0. -1.
        -11    1    4    4    0    0 -0.56956069611E+01  0.20139188710E+01 -0.96379586354E+01  0.11374799110E+02  0.51100000000E-03 0.  1.
        -12    1    4    4    0    0  0.10825688858E+02  0.87894658478E+01 -0.22671719440E+02  0.26616857657E+02  0.00000000000E+00 0.  1.
</event>
<event>
 8    1  0.6469014E-010  0.9118800E+02  0.7816164E-02  0.1184000E+00
        -11   -1    0    0    0    0  0.00000000000E+00  0.00000000000E+00  0.45593999997E+02  0.45594000000E+02  0.51100000000E-03 0.  1.
         11   -1    0    0    0    0 -0.00000000000E+00 -0.00000000000E+00 -0.45593999997E+02  0.45594000000E+02  0.51100000000E-03 0. -1.
         23    2    1    2    0    0  0.00000000000E+00 -0.88817841970E-15  0.00000000000E+00  0.91188000000E+02  0.91188000000E+02 0.  0.
    9900012    2    3    3    0    0 -0.41137392847E+02  0.78453925037E+01  0.11392412165E+02  0.47787281933E+02  0.20000049647E+02 0.  0.
        -12    1    3    3    0    0  0.41137392847E+02 -0.78453925037E+01 -0.11392412165E+02  0.43400718067E+02  0.00000000000E+00 0.  1.
         11    1    4    4    0    0 -0.22236487178E+02  0.12032485538E+02  0.19515005975E+01  0.25358438932E+02  0.51100000000E-03 0. -1.
        -11    1    4    4    0    0 -0.16392506898E+02 -0.45487860033E+01  0.57615234229E+01  0.17961093756E+02  0.51100000000E-03 0.  1.
         12    1    4    4    0    0 -0.25083987710E+01  0.36169296874E+00  0.36793881449E+01  0.44677492453E+01  0.00000000000E+00 0. -1.
</event>
<event>
 8    1  0.6469014E-010  0.9118800E+02  0.7816164E-02  0.1184000E+00
        -11   -1    0    0    0    0  0.00000000000E+00  0.00000000000E+00  0.45593999997E+02  0.45594000000E+02  0.51100000000E-03 0. -1.
         11   -1    0    0    0    0 -0.00000000000E+00 -0.00000000000E+00 -0.45593999997E+02  0.45594000000E+02  0.51100000000E-03 0.  1.
         23    2    1    2    0    0  0.00000000000E+00 -0.35527136788E-14  0.71054273576E-14  0.91188000000E+02  0.91188000000E+02 0.  0.
    9900012    2    3    3    0    0 -0.17626101820E+02 -0.13418565973E+02  0.37321383276E+02  0.47787273880E+02  0.20000012926E+02 0.  0.
        -12    1    3    3    0    0  0.17626101820E+02  0.13418565973E+02 -0.37321383276E+02  0.43400726120E+02  0.00000000000E+00 0.  1.
         11    1    4    4    0    0 -0.43074863564E+01 -0.60806858873E+01  0.23647623389E+02  0.24793936190E+02  0.51100000000E-03 0. -1.
        -11    1    4    4    0    0 -0.12544249823E+02 -0.26895964952E+01  0.12944241525E+02  0.18224859995E+02  0.51100000000E-03 0.  1.
        -12    1    4    4    0    0 -0.77436564012E+00 -0.46482835902E+01  0.72951836227E+00  0.47684776942E+01  0.00000000000E+00 0.  1.
</event>
<event>
 8    1  0.6469014E-010  0.9118800E+02  0.7816164E-02  0.1184000E+00
        -11   -1    0    0    0    0  0.00000000000E+00  0.00000000000E+00  0.45593999997E+02  0.45594000000E+02  0.51100000000E-03 0. -1.
         11   -1    0    0    0    0 -0.00000000000E+00 -0.00000000000E+00 -0.45593999997E+02  0.45594000000E+02  0.51100000000E-03 0.  1.
         23    2    1    2    0    0  0.00000000000E+00 -0.22204460493E-15  0.71054273576E-14  0.91188000000E+02  0.91188000000E+02 0.  0.
    9900012    2    3    3    0    0  0.46952940848E+01  0.18668307929E+00  0.43145595532E+02  0.47787273613E+02  0.20000011713E+02 0.  0.
        -12    1    3    3    0    0 -0.46952940848E+01 -0.18668307929E+00 -0.43145595532E+02  0.43400726387E+02  0.00000000000E+00 0.  1.
         11    1    4    4    0    0  0.10619401348E+02 -0.55048395850E+00  0.32420802164E+02  0.34120127942E+02  0.51100000000E-03 0. -1.
        -11    1    4    4    0    0 -0.25163923864E+01 -0.13301969660E+01  0.77688576418E+00  0.29504586698E+01  0.51100000000E-03 0.  1.
         12    1    4    4    0    0 -0.34077148763E+01  0.20673640038E+01  0.99479076034E+01  0.10716687001E+02  0.00000000000E+00 0. -1.
</event>
<event>
 8    1  0.6469014E-010  0.9118800E+02  0.7816164E-02  0.1184000E+00
        -11   -1    0    0    0    0  0.00000000000E+00  0.00000000000E+00  0.45593999997E+02  0.45594000000E+02  0.51100000000E-03 0. -1.
         11   -1    0    0    0    0 -0.00000000000E+00 -0.00000000000E+00 -0.45593999997E+02  0.45594000000E+02  0.51100000000E-03 0.  1.
         23    2    1    2    0    0  0.00000000000E+00  0.00000000000E+00  0.00000000000E+00  0.91188000000E+02  0.91188000000E+02 0.  0.
    9900012    2    3    3    0    0 -0.22719749066E+02 -0.62477369198E+01 -0.36447250186E+02  0.47787271200E+02  0.20000000709E+02 0.  0.
         12    1    3    3    0    0  0.22719749066E+02  0.62477369198E+01  0.36447250186E+02  0.43400728800E+02  0.00000000000E+00 0. -1.
         11    1    4    4    0    0  0.33110148609E+01 -0.32942115777E+01 -0.63896926645E+01  0.79147218483E+01  0.51100000000E-03 0. -1.
        -11    1    4    4    0    0 -0.15026504372E+02 -0.16190444545E+01 -0.17413416311E+02  0.23057411096E+02  0.51100000000E-03 0.  1.
         12    1    4    4    0    0 -0.11004259555E+02 -0.13344808876E+01 -0.12644141210E+02  0.16815138255E+02  0.00000000000E+00 0. -1.
</event>
<event>
 8    1  0.6469014E-010  0.9118800E+02  0.7816164E-02  0.1184000E+00
        -11   -1    0    0    0    0  0.00000000000E+00  0.00000000000E+00  0.45593999997E+02  0.45594000000E+02  0.51100000000E-03 0. -1.
         11   -1    0    0    0    0 -0.00000000000E+00 -0.00000000000E+00 -0.45593999997E+02  0.45594000000E+02  0.51100000000E-03 0.  1.
         23    2    1    2    0    0  0.00000000000E+00 -0.22204460493E-15 -0.71054273576E-14  0.91188000000E+02  0.91188000000E+02 0.  0.
    9900012    2    3    3    0    0 -0.12735433305E+02  0.13667774158E+01  0.41467624356E+02  0.47787271761E+02  0.20000003265E+02 0.  0.
        -12    1    3    3    0    0  0.12735433305E+02 -0.13667774158E+01 -0.41467624356E+02  0.43400728239E+02  0.00000000000E+00 0.  1.
         11    1    4    4    0    0  0.94096242070E+00 -0.55968836011E+01  0.19865353720E+02  0.20660174128E+02  0.51100000000E-03 0. -1.
        -11    1    4    4    0    0 -0.10309429338E+02  0.77964404945E+01  0.17479518609E+02  0.21739420156E+02  0.51100000000E-03 0.  1.
         12    1    4    4    0    0 -0.33669663881E+01 -0.83277947762E+00  0.41227520279E+01  0.53876774774E+01  0.00000000000E+00 0. -1.
</event>
<event>
 8    1  0.6469014E-010  0.9118800E+02  0.7816164E-02  0.1184000E+00
        -11   -1    0    0    0    0  0.00000000000E+00  0.00000000000E+00  0.45593999997E+02  0.45594000000E+02  0.51100000000E-03 0. -1.
         11   -1    0    0    0    0 -0.00000000000E+00 -0.00000000000E+00 -0.45593999997E+02  0.45594000000E+02  0.51100000000E-03 0.  1.
         23    2    1    2    0    0  0.00000000000E+00  0.00000000000E+00  0.00000000000E+00  0.91188000000E+02  0.91188000000E+02 0.  0.
    9900012    2    3    3    0    0  0.69164268059E+01  0.42684537079E+02  0.37170295445E+01  0.47787274499E+02  0.20000015750E+02 0.  0.
        -12    1    3    3    0    0 -0.69164268059E+01 -0.42684537079E+02 -0.37170295445E+01  0.43400725501E+02  0.00000000000E+00 0.  1.
         11    1    4    4    0    0  0.61331392515E+01  0.35109561037E+02  0.12701320046E+01  0.35663845963E+02  0.51100000000E-03 0. -1.
        -11    1    4    4    0    0  0.12925175352E+01  0.56160890039E+01 -0.28673274539E+01  0.64368178681E+01  0.51100000000E-03 0.  1.
         12    1    4    4    0    0 -0.50922998078E+00  0.19588870377E+01  0.53142249937E+01  0.56866106675E+01  0.00000000000E+00 0. -1.
</event>
<event>
 8    1  0.6469014E-010  0.9118800E+02  0.7816164E-02  0.1184000E+00
        -11   -1    0    0    0    0  0.00000000000E+00  0.00000000000E+00  0.45593999997E+02  0.45594000000E+02  0.51100000000E-03 0. -1.
         11   -1    0    0    0    0 -0.00000000000E+00 -0.00000000000E+00 -0.45593999997E+02  0.45594000000E+02  0.51100000000E-03 0.  1.
         23    2    1    2    0    0  0.00000000000E+00  0.00000000000E+00  0.00000000000E+00  0.91188000000E+02  0.91188000000E+02 0.  0.
    9900012    2    3    3    0    0  0.27268309514E+02 -0.16494192644E+02 -0.29461915242E+02  0.47787267927E+02  0.19999985787E+02 0.  0.
         12    1    3    3    0    0 -0.27268309514E+02  0.16494192644E+02  0.29461915242E+02  0.43400732073E+02  0.00000000000E+00 0. -1.
         11    1    4    4    0    0  0.16859890433E+02 -0.64417312064E+01 -0.44958340290E+01  0.18600116404E+02  0.51100000000E-03 0. -1.
        -11    1    4    4    0    0  0.21209281547E+01 -0.25138633447E+01 -0.26765733594E+01  0.42405059089E+01  0.51100000000E-03 0.  1.
         12    1    4    4    0    0  0.82874909256E+01 -0.75385980931E+01 -0.22289507854E+02  0.24946645615E+02  0.00000000000E+00 0. -1.
</event>
<event>
 8    1  0.6469014E-010  0.9118800E+02  0.7816164E-02  0.1184000E+00
        -11   -1    0    0    0    0  0.00000000000E+00  0.00000000000E+00  0.45593999997E+02  0.45594000000E+02  0.51100000000E-03 0. -1.
         11   -1    0    0    0    0 -0.00000000000E+00 -0.00000000000E+00 -0.45593999997E+02  0.45594000000E+02  0.51100000000E-03 0.  1.
         23    2    1    2    0    0  0.35527136788E-14 -0.17763568394E-14 -0.35527136788E-14  0.91188000000E+02  0.91188000000E+02 0.  0.
    9900012    2    3    3    0    0 -0.29613747015E+02  0.74507890014E+01  0.30840474928E+02  0.47787272324E+02  0.20000005834E+02 0.  0.
        -12    1    3    3    0    0  0.29613747015E+02 -0.74507890014E+01 -0.30840474928E+02  0.43400727676E+02  0.00000000000E+00 0.  1.
         11    1    4    4    0    0 -0.10917492766E+02  0.15044023037E+01  0.15020227806E+02  0.18629603275E+02  0.51100000000E-03 0. -1.
        -11    1    4    4    0    0 -0.69328409837E+01  0.34026465743E+01 -0.16943857901E+01  0.79065309259E+01  0.51100000000E-03 0.  1.
        -12    1    4    4    0    0 -0.11763413266E+02  0.25437401233E+01  0.17514632912E+02  0.21251138123E+02  0.00000000000E+00 0.  1.
</event>
<event>
 8    1  0.6469014E-010  0.9118800E+02  0.7816164E-02  0.1184000E+00
        -11   -1    0    0    0    0  0.00000000000E+00  0.00000000000E+00  0.45593999997E+02  0.45594000000E+02  0.51100000000E-03 0. -1.
         11   -1    0    0    0    0 -0.00000000000E+00 -0.00000000000E+00 -0.45593999997E+02  0.45594000000E+02  0.51100000000E-03 0.  1.
         23    2    1    2    0    0 -0.35527136788E-14  0.00000000000E+00  0.00000000000E+00  0.91188000000E+02  0.91188000000E+02 0.  0.
    9900012    2    3    3    0    0  0.26387166019E+02 -0.82165452991E+01 -0.33463843725E+02  0.47787274384E+02  0.20000015225E+02 0.  0.
         12    1    3    3    0    0 -0.26387166019E+02  0.82165452991E+01  0.33463843725E+02  0.43400725616E+02  0.00000000000E+00 0. -1.
         11    1    4    4    0    0  0.27489089899E+01 -0.48611465026E+01 -0.97872108487E+01  0.11268395734E+02  0.51100000000E-03 0. -1.
        -11    1    4    4    0    0  0.19675619616E+01  0.22864240813E+00 -0.10961401165E+02  0.11138935909E+02  0.51100000000E-03 0.  1.
        -12    1    4    4    0    0  0.21670695068E+02 -0.35840412046E+01 -0.12715231712E+02  0.25379942741E+02  0.00000000000E+00 0.  1.
</event>
<event>
 8    1  0.6469014E-010  0.9118800E+02  0.7816164E-02  0.1184000E+00
        -11   -1    0    0    0    0  0.00000000000E+00  0.00000000000E+00  0.45593999997E+02  0.45594000000E+02  0.51100000000E-03 0. -1.
         11   -1    0    0    0    0 -0.00000000000E+00 -0.00000000000E+00 -0.45593999997E+02  0.45594000000E+02  0.51100000000E-03 0.  1.
         23    2    1    2    0    0  0.17763568394E-14  0.00000000000E+00  0.00000000000E+00  0.91188000000E+02  0.91188000000E+02 0.  0.
    9900012    2    3    3    0    0 -0.13777381577E+02  0.32673660304E+02  0.25024765727E+02  0.47787271659E+02  0.20000002804E+02 0.  0.
        -12    1    3    3    0    0  0.13777381577E+02 -0.32673660304E+02 -0.25024765727E+02  0.43400728341E+02  0.00000000000E+00 0.  1.
         11    1    4    4    0    0  0.25707432630E+01  0.93815684587E+01  0.96709003318E+01  0.13716736535E+02  0.51100000000E-03 0. -1.
        -11    1    4    4    0    0 -0.62899364123E+00  0.59867067478E+01 -0.14411709283E+00  0.60213836186E+01  0.51100000000E-03 0.  1.
         12    1    4    4    0    0 -0.15719131199E+02  0.17305385098E+02  0.15497982488E+02  0.28049151506E+02  0.00000000000E+00 0. -1.
</event>
<event>
 8    1  0.6469014E-010  0.9118800E+02  0.7816164E-02  0.1184000E+00
        -11   -1    0    0    0    0  0.00000000000E+00  0.00000000000E+00  0.45593999997E+02  0.45594000000E+02  0.51100000000E-03 0. -1.
         11   -1    0    0    0    0 -0.00000000000E+00 -0.00000000000E+00 -0.45593999997E+02  0.45594000000E+02  0.51100000000E-03 0.  1.
         23    2    1    2    0    0 -0.17763568394E-14  0.00000000000E+00  0.44408920985E-15  0.91188000000E+02  0.91188000000E+02 0.  0.
    9900012    2    3    3    0    0 -0.14350194613E+02  0.40806806914E+02 -0.35354791304E+01  0.47787272026E+02  0.20000004476E+02 0.  0.
        -12    1    3    3    0    0  0.14350194613E+02 -0.40806806914E+02  0.35354791304E+01  0.43400727974E+02  0.00000000000E+00 0.  1.
         11    1    4    4    0    0 -0.10255870945E+02  0.28746310455E+02 -0.79008366540E+01  0.31527075248E+02  0.51100000000E-03 0. -1.
        -11    1    4    4    0    0 -0.37569655207E+01  0.13427650212E+02  0.48624750085E+01  0.14766863026E+02  0.51100000000E-03 0.  1.
        -12    1    4    4    0    0 -0.33735814741E+00 -0.13671537525E+01 -0.49711748487E+00  0.14933337525E+01  0.00000000000E+00 0.  1.
</event>
<event>
 8    1  0.6469014E-010  0.9118800E+02  0.7816164E-02  0.1184000E+00
        -11   -1    0    0    0    0  0.00000000000E+00  0.00000000000E+00  0.45593999997E+02  0.45594000000E+02  0.51100000000E-03 0. -1.
         11   -1    0    0    0    0 -0.00000000000E+00 -0.00000000000E+00 -0.45593999997E+02  0.45594000000E+02  0.51100000000E-03 0.  1.
         23    2    1    2    0    0  0.44408920985E-15  0.00000000000E+00 -0.71054273576E-14  0.91188000000E+02  0.91188000000E+02 0.  0.
    9900012    2    3    3    0    0 -0.24373466978E+01  0.52766403073E+01 -0.43009769538E+02  0.47787264204E+02  0.19999968814E+02 0.  0.
         12    1    3    3    0    0  0.24373466978E+01 -0.52766403073E+01  0.43009769538E+02  0.43400735796E+02  0.00000000000E+00 0. -1.
         11    1    4    4    0    0  0.16383287951E+01  0.55457431874E+01 -0.30787963268E+02  0.31326315953E+02  0.51100000000E-03 0. -1.
        -11    1    4    4    0    0  0.20207058634E+01 -0.34856254657E+01 -0.34451038900E+01  0.53010921655E+01  0.51100000000E-03 0.  1.
         12    1    4    4    0    0 -0.60963813563E+01  0.32165225857E+01 -0.87767023801E+01  0.11159856086E+02  0.00000000000E+00 0. -1.
</event>
<event>
 8    1  0.6469014E-010  0.9118800E+02  0.7816164E-02  0.1184000E+00
        -11   -1    0    0    0    0  0.00000000000E+00  0.00000000000E+00  0.45593999997E+02  0.45594000000E+02  0.51100000000E-03 0. -1.
         11   -1    0    0    0    0 -0.00000000000E+00 -0.00000000000E+00 -0.45593999997E+02  0.45594000000E+02  0.51100000000E-03 0.  1.
         23    2    1    2    0    0  0.71054273576E-14  0.17763568394E-14  0.35527136788E-14  0.91188000000E+02  0.91188000000E+02 0.  0.
    9900012    2    3    3    0    0  0.36553854758E+02  0.81702402127E+01  0.21924642171E+02  0.47787227459E+02  0.19999801277E+02 0.  0.
        -12    1    3    3    0    0 -0.36553854758E+02 -0.81702402127E+01 -0.21924642171E+02  0.43400772541E+02  0.00000000000E+00 0.  1.
         11    1    4    4    0    0  0.53436431575E+01 -0.23484949843E+01  0.11700161345E+02  0.13075309811E+02  0.51100000000E-03 0.  1.
        -11    1    4    4    0    0  0.18141713735E+02  0.72441342468E+01  0.77409132922E+01  0.21012401031E+02  0.51100000000E-03 0. -1.
        -12    1    4    4    0    0  0.13068497866E+02  0.32746009503E+01  0.24835675331E+01  0.13699516618E+02  0.00000000000E+00 0.  1.
</event>
<event>
 8    1  0.6469014E-010  0.9118800E+02  0.7816164E-02  0.1184000E+00
        -11   -1    0    0    0    0  0.00000000000E+00  0.00000000000E+00  0.45593999997E+02  0.45594000000E+02  0.51100000000E-03 0. -1.
         11   -1    0    0    0    0 -0.00000000000E+00 -0.00000000000E+00 -0.45593999997E+02  0.45594000000E+02  0.51100000000E-03 0.  1.
         23    2    1    2    0    0  0.00000000000E+00  0.17763568394E-14  0.00000000000E+00  0.91188000000E+02  0.91188000000E+02 0.  0.
    9900012    2    3    3    0    0 -0.36923411760E+02 -0.14347780299E+02  0.17732066569E+02  0.47787270510E+02  0.19999997562E+02 0.  0.
        -12    1    3    3    0    0  0.36923411760E+02  0.14347780299E+02 -0.17732066569E+02  0.43400729490E+02  0.00000000000E+00 0.  1.
         11    1    4    4    0    0 -0.16667824180E+02 -0.64222287742E+01  0.79718998004E+01  0.19560484964E+02  0.51100000000E-03 0. -1.
        -11    1    4    4    0    0 -0.10708967402E+02 -0.72984011815E+01 -0.19499084290E+01  0.13105372401E+02  0.51100000000E-03 0.  1.
        -12    1    4    4    0    0 -0.95466201772E+01 -0.62715034340E+00  0.11710075198E+02  0.15121413145E+02  0.00000000000E+00 0.  1.
</event>
<event>
 8    1  0.6469014E-010  0.9118800E+02  0.7816164E-02  0.1184000E+00
        -11   -1    0    0    0    0  0.00000000000E+00  0.00000000000E+00  0.45593999997E+02  0.45594000000E+02  0.51100000000E-03 0. -1.
         11   -1    0    0    0    0 -0.00000000000E+00 -0.00000000000E+00 -0.45593999997E+02  0.45594000000E+02  0.51100000000E-03 0.  1.
         23    2    1    2    0    0  0.00000000000E+00  0.00000000000E+00  0.00000000000E+00  0.91188000000E+02  0.91188000000E+02 0.  0.
    9900012    2    3    3    0    0 -0.11078708255E+02  0.84902881760E+01  0.41095017864E+02  0.47787271168E+02  0.20000000562E+02 0.  0.
        -12    1    3    3    0    0  0.11078708255E+02 -0.84902881760E+01 -0.41095017864E+02  0.43400728832E+02  0.00000000000E+00 0.  1.
         11    1    4    4    0    0 -0.83946250250E+01  0.12178637626E+02  0.29355299778E+02  0.32871303124E+02  0.51100000000E-03 0. -1.
        -11    1    4    4    0    0  0.16214841090E+01 -0.16428953349E+01  0.69023181908E-01  0.23093462836E+01  0.51100000000E-03 0.  1.
         12    1    4    4    0    0 -0.43055673389E+01 -0.20454541157E+01  0.11670694904E+02  0.12606621760E+02  0.00000000000E+00 0. -1.
</event>
<event>
 8    1  0.6469014E-010  0.9118800E+02  0.7816164E-02  0.1184000E+00
        -11   -1    0    0    0    0  0.00000000000E+00  0.00000000000E+00  0.45593999997E+02  0.45594000000E+02  0.51100000000E-03 0. -1.
         11   -1    0    0    0    0 -0.00000000000E+00 -0.00000000000E+00 -0.45593999997E+02  0.45594000000E+02  0.51100000000E-03 0.  1.
         23    2    1    2    0    0  0.00000000000E+00  0.00000000000E+00  0.00000000000E+00  0.91188000000E+02  0.91188000000E+02 0.  0.
    9900012    2    3    3    0    0 -0.32227220305E+02  0.95813082639E+01  0.27445005417E+02  0.47787268221E+02  0.19999987126E+02 0.  0.
        -12    1    3    3    0    0  0.32227220305E+02 -0.95813082639E+01 -0.27445005417E+02  0.43400731779E+02  0.00000000000E+00 0.  1.
         11    1    4    4    0    0 -0.13278150928E+02  0.10308617338E+02  0.14635280097E+02  0.22288299785E+02  0.51100000000E-03 0. -1.
        -11    1    4    4    0    0 -0.15169737084E+02 -0.52705366487E+01  0.10299643149E+02  0.19078315675E+02  0.51100000000E-03 0.  1.
        -12    1    4    4    0    0 -0.37793322935E+01  0.45432275741E+01  0.25100821704E+01  0.64206527609E+01  0.00000000000E+00 0.  1.
</event>
<event>
 8    1  0.6469014E-010  0.9118800E+02  0.7816164E-02  0.1184000E+00
        -11   -1    0    0    0    0  0.00000000000E+00  0.00000000000E+00  0.45593999997E+02  0.45594000000E+02  0.51100000000E-03 0. -1.
         11   -1    0    0    0    0 -0.00000000000E+00 -0.00000000000E+00 -0.45593999997E+02  0.45594000000E+02  0.51100000000E-03 0.  1.
         23    2    1    2    0    0  0.00000000000E+00  0.00000000000E+00  0.00000000000E+00  0.91188000000E+02  0.91188000000E+02 0.  0.
    9900012    2    3    3    0    0 -0.90769309356E+01  0.23753082183E+02 -0.35171351189E+02  0.47787268061E+02  0.19999986396E+02 0.  0.
         12    1    3    3    0    0  0.90769309356E+01 -0.23753082183E+02  0.35171351189E+02  0.43400731939E+02  0.00000000000E+00 0. -1.
         11    1    4    4    0    0 -0.29757726028E+01 -0.14302207327E+01 -0.79911061102E+00  0.33969592222E+01  0.51100000000E-03 0. -1.
        -11    1    4    4    0    0 -0.42591938782E+01  0.23052042553E+02 -0.34333454434E+02  0.41573110203E+02  0.51100000000E-03 0.  1.
         12    1    4    4    0    0 -0.18419644547E+01  0.21312603625E+01 -0.38786144384E-01  0.28171986352E+01  0.00000000000E+00 0. -1.
</event>
<event>
 8    1  0.6469014E-010  0.9118800E+02  0.7816164E-02  0.1184000E+00
        -11   -1    0    0    0    0  0.00000000000E+00  0.00000000000E+00  0.45593999997E+02  0.45594000000E+02  0.51100000000E-03 0. -1.
         11   -1    0    0    0    0 -0.00000000000E+00 -0.00000000000E+00 -0.45593999997E+02  0.45594000000E+02  0.51100000000E-03 0.  1.
         23    2    1    2    0    0  0.00000000000E+00 -0.35527136788E-14  0.35527136788E-14  0.91188000000E+02  0.91188000000E+02 0.  0.
    9900012    2    3    3    0    0 -0.51013832361E+01 -0.30784658012E+02 -0.30164609484E+02  0.47787274831E+02  0.20000017266E+02 0.  0.
         12    1    3    3    0    0  0.51013832361E+01  0.30784658012E+02  0.30164609484E+02  0.43400725169E+02  0.00000000000E+00 0. -1.
         11    1    4    4    0    0  0.39481347955E+01 -0.23025372311E+01 -0.80845460644E+01  0.92870518139E+01  0.51100000000E-03 0. -1.
        -11    1    4    4    0    0 -0.20011840057E+01 -0.11990442318E+02 -0.34411512102E+01  0.12633960833E+02  0.51100000000E-03 0.  1.
         12    1    4    4    0    0 -0.70483340259E+01 -0.16491678463E+02 -0.18638912209E+02  0.25866262185E+02  0.00000000000E+00 0. -1.
</event>
<event>
 8    1  0.6469014E-010  0.9118800E+02  0.7816164E-02  0.1184000E+00
        -11   -1    0    0    0    0  0.00000000000E+00  0.00000000000E+00  0.45593999997E+02  0.45594000000E+02  0.51100000000E-03 0. -1.
         11   -1    0    0    0    0 -0.00000000000E+00 -0.00000000000E+00 -0.45593999997E+02  0.45594000000E+02  0.51100000000E-03 0.  1.
         23    2    1    2    0    0 -0.71054273576E-14  0.35527136788E-14  0.00000000000E+00  0.91188000000E+02  0.91188000000E+02 0.  0.
    9900012    2    3    3    0    0  0.23343456106E+02 -0.26859918766E+02 -0.24844531366E+02  0.47787275146E+02  0.20000018700E+02 0.  0.
         12    1    3    3    0    0 -0.23343456106E+02  0.26859918766E+02  0.24844531366E+02  0.43400724854E+02  0.00000000000E+00 0. -1.
         11    1    4    4    0    0  0.37623450633E+01 -0.14657776276E+02 -0.22380713251E+01  0.15297536052E+02  0.51100000000E-03 0. -1.
        -11    1    4    4    0    0  0.11091892714E+02 -0.58115018282E+01 -0.10167180727E+02  0.16129947355E+02  0.51100000000E-03 0.  1.
         12    1    4    4    0    0  0.84892183283E+01 -0.63906406611E+01 -0.12439279315E+02  0.16359791739E+02  0.00000000000E+00 0. -1.
</event>
<event>
 8    1  0.6469014E-010  0.9118800E+02  0.7816164E-02  0.1184000E+00
        -11   -1    0    0    0    0  0.00000000000E+00  0.00000000000E+00  0.45593999997E+02  0.45594000000E+02  0.51100000000E-03 0. -1.
         11   -1    0    0    0    0 -0.00000000000E+00 -0.00000000000E+00 -0.45593999997E+02  0.45594000000E+02  0.51100000000E-03 0.  1.
         23    2    1    2    0    0  0.00000000000E+00  0.00000000000E+00 -0.71054273576E-14  0.91188000000E+02  0.91188000000E+02 0.  0.
    9900012    2    3    3    0    0  0.18069171862E+02 -0.71477051705E+01  0.38807712050E+02  0.47787272178E+02  0.20000005166E+02 0.  0.
        -12    1    3    3    0    0 -0.18069171862E+02  0.71477051705E+01 -0.38807712050E+02  0.43400727822E+02  0.00000000000E+00 0.  1.
         11    1    4    4    0    0 -0.23440127409E+01 -0.41578171215E+01  0.76710266801E+01  0.90347379338E+01  0.51100000000E-03 0. -1.
        -11    1    4    4    0    0 -0.21182922612E+00 -0.14100740852E+01  0.67885747120E-01  0.14275115700E+01  0.51100000000E-03 0.  1.
         12    1    4    4    0    0  0.20625013829E+02 -0.15798139638E+01  0.31068799623E+02  0.37325022674E+02  0.00000000000E+00 0. -1.
</event>
<event>
 8    1  0.6469014E-010  0.9118800E+02  0.7816164E-02  0.1184000E+00
        -11   -1    0    0    0    0  0.00000000000E+00  0.00000000000E+00  0.45593999997E+02  0.45594000000E+02  0.51100000000E-03 0. -1.
         11   -1    0    0    0    0 -0.00000000000E+00 -0.00000000000E+00 -0.45593999997E+02  0.45594000000E+02  0.51100000000E-03 0.  1.
         23    2    1    2    0    0 -0.35527136788E-14 -0.35527136788E-14 -0.35527136788E-14  0.91188000000E+02  0.91188000000E+02 0.  0.
    9900012    2    3    3    0    0  0.19804708281E+02  0.27927502162E+02  0.26673049971E+02  0.47787269109E+02  0.19999991174E+02 0.  0.
        -12    1    3    3    0    0 -0.19804708281E+02 -0.27927502162E+02 -0.26673049971E+02  0.43400730891E+02  0.00000000000E+00 0.  1.
         11    1    4    4    0    0  0.11338255128E+02  0.16347064888E+02  0.41302863523E+01  0.20318509429E+02  0.51100000000E-03 0. -1.
        -11    1    4    4    0    0  0.78456394742E+01  0.90855598478E+01  0.13488725297E+02  0.18056776205E+02  0.51100000000E-03 0.  1.
         12    1    4    4    0    0  0.62081367880E+00  0.24948774263E+01  0.90540383220E+01  0.94119834749E+01  0.00000000000E+00 0. -1.
</event>
<event>
 8    1  0.6469014E-010  0.9118800E+02  0.7816164E-02  0.1184000E+00
        -11   -1    0    0    0    0  0.00000000000E+00  0.00000000000E+00  0.45593999997E+02  0.45594000000E+02  0.51100000000E-03 0. -1.
         11   -1    0    0    0    0 -0.00000000000E+00 -0.00000000000E+00 -0.45593999997E+02  0.45594000000E+02  0.51100000000E-03 0.  1.
         23    2    1    2    0    0 -0.22204460493E-15 -0.35527136788E-14  0.00000000000E+00  0.91188000000E+02  0.91188000000E+02 0.  0.
    9900012    2    3    3    0    0 -0.11803124891E+01  0.31881996659E+02  0.29423956087E+02  0.47787262214E+02  0.19999959738E+02 0.  0.
        -12    1    3    3    0    0  0.11803124891E+01 -0.31881996659E+02 -0.29423956087E+02  0.43400737786E+02  0.00000000000E+00 0.  1.
         11    1    4    4    0    0 -0.25758530320E+01  0.11658045177E+02  0.10473070685E+02  0.15881758279E+02  0.51100000000E-03 0. -1.
        -11    1    4    4    0    0 -0.51175845786E+01  0.42476500332E+01  0.11123320732E+02  0.12959956292E+02  0.51100000000E-03 0.  1.
        -12    1    4    4    0    0  0.65131251215E+01  0.15976301449E+02  0.78275646703E+01  0.18945547643E+02  0.00000000000E+00 0.  1.
</event>
<event>
 8    1  0.6469014E-010  0.9118800E+02  0.7816164E-02  0.1184000E+00
        -11   -1    0    0    0    0  0.00000000000E+00  0.00000000000E+00  0.45593999997E+02  0.45594000000E+02  0.51100000000E-03 0. -1.
         11   -1    0    0    0    0 -0.00000000000E+00 -0.00000000000E+00 -0.45593999997E+02  0.45594000000E+02  0.51100000000E-03 0.  1.
         23    2    1    2    0    0  0.00000000000E+00 -0.71054273576E-14  0.35527136788E-14  0.91188000000E+02  0.91188000000E+02 0.  0.
    9900012    2    3    3    0    0 -0.12131799581E+02  0.32512597238E+02 -0.26064797699E+02  0.47787271673E+02  0.20000002865E+02 0.  0.
         12    1    3    3    0    0  0.12131799581E+02 -0.32512597238E+02  0.26064797699E+02  0.43400728327E+02  0.00000000000E+00 0. -1.
         11    1    4    4    0    0 -0.20021887112E+01  0.38560476188E+01 -0.67793619563E+01  0.80521805537E+01  0.51100000000E-03 0. -1.
        -11    1    4    4    0    0  0.70662238949E+00  0.42504809505E+01 -0.10939822265E+02  0.11757789544E+02  0.51100000000E-03 0.  1.
        -12    1    4    4    0    0 -0.10836233259E+02  0.24406068669E+02 -0.83456134782E+01  0.27977301575E+02  0.00000000000E+00 0.  1.
</event>
<event>
 8    1  0.6469014E-010  0.9118800E+02  0.7816164E-02  0.1184000E+00
        -11   -1    0    0    0    0  0.00000000000E+00  0.00000000000E+00  0.45593999997E+02  0.45594000000E+02  0.51100000000E-03 0. -1.
         11   -1    0    0    0    0 -0.00000000000E+00 -0.00000000000E+00 -0.45593999997E+02  0.45594000000E+02  0.51100000000E-03 0.  1.
         23    2    1    2    0    0  0.35527136788E-14  0.00000000000E+00  0.00000000000E+00  0.91188000000E+02  0.91188000000E+02 0.  0.
    9900012    2    3    3    0    0 -0.17476496126E+02 -0.20055920398E+02  0.34292196407E+02  0.47787278874E+02  0.20000035699E+02 0.  0.
        -12    1    3    3    0    0  0.17476496126E+02  0.20055920398E+02 -0.34292196407E+02  0.43400721126E+02  0.00000000000E+00 0.  1.
         11    1    4    4    0    0 -0.26893205572E+01 -0.21805637123E+01  0.69025603576E+01  0.77222174869E+01  0.51100000000E-03 0. -1.
        -11    1    4    4    0    0  0.26172190572E+01 -0.11114088778E+01  0.97248304888E+01  0.10131998499E+02  0.51100000000E-03 0.  1.
        -12    1    4    4    0    0 -0.17404394626E+02 -0.16763947808E+02  0.17664805560E+02  0.29933062888E+02  0.00000000000E+00 0.  1.
</event>
<event>
 8    1  0.6469014E-010  0.9118800E+02  0.7816164E-02  0.1184000E+00
        -11   -1    0    0    0    0  0.00000000000E+00  0.00000000000E+00  0.45593999997E+02  0.45594000000E+02  0.51100000000E-03 0. -1.
         11   -1    0    0    0    0 -0.00000000000E+00 -0.00000000000E+00 -0.45593999997E+02  0.45594000000E+02  0.51100000000E-03 0.  1.
         23    2    1    2    0    0  0.00000000000E+00 -0.22204460493E-15  0.00000000000E+00  0.91188000000E+02  0.91188000000E+02 0.  0.
    9900012    2    3    3    0    0  0.40223980703E+02 -0.18757512396E+01  0.16190628540E+02  0.47787268222E+02  0.19999987133E+02 0.  0.
        -12    1    3    3    0    0 -0.40223980703E+02  0.18757512396E+01 -0.16190628540E+02  0.43400731778E+02  0.00000000000E+00 0.  1.
         11    1    4    4    0    0 -0.18500297516E+00 -0.22989257828E+01  0.18926849802E+01  0.29835452990E+01  0.51100000000E-03 0. -1.
        -11    1    4    4    0    0  0.36202738582E+02  0.45080804837E+00  0.77572737468E+01  0.37027244091E+02  0.51100000000E-03 0.  1.
         12    1    4    4    0    0  0.42062450958E+01 -0.27633505082E-01  0.65406698135E+01  0.77764788321E+01  0.00000000000E+00 0. -1.
</event>
<event>
 8    1  0.6469014E-010  0.9118800E+02  0.7816164E-02  0.1184000E+00
        -11   -1    0    0    0    0  0.00000000000E+00  0.00000000000E+00  0.45593999997E+02  0.45594000000E+02  0.51100000000E-03 0. -1.
         11   -1    0    0    0    0 -0.00000000000E+00 -0.00000000000E+00 -0.45593999997E+02  0.45594000000E+02  0.51100000000E-03 0.  1.
         23    2    1    2    0    0  0.35527136788E-14  0.00000000000E+00 -0.71054273576E-14  0.91188000000E+02  0.91188000000E+02 0.  0.
    9900012    2    3    3    0    0 -0.22480634217E+02 -0.49658725396E+01  0.36791085956E+02  0.47787276380E+02  0.20000024329E+02 0.  0.
        -12    1    3    3    0    0  0.22480634217E+02  0.49658725396E+01 -0.36791085956E+02  0.43400723620E+02  0.00000000000E+00 0.  1.
         11    1    4    4    0    0 -0.15105841806E+01 -0.18236675182E+01  0.80008967194E+01  0.83439784491E+01  0.51100000000E-03 0. -1.
        -11    1    4    4    0    0 -0.20938026328E+02 -0.74299055744E+01  0.21108537971E+02  0.30645959259E+02  0.51100000000E-03 0.  1.
        -12    1    4    4    0    0 -0.32023708248E-01  0.42877005531E+01  0.76816512657E+01  0.87973386724E+01  0.00000000000E+00 0.  1.
</event>
<event>
 8    1  0.6469014E-010  0.9118800E+02  0.7816164E-02  0.1184000E+00
        -11   -1    0    0    0    0  0.00000000000E+00  0.00000000000E+00  0.45593999997E+02  0.45594000000E+02  0.51100000000E-03 0. -1.
         11   -1    0    0    0    0 -0.00000000000E+00 -0.00000000000E+00 -0.45593999997E+02  0.45594000000E+02  0.51100000000E-03 0.  1.
         23    2    1    2    0    0 -0.35527136788E-14  0.00000000000E+00 -0.35527136788E-14  0.91188000000E+02  0.91188000000E+02 0.  0.
    9900012    2    3    3    0    0 -0.31799792088E+02 -0.18241613536E+02 -0.23230139671E+02  0.47787278458E+02  0.20000033802E+02 0.  0.
         12    1    3    3    0    0  0.31799792088E+02  0.18241613536E+02  0.23230139671E+02  0.43400721542E+02  0.00000000000E+00 0. -1.
         11    1    4    4    0    0 -0.76960222683E+01 -0.24457200450E+01 -0.12763380500E+01  0.81755332776E+01  0.51100000000E-03 0. -1.
        -11    1    4    4    0    0  0.11160325485E+00  0.25731295130E+01 -0.18271967331E+01  0.31578630338E+01  0.51100000000E-03 0.  1.
        -12    1    4    4    0    0 -0.24215373074E+02 -0.18369023004E+02 -0.20126604887E+02  0.36453882147E+02  0.00000000000E+00 0.  1.
</event>
<event>
 8    1  0.6469014E-010  0.9118800E+02  0.7816164E-02  0.1184000E+00
        -11   -1    0    0    0    0  0.00000000000E+00  0.00000000000E+00  0.45593999997E+02  0.45594000000E+02  0.51100000000E-03 0. -1.
         11   -1    0    0    0    0 -0.00000000000E+00 -0.00000000000E+00 -0.45593999997E+02  0.45594000000E+02  0.51100000000E-03 0.  1.
         23    2    1    2    0    0  0.00000000000E+00  0.17763568394E-14  0.00000000000E+00  0.91188000000E+02  0.91188000000E+02 0.  0.
    9900012    2    3    3    0    0  0.24059043947E+02 -0.14898879548E+02 -0.32906066502E+02  0.47787269360E+02  0.19999992321E+02 0.  0.
         12    1    3    3    0    0 -0.24059043947E+02  0.14898879548E+02  0.32906066502E+02  0.43400730640E+02  0.00000000000E+00 0. -1.
         11    1    4    4    0    0  0.12835486568E+02  0.90966309201E+00 -0.63951285353E+01  0.14369233509E+02  0.51100000000E-03 0. -1.
        -11    1    4    4    0    0  0.79721841665E+00 -0.58815695643E+01 -0.83052868982E+01  0.10208144222E+02  0.51100000000E-03 0.  1.
         12    1    4    4    0    0  0.10426338962E+02 -0.99269730756E+01 -0.18205651068E+02  0.23209891629E+02  0.00000000000E+00 0. -1.
</event>
<event>
 8    1  0.6469014E-010  0.9118800E+02  0.7816164E-02  0.1184000E+00
        -11   -1    0    0    0    0  0.00000000000E+00  0.00000000000E+00  0.45593999997E+02  0.45594000000E+02  0.51100000000E-03 0. -1.
         11   -1    0    0    0    0 -0.00000000000E+00 -0.00000000000E+00 -0.45593999997E+02  0.45594000000E+02  0.51100000000E-03 0.  1.
         23    2    1    2    0    0 -0.88817841970E-15 -0.71054273576E-14  0.17763568394E-14  0.91188000000E+02  0.91188000000E+02 0.  0.
    9900012    2    3    3    0    0 -0.59161602155E+01 -0.40426762785E+02  0.14638966818E+02  0.47787269010E+02  0.19999990723E+02 0.  0.
        -12    1    3    3    0    0  0.59161602155E+01  0.40426762785E+02 -0.14638966818E+02  0.43400730990E+02  0.00000000000E+00 0.  1.
         11    1    4    4    0    0 -0.36897426784E+01 -0.71529863062E+01 -0.85127983337E-01  0.80490161613E+01  0.51100000000E-03 0.  1.
        -11    1    4    4    0    0 -0.71543342560E+01 -0.30004774406E+02  0.13635303131E+02  0.33725249852E+02  0.51100000000E-03 0. -1.
        -12    1    4    4    0    0  0.49279167189E+01 -0.32690020728E+01  0.10887916702E+01  0.60130029970E+01  0.00000000000E+00 0.  1.
</event>
<event>
 8    1  0.6469014E-010  0.9118800E+02  0.7816164E-02  0.1184000E+00
        -11   -1    0    0    0    0  0.00000000000E+00  0.00000000000E+00  0.45593999997E+02  0.45594000000E+02  0.51100000000E-03 0. -1.
         11   -1    0    0    0    0 -0.00000000000E+00 -0.00000000000E+00 -0.45593999997E+02  0.45594000000E+02  0.51100000000E-03 0.  1.
         23    2    1    2    0    0 -0.66613381478E-15  0.17763568394E-14  0.71054273576E-14  0.91188000000E+02  0.91188000000E+02 0.  0.
    9900012    2    3    3    0    0  0.54675946947E+00  0.10749182647E+02  0.42044961732E+02  0.47787277880E+02  0.20000031166E+02 0.  0.
        -12    1    3    3    0    0 -0.54675946947E+00 -0.10749182647E+02 -0.42044961732E+02  0.43400722120E+02  0.00000000000E+00 0.  1.
         11    1    4    4    0    0  0.81147105607E+01 -0.77913177723E+00  0.18333434969E+02  0.20064157391E+02  0.51100000000E-03 0.  1.
        -11    1    4    4    0    0 -0.51395490394E+01  0.99716449945E+01  0.20753822820E+02  0.23591732241E+02  0.51100000000E-03 0. -1.
        -12    1    4    4    0    0 -0.24284020518E+01  0.15566694300E+01  0.29577039435E+01  0.41313882481E+01  0.00000000000E+00 0.  1.
</event>
<event>
 8    1  0.6469014E-010  0.9118800E+02  0.7816164E-02  0.1184000E+00
        -11   -1    0    0    0    0  0.00000000000E+00  0.00000000000E+00  0.45593999997E+02  0.45594000000E+02  0.51100000000E-03 0. -1.
         11   -1    0    0    0    0 -0.00000000000E+00 -0.00000000000E+00 -0.45593999997E+02  0.45594000000E+02  0.51100000000E-03 0.  1.
         23    2    1    2    0    0 -0.11102230246E-15  0.00000000000E+00 -0.22204460493E-15  0.91188000000E+02  0.91188000000E+02 0.  0.
    9900012    2    3    3    0    0  0.95308853680E+00 -0.43360368021E+02  0.16104240800E+01  0.47787270071E+02  0.19999995561E+02 0.  0.
        -12    1    3    3    0    0 -0.95308853680E+00  0.43360368021E+02 -0.16104240800E+01  0.43400729929E+02  0.00000000000E+00 0.  1.
         11    1    4    4    0    0  0.61075777272E+01 -0.33301749148E+02 -0.23210469055E+01  0.33936650705E+02  0.51100000000E-03 0. -1.
        -11    1    4    4    0    0 -0.22024835999E+01 -0.80518606523E+01 -0.25175850805E+00  0.83514535609E+01  0.51100000000E-03 0.  1.
         12    1    4    4    0    0 -0.29520055905E+01 -0.20067582201E+01  0.41832294935E+01  0.54991658054E+01  0.00000000000E+00 0. -1.
</event>
<event>
 8    1  0.6469014E-010  0.9118800E+02  0.7816164E-02  0.1184000E+00
        -11   -1    0    0    0    0  0.00000000000E+00  0.00000000000E+00  0.45593999997E+02  0.45594000000E+02  0.51100000000E-03 0. -1.
         11   -1    0    0    0    0 -0.00000000000E+00 -0.00000000000E+00 -0.45593999997E+02  0.45594000000E+02  0.51100000000E-03 0.  1.
         23    2    1    2    0    0  0.00000000000E+00  0.00000000000E+00  0.00000000000E+00  0.91188000000E+02  0.91188000000E+02 0.  0.
    9900012    2    3    3    0    0  0.56603434061E+01 -0.39369266186E+02  0.17367918852E+02  0.47787271748E+02  0.20000003208E+02 0.  0.
        -12    1    3    3    0    0 -0.56603434061E+01  0.39369266186E+02 -0.17367918852E+02  0.43400728252E+02  0.00000000000E+00 0.  1.
         11    1    4    4    0    0  0.52807739809E+01 -0.19296140369E+02  0.97581240249E+01  0.22258674527E+02  0.51100000000E-03 0. -1.
        -11    1    4    4    0    0 -0.26478466375E+01  0.57291523888E+00  0.32145870084E+01  0.42039140789E+01  0.51100000000E-03 0.  1.
        -12    1    4    4    0    0  0.30274160627E+01 -0.20646041057E+02  0.43952078191E+01  0.21324683142E+02  0.00000000000E+00 0.  1.
</event>
<event>
 8    1  0.6469014E-010  0.9118800E+02  0.7816164E-02  0.1184000E+00
        -11   -1    0    0    0    0  0.00000000000E+00  0.00000000000E+00  0.45593999997E+02  0.45594000000E+02  0.51100000000E-03 0. -1.
         11   -1    0    0    0    0 -0.00000000000E+00 -0.00000000000E+00 -0.45593999997E+02  0.45594000000E+02  0.51100000000E-03 0.  1.
         23    2    1    2    0    0  0.00000000000E+00  0.00000000000E+00  0.71054273576E-14  0.91188000000E+02  0.91188000000E+02 0.  0.
    9900012    2    3    3    0    0  0.50544042562E+01 -0.15082764548E+02  0.40380523544E+02  0.47787268779E+02  0.19999989672E+02 0.  0.
        -12    1    3    3    0    0 -0.50544042562E+01  0.15082764548E+02 -0.40380523544E+02  0.43400731221E+02  0.00000000000E+00 0.  1.
         11    1    4    4    0    0  0.55679451925E+01 -0.14144617586E+02  0.16839397634E+02  0.22685623934E+02  0.51100000000E-03 0. -1.
        -11    1    4    4    0    0  0.36690669237E+01 -0.85598185814E+00  0.16383607094E+02  0.16811226568E+02  0.51100000000E-03 0.  1.
         12    1    4    4    0    0 -0.41826078600E+01 -0.82165103387E-01  0.71575188157E+01  0.82904182773E+01  0.00000000000E+00 0. -1.
</event>
<event>
 8    1  0.6469014E-010  0.9118800E+02  0.7816164E-02  0.1184000E+00
        -11   -1    0    0    0    0  0.00000000000E+00  0.00000000000E+00  0.45593999997E+02  0.45594000000E+02  0.51100000000E-03 0. -1.
         11   -1    0    0    0    0 -0.00000000000E+00 -0.00000000000E+00 -0.45593999997E+02  0.45594000000E+02  0.51100000000E-03 0.  1.
         23    2    1    2    0    0  0.35527136788E-14  0.00000000000E+00  0.00000000000E+00  0.91188000000E+02  0.91188000000E+02 0.  0.
    9900012    2    3    3    0    0  0.26163041802E+02  0.11402371920E+02 -0.32697163460E+02  0.47787270282E+02  0.19999996524E+02 0.  0.
         12    1    3    3    0    0 -0.26163041802E+02 -0.11402371920E+02  0.32697163460E+02  0.43400729718E+02  0.00000000000E+00 0. -1.
         11    1    4    4    0    0  0.20284406928E+01 -0.22929544994E+01 -0.22531462940E+01  0.38011683025E+01  0.51100000000E-03 0. -1.
        -11    1    4    4    0    0  0.11602178026E+02  0.70032273529E+01 -0.42768080279E+01  0.14210799255E+02  0.51100000000E-03 0.  1.
        -12    1    4    4    0    0  0.12532423083E+02  0.66920990663E+01 -0.26167209138E+02  0.29775302724E+02  0.00000000000E+00 0.  1.
</event>
<event>
 8    1  0.6469014E-010  0.9118800E+02  0.7816164E-02  0.1184000E+00
        -11   -1    0    0    0    0  0.00000000000E+00  0.00000000000E+00  0.45593999997E+02  0.45594000000E+02  0.51100000000E-03 0. -1.
         11   -1    0    0    0    0 -0.00000000000E+00 -0.00000000000E+00 -0.45593999997E+02  0.45594000000E+02  0.51100000000E-03 0.  1.
         23    2    1    2    0    0  0.00000000000E+00  0.00000000000E+00  0.00000000000E+00  0.91188000000E+02  0.91188000000E+02 0.  0.
    9900012    2    3    3    0    0 -0.81355165704E+01  0.31222162407E+01 -0.42516920204E+02  0.47787269963E+02  0.19999995070E+02 0.  0.
         12    1    3    3    0    0  0.81355165704E+01 -0.31222162407E+01  0.42516920204E+02  0.43400730037E+02  0.00000000000E+00 0. -1.
         11    1    4    4    0    0 -0.52241932833E+01  0.20660760705E+00 -0.12945027536E+01  0.53861507410E+01  0.51100000000E-03 0. -1.
        -11    1    4    4    0    0  0.30519392355E+00  0.22058064549E+01 -0.36897794516E+02  0.36964928863E+02  0.51100000000E-03 0.  1.
        -12    1    4    4    0    0 -0.32165172107E+01  0.70980217869E+00 -0.43246229340E+01  0.54361903592E+01  0.00000000000E+00 0.  1.
</event>
<event>
 8    1  0.6469014E-010  0.9118800E+02  0.7816164E-02  0.1184000E+00
        -11   -1    0    0    0    0  0.00000000000E+00  0.00000000000E+00  0.45593999997E+02  0.45594000000E+02  0.51100000000E-03 0. -1.
         11   -1    0    0    0    0 -0.00000000000E+00 -0.00000000000E+00 -0.45593999997E+02  0.45594000000E+02  0.51100000000E-03 0.  1.
         23    2    1    2    0    0  0.00000000000E+00  0.00000000000E+00  0.00000000000E+00  0.91188000000E+02  0.91188000000E+02 0.  0.
    9900012    2    3    3    0    0  0.92448830445E+01  0.71244932165E+01  0.41801883936E+02  0.47787265367E+02  0.19999974115E+02 0.  0.
        -12    1    3    3    0    0 -0.92448830445E+01 -0.71244932165E+01 -0.41801883936E+02  0.43400734633E+02  0.00000000000E+00 0.  1.
         11    1    4    4    0    0  0.48641762608E+01 -0.13233049924E+00  0.13680065494E+02  0.14519707788E+02  0.51100000000E-03 0. -1.
        -11    1    4    4    0    0  0.35531169623E+01  0.80684670827E+01  0.29884550871E+02  0.31157843029E+02  0.51100000000E-03 0.  1.
        -12    1    4    4    0    0  0.82758982137E+00 -0.81164336692E+00 -0.17627324291E+01  0.21097145504E+01  0.00000000000E+00 0.  1.
</event>
<event>
 8    1  0.7269173E-010  0.9118800E+02  0.7816164E-02  0.1184000E+00
        -11   -1    0    0    0    0  0.00000000000E+00  0.00000000000E+00  0.45593999997E+02  0.45594000000E+02  0.51100000000E-03 0. -1.
         11   -1    0    0    0    0 -0.00000000000E+00 -0.00000000000E+00 -0.45593999997E+02  0.45594000000E+02  0.51100000000E-03 0.  1.
         23    2    1    2    0    0 -0.44408920985E-15 -0.35527136788E-14  0.71054273576E-14  0.91188000000E+02  0.91188000000E+02 0.  0.
    9900012    2    3    3    0    0  0.22348784636E+01  0.23604843825E+02 -0.36351616614E+02  0.47787270004E+02  0.19999995255E+02 0.  0.
         12    1    3    3    0    0 -0.22348784636E+01 -0.23604843825E+02  0.36351616614E+02  0.43400729996E+02  0.00000000000E+00 0. -1.
         11    1    4    4    0    0 -0.36737478791E+00  0.23451897642E+01  0.21851378980E+01  0.32264077795E+01  0.51100000000E-03 0. -1.
        -11    1    4    4    0    0  0.35431225620E+01  0.73386696156E+01 -0.17675455591E+02  0.19463594731E+02  0.51100000000E-03 0.  1.
         12    1    4    4    0    0 -0.94086931055E+00  0.13920984446E+02 -0.20861298920E+02  0.25097267494E+02  0.00000000000E+00 0. -1.
</event>
<event>
 8    1  0.6469014E-010  0.9118800E+02  0.7816164E-02  0.1184000E+00
        -11   -1    0    0    0    0  0.00000000000E+00  0.00000000000E+00  0.45593999997E+02  0.45594000000E+02  0.51100000000E-03 0. -1.
         11   -1    0    0    0    0 -0.00000000000E+00 -0.00000000000E+00 -0.45593999997E+02  0.45594000000E+02  0.51100000000E-03 0.  1.
         23    2    1    2    0    0  0.00000000000E+00  0.00000000000E+00  0.00000000000E+00  0.91188000000E+02  0.91188000000E+02 0.  0.
    9900012    2    3    3    0    0 -0.18979320928E+02 -0.39019310118E+02  0.94976730026E+00  0.47787271402E+02  0.20000001628E+02 0.  0.
        -12    1    3    3    0    0  0.18979320928E+02  0.39019310118E+02 -0.94976730026E+00  0.43400728598E+02  0.00000000000E+00 0.  1.
         11    1    4    4    0    0 -0.20997292205E+02 -0.36092868945E+02  0.32497095306E+00  0.41757479270E+02  0.51100000000E-03 0. -1.
        -11    1    4    4    0    0 -0.29124093306E+00 -0.27382263956E+01 -0.12741329912E+01  0.30341588975E+01  0.51100000000E-03 0.  1.
         12    1    4    4    0    0  0.23092122110E+01 -0.18821477733E+00  0.18989293384E+01  0.29956332336E+01  0.00000000000E+00 0. -1.
</event>
<event>
 8    1  0.6469014E-010  0.9118800E+02  0.7816164E-02  0.1184000E+00
        -11   -1    0    0    0    0  0.00000000000E+00  0.00000000000E+00  0.45593999997E+02  0.45594000000E+02  0.51100000000E-03 0. -1.
         11   -1    0    0    0    0 -0.00000000000E+00 -0.00000000000E+00 -0.45593999997E+02  0.45594000000E+02  0.51100000000E-03 0.  1.
         23    2    1    2    0    0  0.00000000000E+00  0.00000000000E+00  0.00000000000E+00  0.91188000000E+02  0.91188000000E+02 0.  0.
    9900012    2    3    3    0    0  0.22442145345E+02 -0.17530097727E+02 -0.32751614517E+02  0.47787280335E+02  0.20000042358E+02 0.  0.
         12    1    3    3    0    0 -0.22442145345E+02  0.17530097727E+02  0.32751614517E+02  0.43400719665E+02  0.00000000000E+00 0. -1.
         11    1    4    4    0    0  0.52440695486E+00 -0.46071126484E-01 -0.32890101209E+01  0.33308727144E+01  0.51100000000E-03 0. -1.
        -11    1    4    4    0    0  0.19662348163E+01 -0.12454523128E+02 -0.12947095332E+02  0.18072313175E+02  0.51100000000E-03 0.  1.
        -12    1    4    4    0    0  0.19951503574E+02 -0.50295034721E+01 -0.16515509064E+02  0.26384094445E+02  0.00000000000E+00 0.  1.
</event>
<event>
 8    1  0.6469014E-010  0.9118800E+02  0.7816164E-02  0.1184000E+00
        -11   -1    0    0    0    0  0.00000000000E+00  0.00000000000E+00  0.45593999997E+02  0.45594000000E+02  0.51100000000E-03 0. -1.
         11   -1    0    0    0    0 -0.00000000000E+00 -0.00000000000E+00 -0.45593999997E+02  0.45594000000E+02  0.51100000000E-03 0.  1.
         23    2    1    2    0    0 -0.17763568394E-14  0.17763568394E-14  0.00000000000E+00  0.91188000000E+02  0.91188000000E+02 0.  0.
    9900012    2    3    3    0    0  0.12350460864E+02  0.13059336736E+02  0.39503711012E+02  0.47787270245E+02  0.19999996355E+02 0.  0.
        -12    1    3    3    0    0 -0.12350460864E+02 -0.13059336736E+02 -0.39503711012E+02  0.43400729755E+02  0.00000000000E+00 0.  1.
         11    1    4    4    0    0 -0.28475820067E+00  0.67266435282E+01  0.22210175468E+02  0.23208203613E+02  0.51100000000E-03 0. -1.
        -11    1    4    4    0    0  0.13576374650E+02  0.42374033126E+01  0.17146719518E+02  0.22277421888E+02  0.51100000000E-03 0.  1.
         12    1    4    4    0    0 -0.94115558535E+00  0.20952898954E+01  0.14681602602E+00  0.23016447439E+01  0.00000000000E+00 0. -1.
</event>
<event>
 8    1  0.6469014E-010  0.9118800E+02  0.7816164E-02  0.1184000E+00
        -11   -1    0    0    0    0  0.00000000000E+00  0.00000000000E+00  0.45593999997E+02  0.45594000000E+02  0.51100000000E-03 0. -1.
         11   -1    0    0    0    0 -0.00000000000E+00 -0.00000000000E+00 -0.45593999997E+02  0.45594000000E+02  0.51100000000E-03 0.  1.
         23    2    1    2    0    0 -0.11102230246E-15  0.00000000000E+00  0.00000000000E+00  0.91188000000E+02  0.91188000000E+02 0.  0.
    9900012    2    3    3    0    0  0.41337407975E+00 -0.45298662756E+01 -0.43161708097E+02  0.47787267144E+02  0.19999982216E+02 0.  0.
         12    1    3    3    0    0 -0.41337407975E+00  0.45298662756E+01  0.43161708097E+02  0.43400732856E+02  0.00000000000E+00 0. -1.
         11    1    4    4    0    0  0.68613013332E+01 -0.15922292348E+01 -0.79082627839E+01  0.10590244116E+02  0.51100000000E-03 0. -1.
        -11    1    4    4    0    0 -0.63398673532E+01  0.21405919904E+01 -0.22336314237E+02  0.23317096433E+02  0.51100000000E-03 0.  1.
        -12    1    4    4    0    0 -0.10805990020E+00 -0.50782290312E+01 -0.12917131076E+02  0.13879926594E+02  0.00000000000E+00 0.  1.
</event>
<event>
 8    1  0.6469014E-010  0.9118800E+02  0.7816164E-02  0.1184000E+00
        -11   -1    0    0    0    0  0.00000000000E+00  0.00000000000E+00  0.45593999997E+02  0.45594000000E+02  0.51100000000E-03 0. -1.
         11   -1    0    0    0    0 -0.00000000000E+00 -0.00000000000E+00 -0.45593999997E+02  0.45594000000E+02  0.51100000000E-03 0.  1.
         23    2    1    2    0    0  0.17763568394E-14  0.00000000000E+00 -0.35527136788E-14  0.91188000000E+02  0.91188000000E+02 0.  0.
    9900012    2    3    3    0    0 -0.15403140505E+02  0.27229541744E+02  0.30081862779E+02  0.47787272480E+02  0.20000006546E+02 0.  0.
        -12    1    3    3    0    0  0.15403140505E+02 -0.27229541744E+02 -0.30081862779E+02  0.43400727520E+02  0.00000000000E+00 0.  1.
         11    1    4    4    0    0 -0.13889298622E+02  0.28270981003E+02  0.32119923212E+02  0.44987225414E+02  0.51100000000E-03 0. -1.
        -11    1    4    4    0    0 -0.10926340772E+01 -0.94266084991E+00 -0.17972748555E+01  0.23049199275E+01  0.51100000000E-03 0.  1.
         12    1    4    4    0    0 -0.42120780542E+00 -0.98778408923E-01 -0.24078557683E+00  0.49512713864E+00  0.00000000000E+00 0. -1.
</event>
<event>
 8    1  0.6469014E-010  0.9118800E+02  0.7816164E-02  0.1184000E+00
        -11   -1    0    0    0    0  0.00000000000E+00  0.00000000000E+00  0.45593999997E+02  0.45594000000E+02  0.51100000000E-03 0.  1.
         11   -1    0    0    0    0 -0.00000000000E+00 -0.00000000000E+00 -0.45593999997E+02  0.45594000000E+02  0.51100000000E-03 0. -1.
         23    2    1    2    0    0  0.71054273576E-14 -0.35527136788E-14  0.00000000000E+00  0.91188000000E+02  0.91188000000E+02 0.  0.
    9900012    2    3    3    0    0  0.32702180490E+02 -0.18372597584E+02  0.21832039935E+02  0.47787275138E+02  0.20000018666E+02 0.  0.
        -12    1    3    3    0    0 -0.32702180490E+02  0.18372597584E+02 -0.21832039935E+02  0.43400724862E+02  0.00000000000E+00 0.  1.
         11    1    4    4    0    0  0.12165368475E+02 -0.46282349436E+01  0.12620049442E+02  0.18129600023E+02  0.51100000000E-03 0.  1.
        -11    1    4    4    0    0  0.16017323224E+02 -0.15897858926E+02  0.49992323405E+01  0.23114689830E+02  0.51100000000E-03 0. -1.
        -12    1    4    4    0    0  0.45194887907E+01  0.21534962858E+01  0.42127581527E+01  0.65429852846E+01  0.00000000000E+00 0.  1.
</event>
<event>
 8    1  0.6469014E-010  0.9118800E+02  0.7816164E-02  0.1184000E+00
        -11   -1    0    0    0    0  0.00000000000E+00  0.00000000000E+00  0.45593999997E+02  0.45594000000E+02  0.51100000000E-03 0. -1.
         11   -1    0    0    0    0 -0.00000000000E+00 -0.00000000000E+00 -0.45593999997E+02  0.45594000000E+02  0.51100000000E-03 0.  1.
         23    2    1    2    0    0  0.00000000000E+00 -0.17763568394E-14 -0.35527136788E-14  0.91188000000E+02  0.91188000000E+02 0.  0.
    9900012    2    3    3    0    0  0.27102347114E+02 -0.12852312211E+02 -0.31367248066E+02  0.47787269598E+02  0.19999993403E+02 0.  0.
         12    1    3    3    0    0 -0.27102347114E+02  0.12852312211E+02  0.31367248066E+02  0.43400730402E+02  0.00000000000E+00 0. -1.
         11    1    4    4    0    0  0.78718034217E+01 -0.10795107427E+02 -0.21905901453E+02  0.25658685707E+02  0.51100000000E-03 0. -1.
        -11    1    4    4    0    0  0.12644917131E+02 -0.32822120443E+01 -0.45932575276E+01  0.13847918982E+02  0.51100000000E-03 0.  1.
        -12    1    4    4    0    0  0.65856265610E+01  0.12250072607E+01 -0.48680890850E+01  0.82806649087E+01  0.00000000000E+00 0.  1.
</event>
<event>
 8    1  0.6469014E-010  0.9118800E+02  0.7816164E-02  0.1184000E+00
        -11   -1    0    0    0    0  0.00000000000E+00  0.00000000000E+00  0.45593999997E+02  0.45594000000E+02  0.51100000000E-03 0. -1.
         11   -1    0    0    0    0 -0.00000000000E+00 -0.00000000000E+00 -0.45593999997E+02  0.45594000000E+02  0.51100000000E-03 0.  1.
         23    2    1    2    0    0 -0.35527136788E-14 -0.88817841970E-15  0.00000000000E+00  0.91188000000E+02  0.91188000000E+02 0.  0.
    9900012    2    3    3    0    0  0.26366617050E+02 -0.72816537217E+01  0.33695723734E+02  0.47787276809E+02  0.20000026282E+02 0.  0.
        -12    1    3    3    0    0 -0.26366617050E+02  0.72816537217E+01 -0.33695723734E+02  0.43400723191E+02  0.00000000000E+00 0.  1.
         11    1    4    4    0    0  0.12031580692E+02 -0.14879741391E+01  0.33731411355E+01  0.12583762647E+02  0.51100000000E-03 0. -1.
        -11    1    4    4    0    0  0.83140150476E+01 -0.78387486026E+01  0.21200776364E+02  0.24084055817E+02  0.51100000000E-03 0.  1.
        -12    1    4    4    0    0  0.60210213106E+01  0.20450690200E+01  0.91218062340E+01  0.11119458345E+02  0.00000000000E+00 0.  1.
</event>
<event>
 8    1  0.6469014E-010  0.9118800E+02  0.7816164E-02  0.1184000E+00
        -11   -1    0    0    0    0  0.00000000000E+00  0.00000000000E+00  0.45593999997E+02  0.45594000000E+02  0.51100000000E-03 0. -1.
         11   -1    0    0    0    0 -0.00000000000E+00 -0.00000000000E+00 -0.45593999997E+02  0.45594000000E+02  0.51100000000E-03 0.  1.
         23    2    1    2    0    0  0.00000000000E+00  0.71054273576E-14  0.00000000000E+00  0.91188000000E+02  0.91188000000E+02 0.  0.
    9900012    2    3    3    0    0 -0.80611726089E+01  0.32869230981E+02  0.27170839821E+02  0.47787269757E+02  0.19999994129E+02 0.  0.
        -12    1    3    3    0    0  0.80611726089E+01 -0.32869230981E+02 -0.27170839821E+02  0.43400730243E+02  0.00000000000E+00 0.  1.
         11    1    4    4    0    0  0.17063115895E+01  0.53527706920E+01  0.13160868885E+02  0.14309861055E+02  0.51100000000E-03 0. -1.
        -11    1    4    4    0    0 -0.76098989205E+00  0.19324725211E+01 -0.11818708080E+01  0.23896389954E+01  0.51100000000E-03 0.  1.
         12    1    4    4    0    0 -0.90064943063E+01  0.25583987768E+02  0.15191841743E+02  0.31087769707E+02  0.00000000000E+00 0. -1.
</event>
<event>
 8    1  0.6469014E-010  0.9118800E+02  0.7816164E-02  0.1184000E+00
        -11   -1    0    0    0    0  0.00000000000E+00  0.00000000000E+00  0.45593999997E+02  0.45594000000E+02  0.51100000000E-03 0. -1.
         11   -1    0    0    0    0 -0.00000000000E+00 -0.00000000000E+00 -0.45593999997E+02  0.45594000000E+02  0.51100000000E-03 0.  1.
         23    2    1    2    0    0  0.00000000000E+00  0.17763568394E-14  0.17763568394E-14  0.91188000000E+02  0.91188000000E+02 0.  0.
    9900012    2    3    3    0    0 -0.39754882828E+02  0.13676313610E+02  0.10776406960E+02  0.47787271785E+02  0.20000003375E+02 0.  0.
        -12    1    3    3    0    0  0.39754882828E+02 -0.13676313610E+02 -0.10776406960E+02  0.43400728215E+02  0.00000000000E+00 0.  1.
         11    1    4    4    0    0 -0.19248349944E+02  0.15758923950E+02  0.65191384064E+01  0.25716567139E+02  0.51100000000E-03 0. -1.
        -11    1    4    4    0    0 -0.19146594529E+02 -0.16487088400E+00  0.46072502690E+01  0.19693806635E+02  0.51100000000E-03 0.  1.
        -12    1    4    4    0    0 -0.13599383560E+01 -0.19177394558E+01 -0.34998171519E+00  0.23768980107E+01  0.00000000000E+00 0.  1.
</event>
<event>
 8    1  0.6469014E-010  0.9118800E+02  0.7816164E-02  0.1184000E+00
        -11   -1    0    0    0    0  0.00000000000E+00  0.00000000000E+00  0.45593999997E+02  0.45594000000E+02  0.51100000000E-03 0. -1.
         11   -1    0    0    0    0 -0.00000000000E+00 -0.00000000000E+00 -0.45593999997E+02  0.45594000000E+02  0.51100000000E-03 0.  1.
         23    2    1    2    0    0  0.00000000000E+00 -0.22204460493E-15  0.00000000000E+00  0.91188000000E+02  0.91188000000E+02 0.  0.
    9900012    2    3    3    0    0  0.33083156266E+02 -0.29876768602E+00 -0.28089827330E+02  0.47787275466E+02  0.20000020161E+02 0.  0.
         12    1    3    3    0    0 -0.33083156266E+02  0.29876768602E+00  0.28089827330E+02  0.43400724534E+02  0.00000000000E+00 0. -1.
         11    1    4    4    0    0 -0.32790770479E+00  0.34276480293E+01 -0.11276474473E+01  0.36232421258E+01  0.51100000000E-03 0. -1.
        -11    1    4    4    0    0  0.15625587640E+02  0.30353854437E+01 -0.11322174448E+02  0.19533668073E+02  0.51100000000E-03 0.  1.
         12    1    4    4    0    0  0.17785476330E+02 -0.67618011590E+01 -0.15640005434E+02  0.24630365267E+02  0.00000000000E+00 0. -1.
</event>
<event>
 8    1  0.6469014E-010  0.9118800E+02  0.7816164E-02  0.1184000E+00
        -11   -1    0    0    0    0  0.00000000000E+00  0.00000000000E+00  0.45593999997E+02  0.45594000000E+02  0.51100000000E-03 0. -1.
         11   -1    0    0    0    0 -0.00000000000E+00 -0.00000000000E+00 -0.45593999997E+02  0.45594000000E+02  0.51100000000E-03 0.  1.
         23    2    1    2    0    0  0.00000000000E+00 -0.17763568394E-14  0.00000000000E+00  0.91188000000E+02  0.91188000000E+02 0.  0.
    9900012    2    3    3    0    0  0.94564461457E+01 -0.12082576386E+02 -0.40598160318E+02  0.47787266745E+02  0.19999980399E+02 0.  0.
         12    1    3    3    0    0 -0.94564461457E+01  0.12082576386E+02  0.40598160318E+02  0.43400733255E+02  0.00000000000E+00 0. -1.
         11    1    4    4    0    0  0.56769433236E+00  0.10546540390E+01 -0.19897052474E+01  0.23223908434E+01  0.51100000000E-03 0. -1.
        -11    1    4    4    0    0  0.10168116828E+02 -0.16483467602E+02 -0.36467734958E+02  0.41291536629E+02  0.51100000000E-03 0.  1.
        -12    1    4    4    0    0 -0.12793650147E+01  0.33462371766E+01 -0.21407201129E+01  0.41733392727E+01  0.00000000000E+00 0.  1.
</event>
<event>
 8    1  0.6469014E-010  0.9118800E+02  0.7816164E-02  0.1184000E+00
        -11   -1    0    0    0    0  0.00000000000E+00  0.00000000000E+00  0.45593999997E+02  0.45594000000E+02  0.51100000000E-03 0. -1.
         11   -1    0    0    0    0 -0.00000000000E+00 -0.00000000000E+00 -0.45593999997E+02  0.45594000000E+02  0.51100000000E-03 0.  1.
         23    2    1    2    0    0  0.00000000000E+00  0.00000000000E+00  0.71054273576E-14  0.91188000000E+02  0.91188000000E+02 0.  0.
    9900012    2    3    3    0    0 -0.17961280109E+02 -0.11574015879E+02  0.37776421391E+02  0.47787269133E+02  0.19999991283E+02 0.  0.
        -12    1    3    3    0    0  0.17961280109E+02  0.11574015879E+02 -0.37776421391E+02  0.43400730867E+02  0.00000000000E+00 0.  1.
         11    1    4    4    0    0 -0.11628859215E+02 -0.24709479291E+01  0.83820220339E+01  0.14546279385E+02  0.51100000000E-03 0. -1.
        -11    1    4    4    0    0  0.12879288746E+01  0.16435312204E+00  0.12230950820E+02  0.12299671986E+02  0.51100000000E-03 0.  1.
         12    1    4    4    0    0 -0.76203497694E+01 -0.92674210719E+01  0.17163448537E+02  0.20941317762E+02  0.00000000000E+00 0. -1.
</event>
<event>
 8    1  0.6469014E-010  0.9118800E+02  0.7816164E-02  0.1184000E+00
        -11   -1    0    0    0    0  0.00000000000E+00  0.00000000000E+00  0.45593999997E+02  0.45594000000E+02  0.51100000000E-03 0. -1.
         11   -1    0    0    0    0 -0.00000000000E+00 -0.00000000000E+00 -0.45593999997E+02  0.45594000000E+02  0.51100000000E-03 0.  1.
         23    2    1    2    0    0  0.00000000000E+00  0.35527136788E-14 -0.71054273576E-14  0.91188000000E+02  0.91188000000E+02 0.  0.
    9900012    2    3    3    0    0 -0.57655736069E+01  0.21933269373E+02 -0.37004234082E+02  0.47787268619E+02  0.19999988941E+02 0.  0.
         12    1    3    3    0    0  0.57655736069E+01 -0.21933269373E+02  0.37004234082E+02  0.43400731381E+02  0.00000000000E+00 0. -1.
         11    1    4    4    0    0 -0.45021480793E+01  0.19157394365E+02 -0.22467353777E+02  0.29867324657E+02  0.51100000000E-03 0. -1.
        -11    1    4    4    0    0 -0.34600656810E+01  0.49950990470E+01 -0.49502647471E+01  0.78376138163E+01  0.51100000000E-03 0.  1.
         12    1    4    4    0    0  0.21966401534E+01 -0.22192240390E+01 -0.95866155582E+01  0.10082330145E+02  0.00000000000E+00 0. -1.
</event>
<event>
 8    1  0.6469014E-010  0.9118800E+02  0.7816164E-02  0.1184000E+00
        -11   -1    0    0    0    0  0.00000000000E+00  0.00000000000E+00  0.45593999997E+02  0.45594000000E+02  0.51100000000E-03 0. -1.
         11   -1    0    0    0    0 -0.00000000000E+00 -0.00000000000E+00 -0.45593999997E+02  0.45594000000E+02  0.51100000000E-03 0.  1.
         23    2    1    2    0    0  0.00000000000E+00  0.00000000000E+00  0.71054273576E-14  0.91188000000E+02  0.91188000000E+02 0.  0.
    9900012    2    3    3    0    0  0.58027940230E+01  0.26794041787E+02 -0.33645655631E+02  0.47787271474E+02  0.20000001958E+02 0.  0.
         12    1    3    3    0    0 -0.58027940230E+01 -0.26794041787E+02  0.33645655631E+02  0.43400728526E+02  0.00000000000E+00 0. -1.
         11    1    4    4    0    0  0.16324705542E+01  0.65651406462E+00 -0.29604000846E+01  0.34438263239E+01  0.51100000000E-03 0. -1.
        -11    1    4    4    0    0  0.90412209739E+00 -0.24695733574E+01 -0.59443780722E+00  0.26962169613E+01  0.51100000000E-03 0.  1.
        -12    1    4    4    0    0  0.32662013715E+01  0.28607101079E+02 -0.30090817740E+02  0.41647228189E+02  0.00000000000E+00 0.  1.
</event>
<event>
 8    1  0.6469014E-010  0.9118800E+02  0.7816164E-02  0.1184000E+00
        -11   -1    0    0    0    0  0.00000000000E+00  0.00000000000E+00  0.45593999997E+02  0.45594000000E+02  0.51100000000E-03 0.  1.
         11   -1    0    0    0    0 -0.00000000000E+00 -0.00000000000E+00 -0.45593999997E+02  0.45594000000E+02  0.51100000000E-03 0. -1.
         23    2    1    2    0    0  0.00000000000E+00 -0.35527136788E-14  0.00000000000E+00  0.91188000000E+02  0.91188000000E+02 0.  0.
    9900012    2    3    3    0    0  0.40924353797E+02 -0.13810760611E+02 -0.42524513070E+01  0.47787272075E+02  0.20000004697E+02 0.  0.
        -12    1    3    3    0    0 -0.40924353797E+02  0.13810760611E+02  0.42524513070E+01  0.43400727925E+02  0.00000000000E+00 0.  1.
         11    1    4    4    0    0  0.19579352036E+02 -0.12734356506E+02 -0.31870698518E+01  0.23572701930E+02  0.51100000000E-03 0. -1.
        -11    1    4    4    0    0  0.47796442706E+01  0.34302470976E+01 -0.35454718757E+01  0.68689129844E+01  0.51100000000E-03 0.  1.
        -12    1    4    4    0    0  0.16565357490E+02 -0.45066512022E+01  0.24800904206E+01  0.17345657160E+02  0.00000000000E+00 0.  1.
</event>
<event>
 8    1  0.6469014E-010  0.9118800E+02  0.7816164E-02  0.1184000E+00
        -11   -1    0    0    0    0  0.00000000000E+00  0.00000000000E+00  0.45593999997E+02  0.45594000000E+02  0.51100000000E-03 0.  1.
         11   -1    0    0    0    0 -0.00000000000E+00 -0.00000000000E+00 -0.45593999997E+02  0.45594000000E+02  0.51100000000E-03 0. -1.
         23    2    1    2    0    0  0.35527136788E-14 -0.35527136788E-14  0.71054273576E-14  0.91188000000E+02  0.91188000000E+02 0.  0.
    9900012    2    3    3    0    0 -0.23640483367E+02  0.18011809712E+02 -0.31627928227E+02  0.47787267439E+02  0.19999983561E+02 0.  0.
         12    1    3    3    0    0  0.23640483367E+02 -0.18011809712E+02  0.31627928227E+02  0.43400732561E+02  0.00000000000E+00 0. -1.
         11    1    4    4    0    0 -0.63037688639E+01  0.92752322629E+00 -0.50518569611E+01  0.81313627543E+01  0.51100000000E-03 0. -1.
        -11    1    4    4    0    0 -0.15927934458E+02  0.14196812798E+02 -0.11494186665E+02  0.24235612579E+02  0.51100000000E-03 0.  1.
        -12    1    4    4    0    0 -0.14087800446E+01  0.28874736874E+01 -0.15081884601E+02  0.15420292106E+02  0.00000000000E+00 0.  1.
</event>
<event>
 8    1  0.6469014E-010  0.9118800E+02  0.7816164E-02  0.1184000E+00
        -11   -1    0    0    0    0  0.00000000000E+00  0.00000000000E+00  0.45593999997E+02  0.45594000000E+02  0.51100000000E-03 0. -1.
         11   -1    0    0    0    0 -0.00000000000E+00 -0.00000000000E+00 -0.45593999997E+02  0.45594000000E+02  0.51100000000E-03 0.  1.
         23    2    1    2    0    0  0.00000000000E+00  0.35527136788E-14  0.00000000000E+00  0.91188000000E+02  0.91188000000E+02 0.  0.
    9900012    2    3    3    0    0  0.21854209457E+02 -0.21292815200E+02  0.30864734393E+02  0.47787282502E+02  0.20000052241E+02 0.  0.
        -12    1    3    3    0    0 -0.21854209457E+02  0.21292815200E+02 -0.30864734393E+02  0.43400717498E+02  0.00000000000E+00 0.  1.
         11    1    4    4    0    0  0.64209315754E+01 -0.23209952379E+01  0.16134186343E+02  0.17519342179E+02  0.51100000000E-03 0. -1.
        -11    1    4    4    0    0  0.41183657325E+01  0.10518203034E+00  0.12184843823E+01  0.42961266295E+01  0.51100000000E-03 0.  1.
         12    1    4    4    0    0  0.11314912149E+02 -0.19077001992E+02  0.13512063668E+02  0.25971813694E+02  0.00000000000E+00 0. -1.
</event>
<event>
 8    1  0.6469014E-010  0.9118800E+02  0.7816164E-02  0.1184000E+00
        -11   -1    0    0    0    0  0.00000000000E+00  0.00000000000E+00  0.45593999997E+02  0.45594000000E+02  0.51100000000E-03 0.  1.
         11   -1    0    0    0    0 -0.00000000000E+00 -0.00000000000E+00 -0.45593999997E+02  0.45594000000E+02  0.51100000000E-03 0. -1.
         23    2    1    2    0    0  0.88817841970E-15  0.00000000000E+00 -0.17763568394E-14  0.91188000000E+02  0.91188000000E+02 0.  0.
    9900012    2    3    3    0    0 -0.53831138985E+01  0.40060235516E+02 -0.15805782197E+02  0.47787272636E+02  0.20000007258E+02 0.  0.
         12    1    3    3    0    0  0.53831138985E+01 -0.40060235516E+02  0.15805782197E+02  0.43400727364E+02  0.00000000000E+00 0. -1.
         11    1    4    4    0    0 -0.13736344882E+00  0.21231546121E+02 -0.56569756501E+00  0.21239525264E+02  0.51100000000E-03 0. -1.
        -11    1    4    4    0    0  0.13968969867E+01  0.11141944837E+02 -0.10355710533E+02  0.15275306768E+02  0.51100000000E-03 0.  1.
         12    1    4    4    0    0 -0.66426474364E+01  0.76867445569E+01 -0.48843740994E+01  0.11272440605E+02  0.00000000000E+00 0. -1.
</event>
<event>
 8    1  0.6469014E-010  0.9118800E+02  0.7816164E-02  0.1184000E+00
        -11   -1    0    0    0    0  0.00000000000E+00  0.00000000000E+00  0.45593999997E+02  0.45594000000E+02  0.51100000000E-03 0. -1.
         11   -1    0    0    0    0 -0.00000000000E+00 -0.00000000000E+00 -0.45593999997E+02  0.45594000000E+02  0.51100000000E-03 0.  1.
         23    2    1    2    0    0  0.00000000000E+00  0.00000000000E+00  0.00000000000E+00  0.91188000000E+02  0.91188000000E+02 0.  0.
    9900012    2    3    3    0    0  0.36561850071E+01 -0.85550746475E+01  0.42391815986E+02  0.47787273582E+02  0.20000011570E+02 0.  0.
        -12    1    3    3    0    0 -0.36561850071E+01  0.85550746475E+01 -0.42391815986E+02  0.43400726418E+02  0.00000000000E+00 0.  1.
         11    1    4    4    0    0  0.49746609193E+01 -0.76684891742E+01  0.26210753372E+02  0.27758900736E+02  0.51100000000E-03 0. -1.
        -11    1    4    4    0    0 -0.13048090952E-01  0.10712208007E+01 -0.16911495311E+01  0.20019168949E+01  0.51100000000E-03 0.  1.
        -12    1    4    4    0    0 -0.13054278212E+01 -0.19578062740E+01  0.17872212145E+02  0.18026455951E+02  0.00000000000E+00 0.  1.
</event>
<event>
 8    1  0.6469014E-010  0.9118800E+02  0.7816164E-02  0.1184000E+00
        -11   -1    0    0    0    0  0.00000000000E+00  0.00000000000E+00  0.45593999997E+02  0.45594000000E+02  0.51100000000E-03 0. -1.
         11   -1    0    0    0    0 -0.00000000000E+00 -0.00000000000E+00 -0.45593999997E+02  0.45594000000E+02  0.51100000000E-03 0.  1.
         23    2    1    2    0    0  0.00000000000E+00 -0.35527136788E-14  0.00000000000E+00  0.91188000000E+02  0.91188000000E+02 0.  0.
    9900012    2    3    3    0    0 -0.48648884890E+01  0.24670717779E+02 -0.35373885860E+02  0.47787271244E+02  0.20000000908E+02 0.  0.
         12    1    3    3    0    0  0.48648884890E+01 -0.24670717779E+02  0.35373885860E+02  0.43400728756E+02  0.00000000000E+00 0. -1.
         11    1    4    4    0    0  0.29390395923E+01  0.76482355648E+01 -0.21191447539E+02  0.22720275307E+02  0.51100000000E-03 0. -1.
        -11    1    4    4    0    0  0.24717597654E+00  0.96717726025E+01 -0.54916070055E+01  0.11124838381E+02  0.51100000000E-03 0.  1.
         12    1    4    4    0    0 -0.80511040578E+01  0.73507096116E+01 -0.86908313158E+01  0.13942157556E+02  0.00000000000E+00 0. -1.
</event>
<event>
 8    1  0.6469014E-010  0.9118800E+02  0.7816164E-02  0.1184000E+00
        -11   -1    0    0    0    0  0.00000000000E+00  0.00000000000E+00  0.45593999997E+02  0.45594000000E+02  0.51100000000E-03 0. -1.
         11   -1    0    0    0    0 -0.00000000000E+00 -0.00000000000E+00 -0.45593999997E+02  0.45594000000E+02  0.51100000000E-03 0.  1.
         23    2    1    2    0    0  0.00000000000E+00  0.00000000000E+00 -0.17763568394E-14  0.91188000000E+02  0.91188000000E+02 0.  0.
    9900012    2    3    3    0    0  0.37139840866E+02  0.16421855152E+02 -0.15315947623E+02  0.47787270078E+02  0.19999995594E+02 0.  0.
         12    1    3    3    0    0 -0.37139840866E+02 -0.16421855152E+02  0.15315947623E+02  0.43400729922E+02  0.00000000000E+00 0. -1.
         11    1    4    4    0    0  0.15402543979E+02  0.14640226372E+02 -0.37673464144E+01  0.21581647030E+02  0.51100000000E-03 0. -1.
        -11    1    4    4    0    0  0.84830592728E+01  0.50500021398E+01 -0.48367913190E+01  0.10993605722E+02  0.51100000000E-03 0.  1.
         12    1    4    4    0    0  0.13254237614E+02 -0.32683733599E+01 -0.67118098895E+01  0.15212017326E+02  0.00000000000E+00 0. -1.
</event>
<event>
 8    1  0.6469014E-010  0.9118800E+02  0.7816164E-02  0.1184000E+00
        -11   -1    0    0    0    0  0.00000000000E+00  0.00000000000E+00  0.45593999997E+02  0.45594000000E+02  0.51100000000E-03 0. -1.
         11   -1    0    0    0    0 -0.00000000000E+00 -0.00000000000E+00 -0.45593999997E+02  0.45594000000E+02  0.51100000000E-03 0.  1.
         23    2    1    2    0    0  0.00000000000E+00  0.00000000000E+00  0.00000000000E+00  0.91188000000E+02  0.91188000000E+02 0.  0.
    9900012    2    3    3    0    0  0.31241805786E+02 -0.22246735474E+02  0.20313928831E+02  0.47787269907E+02  0.19999994816E+02 0.  0.
        -12    1    3    3    0    0 -0.31241805786E+02  0.22246735474E+02 -0.20313928831E+02  0.43400730093E+02  0.00000000000E+00 0.  1.
         11    1    4    4    0    0  0.22246720486E+02 -0.16452511398E+02  0.11569267285E+02  0.29990826088E+02  0.51100000000E-03 0. -1.
        -11    1    4    4    0    0 -0.23606024237E+01 -0.28771158901E+01  0.14880510473E+01  0.40080588604E+01  0.51100000000E-03 0.  1.
        -12    1    4    4    0    0  0.11355687724E+02 -0.29171081868E+01  0.72566104987E+01  0.13788384959E+02  0.00000000000E+00 0.  1.
</event>
<event>
 8    1  0.6469014E-010  0.9118800E+02  0.7816164E-02  0.1184000E+00
        -11   -1    0    0    0    0  0.00000000000E+00  0.00000000000E+00  0.45593999997E+02  0.45594000000E+02  0.51100000000E-03 0. -1.
         11   -1    0    0    0    0 -0.00000000000E+00 -0.00000000000E+00 -0.45593999997E+02  0.45594000000E+02  0.51100000000E-03 0.  1.
         23    2    1    2    0    0 -0.22204460493E-15  0.00000000000E+00  0.00000000000E+00  0.91188000000E+02  0.91188000000E+02 0.  0.
    9900012    2    3    3    0    0 -0.51344365582E+00  0.40656781343E+02 -0.15178468435E+02  0.47787269619E+02  0.19999993501E+02 0.  0.
         12    1    3    3    0    0  0.51344365582E+00 -0.40656781343E+02  0.15178468435E+02  0.43400730381E+02  0.00000000000E+00 0. -1.
         11    1    4    4    0    0  0.15598351631E+01  0.61994521164E+01  0.30163887917E+01  0.70685849987E+01  0.51100000000E-03 0. -1.
        -11    1    4    4    0    0  0.11321276580E+01  0.31511574061E+02 -0.18114034501E+02  0.36364532982E+02  0.51100000000E-03 0.  1.
         12    1    4    4    0    0 -0.32054064769E+01  0.29457551655E+01 -0.80822726653E-01  0.43541516385E+01  0.00000000000E+00 0. -1.
</event>
<event>
 8    1  0.6469014E-010  0.9118800E+02  0.7816164E-02  0.1184000E+00
        -11   -1    0    0    0    0  0.00000000000E+00  0.00000000000E+00  0.45593999997E+02  0.45594000000E+02  0.51100000000E-03 0. -1.
         11   -1    0    0    0    0 -0.00000000000E+00 -0.00000000000E+00 -0.45593999997E+02  0.45594000000E+02  0.51100000000E-03 0.  1.
         23    2    1    2    0    0  0.00000000000E+00  0.00000000000E+00  0.00000000000E+00  0.91188000000E+02  0.91188000000E+02 0.  0.
    9900012    2    3    3    0    0 -0.16515059178E+02  0.32938842161E+02  0.22932700380E+02  0.47787271328E+02  0.20000001292E+02 0.  0.
        -12    1    3    3    0    0  0.16515059178E+02 -0.32938842161E+02 -0.22932700380E+02  0.43400728672E+02  0.00000000000E+00 0.  1.
         11    1    4    4    0    0 -0.37379113693E+01 -0.17953738781E+01  0.11293692021E+01  0.42977696335E+01  0.51100000000E-03 0. -1.
        -11    1    4    4    0    0 -0.41104955169E+01  0.60819911712E+01  0.20377171774E+01  0.76183385037E+01  0.51100000000E-03 0.  1.
         12    1    4    4    0    0 -0.86666522918E+01  0.28652224868E+02  0.19765614000E+02  0.35871163191E+02  0.00000000000E+00 0. -1.
</event>
<event>
 8    1  0.6469014E-010  0.9118800E+02  0.7816164E-02  0.1184000E+00
        -11   -1    0    0    0    0  0.00000000000E+00  0.00000000000E+00  0.45593999997E+02  0.45594000000E+02  0.51100000000E-03 0. -1.
         11   -1    0    0    0    0 -0.00000000000E+00 -0.00000000000E+00 -0.45593999997E+02  0.45594000000E+02  0.51100000000E-03 0.  1.
         23    2    1    2    0    0  0.17763568394E-14  0.00000000000E+00  0.00000000000E+00  0.91188000000E+02  0.91188000000E+02 0.  0.
    9900012    2    3    3    0    0  0.13118279701E+02  0.22223197505E+02 -0.34894994963E+02  0.47787303656E+02  0.20000148689E+02 0.  0.
         12    1    3    3    0    0 -0.13118279701E+02 -0.22223197505E+02  0.34894994963E+02  0.43400696344E+02  0.00000000000E+00 0. -1.
         11    1    4    4    0    0  0.83745957834E+01  0.23813434443E+02 -0.28957598351E+02  0.38415569982E+02  0.51100000000E-03 0. -1.
        -11    1    4    4    0    0  0.24445973619E+01  0.14004666898E+01 -0.45515552706E+01  0.53529448768E+01  0.51100000000E-03 0.  1.
         12    1    4    4    0    0  0.22990865553E+01 -0.29907036275E+01 -0.13858413416E+01  0.40187887977E+01  0.00000000000E+00 0. -1.
</event>
<event>
 8    1  0.6469014E-010  0.9118800E+02  0.7816164E-02  0.1184000E+00
        -11   -1    0    0    0    0  0.00000000000E+00  0.00000000000E+00  0.45593999997E+02  0.45594000000E+02  0.51100000000E-03 0. -1.
         11   -1    0    0    0    0 -0.00000000000E+00 -0.00000000000E+00 -0.45593999997E+02  0.45594000000E+02  0.51100000000E-03 0.  1.
         23    2    1    2    0    0  0.88817841970E-15 -0.35527136788E-14  0.00000000000E+00  0.91188000000E+02  0.91188000000E+02 0.  0.
    9900012    2    3    3    0    0  0.48141598336E+01 -0.29926284072E+02  0.31062271054E+02  0.47787270786E+02  0.19999998822E+02 0.  0.
        -12    1    3    3    0    0 -0.48141598336E+01  0.29926284072E+02 -0.31062271054E+02  0.43400729214E+02  0.00000000000E+00 0.  1.
         11    1    4    4    0    0 -0.55956626908E+01 -0.12069893286E+02  0.14456819623E+02  0.19646714706E+02  0.51100000000E-03 0. -1.
        -11    1    4    4    0    0  0.74329534666E+01 -0.79929200259E+01  0.34838279327E+01  0.11457426635E+02  0.51100000000E-03 0.  1.
        -12    1    4    4    0    0  0.29768690578E+01 -0.98634707595E+01  0.13121623499E+02  0.16683129444E+02  0.00000000000E+00 0.  1.
</event>
<event>
 8    1  0.6469014E-010  0.9118800E+02  0.7816164E-02  0.1184000E+00
        -11   -1    0    0    0    0  0.00000000000E+00  0.00000000000E+00  0.45593999997E+02  0.45594000000E+02  0.51100000000E-03 0. -1.
         11   -1    0    0    0    0 -0.00000000000E+00 -0.00000000000E+00 -0.45593999997E+02  0.45594000000E+02  0.51100000000E-03 0.  1.
         23    2    1    2    0    0  0.00000000000E+00  0.00000000000E+00  0.00000000000E+00  0.91188000000E+02  0.91188000000E+02 0.  0.
    9900012    2    3    3    0    0 -0.42437693395E+01 -0.36107459830E+02 -0.23703728336E+02  0.47787251498E+02  0.19999910879E+02 0.  0.
         12    1    3    3    0    0  0.42437693395E+01  0.36107459830E+02  0.23703728336E+02  0.43400748502E+02  0.00000000000E+00 0. -1.
         11    1    4    4    0    0 -0.72917805017E+01 -0.12813687931E+02 -0.39984234938E+01  0.15275734089E+02  0.51100000000E-03 0. -1.
        -11    1    4    4    0    0  0.47745857952E+00 -0.23066547619E+02 -0.18850020924E+02  0.29792899739E+02  0.51100000000E-03 0.  1.
        -12    1    4    4    0    0  0.25705525827E+01 -0.22722427998E+00 -0.85528391770E+00  0.27186176696E+01  0.00000000000E+00 0.  1.
</event>
<event>
 8    1  0.7079790E-010  0.9118800E+02  0.7816164E-02  0.1184000E+00
        -11   -1    0    0    0    0  0.00000000000E+00  0.00000000000E+00  0.45593999997E+02  0.45594000000E+02  0.51100000000E-03 0. -1.
         11   -1    0    0    0    0 -0.00000000000E+00 -0.00000000000E+00 -0.45593999997E+02  0.45594000000E+02  0.51100000000E-03 0.  1.
         23    2    1    2    0    0  0.35527136788E-14 -0.11102230246E-14 -0.71054273576E-14  0.91188000000E+02  0.91188000000E+02 0.  0.
    9900012    2    3    3    0    0  0.20975351219E+02  0.11035329844E+01 -0.37979470094E+02  0.47787270830E+02  0.19999999023E+02 0.  0.
         12    1    3    3    0    0 -0.20975351219E+02 -0.11035329844E+01  0.37979470094E+02  0.43400729170E+02  0.00000000000E+00 0. -1.
         11    1    4    4    0    0  0.70848348947E+01  0.72616326184E+01 -0.16819367415E+02  0.19642232925E+02  0.51100000000E-03 0. -1.
        -11    1    4    4    0    0  0.14105776397E+02 -0.72366526786E+01 -0.21736083147E+02  0.26903519855E+02  0.51100000000E-03 0.  1.
         12    1    4    4    0    0 -0.21526007206E+00  0.10785530446E+01  0.57598046813E+00  0.12415180499E+01  0.00000000000E+00 0. -1.
</event>
<event>
 8    1  0.6469014E-010  0.9118800E+02  0.7816164E-02  0.1184000E+00
        -11   -1    0    0    0    0  0.00000000000E+00  0.00000000000E+00  0.45593999997E+02  0.45594000000E+02  0.51100000000E-03 0. -1.
         11   -1    0    0    0    0 -0.00000000000E+00 -0.00000000000E+00 -0.45593999997E+02  0.45594000000E+02  0.51100000000E-03 0.  1.
         23    2    1    2    0    0  0.00000000000E+00  0.17763568394E-14  0.00000000000E+00  0.91188000000E+02  0.91188000000E+02 0.  0.
    9900012    2    3    3    0    0 -0.55860445833E+01  0.13371300883E+02 -0.40909994027E+02  0.47787271980E+02  0.20000004264E+02 0.  0.
         12    1    3    3    0    0  0.55860445833E+01 -0.13371300883E+02  0.40909994027E+02  0.43400728020E+02  0.00000000000E+00 0. -1.
         11    1    4    4    0    0  0.48333830211E+01  0.83149263877E+01 -0.11546309490E+02  0.15027203844E+02  0.51100000000E-03 0. -1.
        -11    1    4    4    0    0 -0.10337166563E+02  0.36394286400E+01 -0.16435417409E+02  0.19754123596E+02  0.51100000000E-03 0.  1.
         12    1    4    4    0    0 -0.82261041791E-01  0.14169458550E+01 -0.12928267128E+02  0.13005944540E+02  0.00000000000E+00 0. -1.
</event>
<event>
 8    1  0.6469014E-010  0.9118800E+02  0.7816164E-02  0.1184000E+00
        -11   -1    0    0    0    0  0.00000000000E+00  0.00000000000E+00  0.45593999997E+02  0.45594000000E+02  0.51100000000E-03 0. -1.
         11   -1    0    0    0    0 -0.00000000000E+00 -0.00000000000E+00 -0.45593999997E+02  0.45594000000E+02  0.51100000000E-03 0.  1.
         23    2    1    2    0    0  0.00000000000E+00 -0.35527136788E-14  0.00000000000E+00  0.91188000000E+02  0.91188000000E+02 0.  0.
    9900012    2    3    3    0    0 -0.28442798358E+02 -0.25550159200E+02  0.20538246831E+02  0.47787274241E+02  0.20000014572E+02 0.  0.
        -12    1    3    3    0    0  0.28442798358E+02  0.25550159200E+02 -0.20538246831E+02  0.43400725759E+02  0.00000000000E+00 0.  1.
         11    1    4    4    0    0 -0.20915101121E+02 -0.21951856939E+02  0.11374653497E+02  0.32383764767E+02  0.51100000000E-03 0.  1.
        -11    1    4    4    0    0 -0.75578814103E+01  0.11323884374E+01  0.53848741954E+01  0.93488365772E+01  0.51100000000E-03 0. -1.
        -12    1    4    4    0    0  0.30184173902E-01 -0.47306906980E+01  0.37787191377E+01  0.60546728967E+01  0.00000000000E+00 0.  1.
</event>
<event>
 8    1  0.6469014E-010  0.9118800E+02  0.7816164E-02  0.1184000E+00
        -11   -1    0    0    0    0  0.00000000000E+00  0.00000000000E+00  0.45593999997E+02  0.45594000000E+02  0.51100000000E-03 0. -1.
         11   -1    0    0    0    0 -0.00000000000E+00 -0.00000000000E+00 -0.45593999997E+02  0.45594000000E+02  0.51100000000E-03 0.  1.
         23    2    1    2    0    0  0.00000000000E+00 -0.35527136788E-14 -0.71054273576E-14  0.91188000000E+02  0.91188000000E+02 0.  0.
    9900012    2    3    3    0    0 -0.88150951080E+01 -0.24759560407E+02 -0.34538099838E+02  0.47787284871E+02  0.20000063039E+02 0.  0.
         12    1    3    3    0    0  0.88150951080E+01  0.24759560407E+02  0.34538099838E+02  0.43400715129E+02  0.00000000000E+00 0. -1.
         11    1    4    4    0    0  0.38070385588E+01 -0.20715918653E+01 -0.66111921398E+01  0.79052449181E+01  0.51100000000E-03 0. -1.
        -11    1    4    4    0    0 -0.86941645388E+01 -0.12957474144E+02 -0.84173962939E+01  0.17729557068E+02  0.51100000000E-03 0.  1.
        -12    1    4    4    0    0 -0.39279691280E+01 -0.97304943985E+01 -0.19509511404E+02  0.22152482884E+02  0.00000000000E+00 0.  1.
</event>
<event>
 8    1  0.6469014E-010  0.9118800E+02  0.7816164E-02  0.1184000E+00
        -11   -1    0    0    0    0  0.00000000000E+00  0.00000000000E+00  0.45593999997E+02  0.45594000000E+02  0.51100000000E-03 0. -1.
         11   -1    0    0    0    0 -0.00000000000E+00 -0.00000000000E+00 -0.45593999997E+02  0.45594000000E+02  0.51100000000E-03 0.  1.
         23    2    1    2    0    0  0.00000000000E+00  0.00000000000E+00 -0.17763568394E-14  0.91188000000E+02  0.91188000000E+02 0.  0.
    9900012    2    3    3    0    0 -0.35063879643E+02  0.21823964673E+02  0.13336496560E+02  0.47787271547E+02  0.20000002293E+02 0.  0.
        -12    1    3    3    0    0  0.35063879643E+02 -0.21823964673E+02 -0.13336496560E+02  0.43400728453E+02  0.00000000000E+00 0.  1.
         11    1    4    4    0    0 -0.15758566921E+02  0.18037818956E+02  0.10347312899E+02  0.26091420594E+02  0.51100000000E-03 0. -1.
        -11    1    4    4    0    0 -0.79562177166E+01  0.89448588978E-01 -0.27935050858E+01  0.84328567123E+01  0.51100000000E-03 0.  1.
        -12    1    4    4    0    0 -0.11349095005E+02  0.36966971281E+01  0.57826887475E+01  0.13262994241E+02  0.00000000000E+00 0.  1.
</event>
<event>
 8    1  0.6469014E-010  0.9118800E+02  0.7816164E-02  0.1184000E+00
        -11   -1    0    0    0    0  0.00000000000E+00  0.00000000000E+00  0.45593999997E+02  0.45594000000E+02  0.51100000000E-03 0.  1.
         11   -1    0    0    0    0 -0.00000000000E+00 -0.00000000000E+00 -0.45593999997E+02  0.45594000000E+02  0.51100000000E-03 0. -1.
         23    2    1    2    0    0 -0.88817841970E-15  0.00000000000E+00  0.13322676296E-14  0.91188000000E+02  0.91188000000E+02 0.  0.
    9900012    2    3    3    0    0  0.58638921304E+01 -0.42949724485E+02  0.21352169986E+01  0.47787271712E+02  0.20000003046E+02 0.  0.
        -12    1    3    3    0    0 -0.58638921304E+01  0.42949724485E+02 -0.21352169986E+01  0.43400728288E+02  0.00000000000E+00 0.  1.
         11    1    4    4    0    0 -0.14161373839E+01 -0.10817223261E+02 -0.49874014476E+01  0.11995496556E+02  0.51100000000E-03 0. -1.
        -11    1    4    4    0    0  0.13547255875E+01 -0.16250751676E+02  0.91845934275E+01  0.18715741186E+02  0.51100000000E-03 0.  1.
         12    1    4    4    0    0  0.59253039268E+01 -0.15881749548E+02 -0.20619749813E+01  0.17076033970E+02  0.00000000000E+00 0. -1.
</event>
<event>
 8    1  0.6469014E-010  0.9118800E+02  0.7816164E-02  0.1184000E+00
        -11   -1    0    0    0    0  0.00000000000E+00  0.00000000000E+00  0.45593999997E+02  0.45594000000E+02  0.51100000000E-03 0. -1.
         11   -1    0    0    0    0 -0.00000000000E+00 -0.00000000000E+00 -0.45593999997E+02  0.45594000000E+02  0.51100000000E-03 0.  1.
         23    2    1    2    0    0  0.17763568394E-14  0.00000000000E+00  0.00000000000E+00  0.91188000000E+02  0.91188000000E+02 0.  0.
    9900012    2    3    3    0    0  0.12104180617E+02  0.26064467071E+02 -0.32523158826E+02  0.47787268530E+02  0.19999988534E+02 0.  0.
         12    1    3    3    0    0 -0.12104180617E+02 -0.26064467071E+02  0.32523158826E+02  0.43400731470E+02  0.00000000000E+00 0. -1.
         11    1    4    4    0    0  0.21937781659E+00  0.13537998351E+02 -0.18825091562E+02  0.23188566117E+02  0.51100000000E-03 0. -1.
        -11    1    4    4    0    0  0.32606274489E+01  0.61303386098E+01 -0.11805400789E+02  0.13695993242E+02  0.51100000000E-03 0.  1.
         12    1    4    4    0    0  0.86241753513E+01  0.63961301101E+01 -0.18926664753E+01  0.10902709171E+02  0.00000000000E+00 0. -1.
</event>
<event>
 8    1  0.6469014E-010  0.9118800E+02  0.7816164E-02  0.1184000E+00
        -11   -1    0    0    0    0  0.00000000000E+00  0.00000000000E+00  0.45593999997E+02  0.45594000000E+02  0.51100000000E-03 0. -1.
         11   -1    0    0    0    0 -0.00000000000E+00 -0.00000000000E+00 -0.45593999997E+02  0.45594000000E+02  0.51100000000E-03 0.  1.
         23    2    1    2    0    0  0.00000000000E+00  0.00000000000E+00  0.71054273576E-14  0.91188000000E+02  0.91188000000E+02 0.  0.
    9900012    2    3    3    0    0 -0.22949237072E+02 -0.82113384707E+01 -0.35910019364E+02  0.47787273596E+02  0.20000011634E+02 0.  0.
         12    1    3    3    0    0  0.22949237072E+02  0.82113384707E+01  0.35910019364E+02  0.43400726404E+02  0.00000000000E+00 0. -1.
         11    1    4    4    0    0 -0.16677599245E+01 -0.81755114997E+01 -0.16306282403E+02  0.18317075572E+02  0.51100000000E-03 0. -1.
        -11    1    4    4    0    0 -0.16020705886E+02 -0.21392140774E+01 -0.12807530502E+02  0.20622126267E+02  0.51100000000E-03 0.  1.
         12    1    4    4    0    0 -0.52607712616E+01  0.21033871064E+01 -0.67962064586E+01  0.88480717569E+01  0.00000000000E+00 0. -1.
</event>
<event>
 8    1  0.6469014E-010  0.9118800E+02  0.7816164E-02  0.1184000E+00
        -11   -1    0    0    0    0  0.00000000000E+00  0.00000000000E+00  0.45593999997E+02  0.45594000000E+02  0.51100000000E-03 0. -1.
         11   -1    0    0    0    0 -0.00000000000E+00 -0.00000000000E+00 -0.45593999997E+02  0.45594000000E+02  0.51100000000E-03 0.  1.
         23    2    1    2    0    0  0.00000000000E+00  0.00000000000E+00  0.17763568394E-14  0.91188000000E+02  0.91188000000E+02 0.  0.
    9900012    2    3    3    0    0  0.30595338109E+02  0.26935361656E+02  0.14900829160E+02  0.47787272688E+02  0.20000007494E+02 0.  0.
        -12    1    3    3    0    0 -0.30595338109E+02 -0.26935361656E+02 -0.14900829160E+02  0.43400727312E+02  0.00000000000E+00 0.  1.
         11    1    4    4    0    0  0.24685674239E+02  0.29301324426E+02  0.12228612444E+02  0.40218019448E+02  0.51100000000E-03 0. -1.
        -11    1    4    4    0    0  0.77467895698E+00 -0.11196652150E+01  0.17305326736E+01  0.22019358019E+01  0.51100000000E-03 0.  1.
         12    1    4    4    0    0  0.51349849127E+01 -0.12462975544E+01  0.94168404207E+00  0.53673174383E+01  0.00000000000E+00 0. -1.
</event>
<event>
 8    1  0.6469014E-010  0.9118800E+02  0.7816164E-02  0.1184000E+00
        -11   -1    0    0    0    0  0.00000000000E+00  0.00000000000E+00  0.45593999997E+02  0.45594000000E+02  0.51100000000E-03 0. -1.
         11   -1    0    0    0    0 -0.00000000000E+00 -0.00000000000E+00 -0.45593999997E+02  0.45594000000E+02  0.51100000000E-03 0.  1.
         23    2    1    2    0    0  0.35527136788E-14 -0.88817841970E-15  0.35527136788E-14  0.91188000000E+02  0.91188000000E+02 0.  0.
    9900012    2    3    3    0    0 -0.30286487248E+02 -0.37561127018E+01 -0.30858464592E+02  0.47787256580E+02  0.19999934051E+02 0.  0.
         12    1    3    3    0    0  0.30286487248E+02  0.37561127018E+01  0.30858464592E+02  0.43400743420E+02  0.00000000000E+00 0. -1.
         11    1    4    4    0    0 -0.48052825842E+01  0.37423322499E+00  0.17420133137E+01  0.51249782308E+01  0.51100000000E-03 0. -1.
        -11    1    4    4    0    0 -0.96811882264E+01  0.26839669194E+01 -0.92455706812E+01  0.13653192351E+02  0.51100000000E-03 0.  1.
         12    1    4    4    0    0 -0.15800016437E+02 -0.68143128462E+01 -0.23354907224E+02  0.29009085998E+02  0.00000000000E+00 0. -1.
</event>
<event>
 8    1  0.6469014E-010  0.9118800E+02  0.7816164E-02  0.1184000E+00
        -11   -1    0    0    0    0  0.00000000000E+00  0.00000000000E+00  0.45593999997E+02  0.45594000000E+02  0.51100000000E-03 0. -1.
         11   -1    0    0    0    0 -0.00000000000E+00 -0.00000000000E+00 -0.45593999997E+02  0.45594000000E+02  0.51100000000E-03 0.  1.
         23    2    1    2    0    0  0.00000000000E+00  0.00000000000E+00  0.17763568394E-14  0.91188000000E+02  0.91188000000E+02 0.  0.
    9900012    2    3    3    0    0 -0.36236985376E+02  0.21633255417E+02  0.10124698475E+02  0.47787235396E+02  0.19999837462E+02 0.  0.
        -12    1    3    3    0    0  0.36236985376E+02 -0.21633255417E+02 -0.10124698475E+02  0.43400764604E+02  0.00000000000E+00 0.  1.
         11    1    4    4    0    0 -0.12806585930E+01 -0.30297226215E+01 -0.16706238404E+00  0.32935111502E+01  0.51100000000E-03 0. -1.
        -11    1    4    4    0    0 -0.56733100527E+01  0.24876997327E+01 -0.48434884159E+00  0.62136696867E+01  0.51100000000E-03 0.  1.
         12    1    4    4    0    0 -0.29283016730E+02  0.22175278305E+02  0.10776109700E+02  0.38280054559E+02  0.00000000000E+00 0. -1.
</event>
<event>
 8    1  0.6469014E-010  0.9118800E+02  0.7816164E-02  0.1184000E+00
        -11   -1    0    0    0    0  0.00000000000E+00  0.00000000000E+00  0.45593999997E+02  0.45594000000E+02  0.51100000000E-03 0. -1.
         11   -1    0    0    0    0 -0.00000000000E+00 -0.00000000000E+00 -0.45593999997E+02  0.45594000000E+02  0.51100000000E-03 0.  1.
         23    2    1    2    0    0  0.44408920985E-15  0.00000000000E+00  0.00000000000E+00  0.91188000000E+02  0.91188000000E+02 0.  0.
    9900012    2    3    3    0    0 -0.39756288152E+01 -0.81539212851E+01 -0.42442127325E+02  0.47787237004E+02  0.19999844795E+02 0.  0.
         12    1    3    3    0    0  0.39756288152E+01  0.81539212851E+01  0.42442127325E+02  0.43400762996E+02  0.00000000000E+00 0. -1.
         11    1    4    4    0    0 -0.14641281928E+01 -0.20033923916E+01 -0.27626920492E+00  0.24967133144E+01  0.51100000000E-03 0. -1.
        -11    1    4    4    0    0  0.26319394313E+01 -0.29648508255E+01 -0.37344392903E+02  0.37554242466E+02  0.51100000000E-03 0.  1.
        -12    1    4    4    0    0 -0.51434400537E+01 -0.31856780680E+01 -0.48214652164E+01  0.77362812237E+01  0.00000000000E+00 0.  1.
</event>
<event>
 8    1  0.6469014E-010  0.9118800E+02  0.7816164E-02  0.1184000E+00
        -11   -1    0    0    0    0  0.00000000000E+00  0.00000000000E+00  0.45593999997E+02  0.45594000000E+02  0.51100000000E-03 0. -1.
         11   -1    0    0    0    0 -0.00000000000E+00 -0.00000000000E+00 -0.45593999997E+02  0.45594000000E+02  0.51100000000E-03 0.  1.
         23    2    1    2    0    0  0.00000000000E+00  0.00000000000E+00  0.00000000000E+00  0.91188000000E+02  0.91188000000E+02 0.  0.
    9900012    2    3    3    0    0  0.15373046618E+02 -0.36007492606E+02 -0.18728406896E+02  0.47787270617E+02  0.19999998051E+02 0.  0.
         12    1    3    3    0    0 -0.15373046618E+02  0.36007492606E+02  0.18728406896E+02  0.43400729383E+02  0.00000000000E+00 0. -1.
         11    1    4    4    0    0 -0.21335198082E+01  0.57571843904E+00 -0.38654360789E+01  0.44525223003E+01  0.51100000000E-03 0. -1.
        -11    1    4    4    0    0  0.12020787316E+02 -0.28534759518E+02 -0.11514228891E+02  0.33034970799E+02  0.51100000000E-03 0.  1.
         12    1    4    4    0    0  0.54857791104E+01 -0.80484515273E+01 -0.33487419261E+01  0.10299777518E+02  0.00000000000E+00 0. -1.
</event>
<event>
 8    1  0.6469014E-010  0.9118800E+02  0.7816164E-02  0.1184000E+00
        -11   -1    0    0    0    0  0.00000000000E+00  0.00000000000E+00  0.45593999997E+02  0.45594000000E+02  0.51100000000E-03 0. -1.
         11   -1    0    0    0    0 -0.00000000000E+00 -0.00000000000E+00 -0.45593999997E+02  0.45594000000E+02  0.51100000000E-03 0.  1.
         23    2    1    2    0    0  0.00000000000E+00  0.00000000000E+00 -0.35527136788E-14  0.91188000000E+02  0.91188000000E+02 0.  0.
    9900012    2    3    3    0    0 -0.35205865451E+02  0.10041247917E+02  0.23309726824E+02  0.47787274356E+02  0.20000015097E+02 0.  0.
        -12    1    3    3    0    0  0.35205865451E+02 -0.10041247917E+02 -0.23309726824E+02  0.43400725644E+02  0.00000000000E+00 0.  1.
         11    1    4    4    0    0 -0.11512817799E+02  0.68514891162E+01  0.65429539862E+01  0.14909665453E+02  0.51100000000E-03 0. -1.
        -11    1    4    4    0    0 -0.80368489157E+00 -0.29374030890E+01  0.62517834929E+01  0.69540666818E+01  0.51100000000E-03 0.  1.
        -12    1    4    4    0    0 -0.22889362760E+02  0.61271618899E+01  0.10514989344E+02  0.25923542221E+02  0.00000000000E+00 0.  1.
</event>
<event>
 8    1  0.6469014E-010  0.9118800E+02  0.7816164E-02  0.1184000E+00
        -11   -1    0    0    0    0  0.00000000000E+00  0.00000000000E+00  0.45593999997E+02  0.45594000000E+02  0.51100000000E-03 0. -1.
         11   -1    0    0    0    0 -0.00000000000E+00 -0.00000000000E+00 -0.45593999997E+02  0.45594000000E+02  0.51100000000E-03 0.  1.
         23    2    1    2    0    0 -0.71054273576E-14  0.00000000000E+00  0.00000000000E+00  0.91188000000E+02  0.91188000000E+02 0.  0.
    9900012    2    3    3    0    0 -0.41567081073E+02 -0.92152919671E+01  0.84189969522E+01  0.47787270229E+02  0.19999996283E+02 0.  0.
        -12    1    3    3    0    0  0.41567081073E+02  0.92152919671E+01 -0.84189969522E+01  0.43400729771E+02  0.00000000000E+00 0.  1.
         11    1    4    4    0    0 -0.12945979981E+00 -0.14454571548E+01  0.31641563000E+01  0.34810905731E+01  0.51100000000E-03 0. -1.
        -11    1    4    4    0    0 -0.18062112927E+02 -0.28523968557E+01 -0.39485188768E+01  0.18707402086E+02  0.51100000000E-03 0.  1.
        -12    1    4    4    0    0 -0.23375508346E+02 -0.49174379567E+01  0.92033595290E+01  0.25598777570E+02  0.00000000000E+00 0.  1.
</event>
<event>
 8    1  0.6469014E-010  0.9118800E+02  0.7816164E-02  0.1184000E+00
        -11   -1    0    0    0    0  0.00000000000E+00  0.00000000000E+00  0.45593999997E+02  0.45594000000E+02  0.51100000000E-03 0. -1.
         11   -1    0    0    0    0 -0.00000000000E+00 -0.00000000000E+00 -0.45593999997E+02  0.45594000000E+02  0.51100000000E-03 0.  1.
         23    2    1    2    0    0  0.35527136788E-14  0.00000000000E+00  0.35527136788E-14  0.91188000000E+02  0.91188000000E+02 0.  0.
    9900012    2    3    3    0    0  0.18396779326E+02 -0.34135364831E+02  0.19492532484E+02  0.47787269081E+02  0.19999991047E+02 0.  0.
        -12    1    3    3    0    0 -0.18396779326E+02  0.34135364831E+02 -0.19492532484E+02  0.43400730919E+02  0.00000000000E+00 0.  1.
         11    1    4    4    0    0 -0.12982134765E+01 -0.40121767123E+01  0.10711131518E+01  0.43508854094E+01  0.51100000000E-03 0. -1.
        -11    1    4    4    0    0 -0.26736377953E+01 -0.24837914995E+01  0.27977960575E+01  0.45983934492E+01  0.51100000000E-03 0.  1.
        -12    1    4    4    0    0  0.22368630598E+02 -0.27639396619E+02  0.15623623275E+02  0.38837990222E+02  0.00000000000E+00 0.  1.
</event>
<event>
 8    1  0.6469014E-010  0.9118800E+02  0.7816164E-02  0.1184000E+00
        -11   -1    0    0    0    0  0.00000000000E+00  0.00000000000E+00  0.45593999997E+02  0.45594000000E+02  0.51100000000E-03 0. -1.
         11   -1    0    0    0    0 -0.00000000000E+00 -0.00000000000E+00 -0.45593999997E+02  0.45594000000E+02  0.51100000000E-03 0.  1.
         23    2    1    2    0    0  0.00000000000E+00  0.00000000000E+00 -0.71054273576E-14  0.91188000000E+02  0.91188000000E+02 0.  0.
    9900012    2    3    3    0    0 -0.23567494104E+02  0.55200125158E+01  0.36023963718E+02  0.47787270991E+02  0.19999999759E+02 0.  0.
        -12    1    3    3    0    0  0.23567494104E+02 -0.55200125158E+01 -0.36023963718E+02  0.43400729009E+02  0.00000000000E+00 0.  1.
         11    1    4    4    0    0 -0.17792455227E+02  0.77295413305E+01  0.24256837950E+02  0.31059804567E+02  0.51100000000E-03 0. -1.
        -11    1    4    4    0    0 -0.41045423740E+01 -0.56289856356E+01  0.38896034378E+01  0.79788321545E+01  0.51100000000E-03 0.  1.
        -12    1    4    4    0    0 -0.16704965031E+01  0.34194568209E+01  0.78775223305E+01  0.87486342697E+01  0.00000000000E+00 0.  1.
</event>
<event>
 8    1  0.6469014E-010  0.9118800E+02  0.7816164E-02  0.1184000E+00
        -11   -1    0    0    0    0  0.00000000000E+00  0.00000000000E+00  0.45593999997E+02  0.45594000000E+02  0.51100000000E-03 0.  1.
         11   -1    0    0    0    0 -0.00000000000E+00 -0.00000000000E+00 -0.45593999997E+02  0.45594000000E+02  0.51100000000E-03 0. -1.
         23    2    1    2    0    0  0.00000000000E+00  0.00000000000E+00  0.00000000000E+00  0.91188000000E+02  0.91188000000E+02 0.  0.
    9900012    2    3    3    0    0 -0.28080930917E+02 -0.17989986214E+02  0.27774960715E+02  0.47787231252E+02  0.19999818571E+02 0.  0.
        -12    1    3    3    0    0  0.28080930917E+02  0.17989986214E+02 -0.27774960715E+02  0.43400768748E+02  0.00000000000E+00 0.  1.
         11    1    4    4    0    0 -0.68755379022E+01 -0.90477911493E+01  0.10456962499E+02  0.15442914592E+02  0.51100000000E-03 0. -1.
        -11    1    4    4    0    0 -0.18686980689E+00  0.27627103725E+01  0.39438293281E+01  0.48188462267E+01  0.51100000000E-03 0.  1.
        -12    1    4    4    0    0 -0.21018523208E+02 -0.11704905437E+02  0.13374168888E+02  0.27525470434E+02  0.00000000000E+00 0.  1.
</event>
<event>
 8    1  0.6469014E-010  0.9118800E+02  0.7816164E-02  0.1184000E+00
        -11   -1    0    0    0    0  0.00000000000E+00  0.00000000000E+00  0.45593999997E+02  0.45594000000E+02  0.51100000000E-03 0. -1.
         11   -1    0    0    0    0 -0.00000000000E+00 -0.00000000000E+00 -0.45593999997E+02  0.45594000000E+02  0.51100000000E-03 0.  1.
         23    2    1    2    0    0  0.00000000000E+00  0.00000000000E+00  0.00000000000E+00  0.91188000000E+02  0.91188000000E+02 0.  0.
    9900012    2    3    3    0    0  0.20694919381E+02  0.93164259299E+01  0.36993887716E+02  0.47787271796E+02  0.20000003426E+02 0.  0.
        -12    1    3    3    0    0 -0.20694919381E+02 -0.93164259299E+01 -0.36993887716E+02  0.43400728204E+02  0.00000000000E+00 0.  1.
         11    1    4    4    0    0  0.17715188298E+02  0.59298608827E+01  0.15693651428E+02  0.24398398348E+02  0.51100000000E-03 0. -1.
        -11    1    4    4    0    0  0.39725594036E+01 -0.12217442688E+01  0.54588874904E+01  0.68610013969E+01  0.51100000000E-03 0.  1.
         12    1    4    4    0    0 -0.99282832033E+00  0.46083093160E+01  0.15841348797E+02  0.16527872051E+02  0.00000000000E+00 0. -1.
</event>
<event>
 8    1  0.6469014E-010  0.9118800E+02  0.7816164E-02  0.1184000E+00
        -11   -1    0    0    0    0  0.00000000000E+00  0.00000000000E+00  0.45593999997E+02  0.45594000000E+02  0.51100000000E-03 0. -1.
         11   -1    0    0    0    0 -0.00000000000E+00 -0.00000000000E+00 -0.45593999997E+02  0.45594000000E+02  0.51100000000E-03 0.  1.
         23    2    1    2    0    0 -0.35527136788E-14  0.00000000000E+00 -0.35527136788E-14  0.91188000000E+02  0.91188000000E+02 0.  0.
    9900012    2    3    3    0    0  0.29272606972E+02  0.20115036442E+02  0.24942399360E+02  0.47787268487E+02  0.19999988340E+02 0.  0.
        -12    1    3    3    0    0 -0.29272606972E+02 -0.20115036442E+02 -0.24942399360E+02  0.43400731513E+02  0.00000000000E+00 0.  1.
         11    1    4    4    0    0  0.24646603778E+01 -0.43082220964E+00  0.26822410205E+00  0.25163670210E+01  0.51100000000E-03 0. -1.
        -11    1    4    4    0    0  0.18080947240E+02  0.15365668979E+02  0.67441206709E+01  0.24667946816E+02  0.51100000000E-03 0.  1.
        -12    1    4    4    0    0  0.87269993547E+01  0.51801896727E+01  0.17930054588E+02  0.20602954650E+02  0.00000000000E+00 0.  1.
</event>
<event>
 8    1  0.6469014E-010  0.9118800E+02  0.7816164E-02  0.1184000E+00
        -11   -1    0    0    0    0  0.00000000000E+00  0.00000000000E+00  0.45593999997E+02  0.45594000000E+02  0.51100000000E-03 0. -1.
         11   -1    0    0    0    0 -0.00000000000E+00 -0.00000000000E+00 -0.45593999997E+02  0.45594000000E+02  0.51100000000E-03 0.  1.
         23    2    1    2    0    0 -0.44408920985E-15 -0.35527136788E-14  0.00000000000E+00  0.91188000000E+02  0.91188000000E+02 0.  0.
    9900012    2    3    3    0    0 -0.38768360705E+01  0.29851283309E+02  0.31264898298E+02  0.47787276058E+02  0.20000022859E+02 0.  0.
        -12    1    3    3    0    0  0.38768360705E+01 -0.29851283309E+02 -0.31264898298E+02  0.43400723942E+02  0.00000000000E+00 0.  1.
         11    1    4    4    0    0  0.22622638002E+01  0.76735367243E+01  0.80923688578E+01  0.11379254692E+02  0.51100000000E-03 0. -1.
        -11    1    4    4    0    0 -0.44871236053E+01  0.24496487607E+02  0.18856137881E+02  0.31237255311E+02  0.51100000000E-03 0.  1.
        -12    1    4    4    0    0 -0.16519762654E+01 -0.23187410214E+01  0.43163915586E+01  0.51707660548E+01  0.00000000000E+00 0.  1.
</event>
<event>
 8    1  0.6469014E-010  0.9118800E+02  0.7816164E-02  0.1184000E+00
        -11   -1    0    0    0    0  0.00000000000E+00  0.00000000000E+00  0.45593999997E+02  0.45594000000E+02  0.51100000000E-03 0. -1.
         11   -1    0    0    0    0 -0.00000000000E+00 -0.00000000000E+00 -0.45593999997E+02  0.45594000000E+02  0.51100000000E-03 0.  1.
         23    2    1    2    0    0  0.00000000000E+00  0.00000000000E+00  0.00000000000E+00  0.91188000000E+02  0.91188000000E+02 0.  0.
    9900012    2    3    3    0    0 -0.72471151645E+01 -0.28654864645E+02 -0.31780513747E+02  0.47787274199E+02  0.20000014384E+02 0.  0.
         12    1    3    3    0    0  0.72471151645E+01  0.28654864645E+02  0.31780513747E+02  0.43400725801E+02  0.00000000000E+00 0. -1.
         11    1    4    4    0    0 -0.18045953075E+01  0.18981942848E+00  0.15336526621E+01  0.23758548753E+01  0.51100000000E-03 0. -1.
        -11    1    4    4    0    0  0.68485007084E-02 -0.21127768758E+02 -0.20050946783E+02  0.29127703767E+02  0.51100000000E-03 0.  1.
        -12    1    4    4    0    0 -0.54493683577E+01 -0.77169153152E+01 -0.13263219626E+02  0.16283715557E+02  0.00000000000E+00 0.  1.
</event>
<event>
 8    1  0.6469014E-010  0.9118800E+02  0.7816164E-02  0.1184000E+00
        -11   -1    0    0    0    0  0.00000000000E+00  0.00000000000E+00  0.45593999997E+02  0.45594000000E+02  0.51100000000E-03 0.  1.
         11   -1    0    0    0    0 -0.00000000000E+00 -0.00000000000E+00 -0.45593999997E+02  0.45594000000E+02  0.51100000000E-03 0. -1.
         23    2    1    2    0    0  0.00000000000E+00 -0.71054273576E-14  0.00000000000E+00  0.91188000000E+02  0.91188000000E+02 0.  0.
    9900012    2    3    3    0    0  0.23186613734E+02  0.34188906007E+02 -0.13308741996E+02  0.47787274615E+02  0.20000016280E+02 0.  0.
         12    1    3    3    0    0 -0.23186613734E+02 -0.34188906007E+02  0.13308741996E+02  0.43400725385E+02  0.00000000000E+00 0. -1.
         11    1    4    4    0    0  0.16446121914E+02  0.12809124323E+02 -0.15756256084E+01  0.20905290915E+02  0.51100000000E-03 0. -1.
        -11    1    4    4    0    0  0.80054645119E+01  0.10413188068E+02 -0.67996080170E+01  0.14790423160E+02  0.51100000000E-03 0.  1.
         12    1    4    4    0    0 -0.12649726919E+01  0.10966593616E+02 -0.49335083703E+01  0.12091560540E+02  0.00000000000E+00 0. -1.
</event>
<event>
 8    1  0.6469014E-010  0.9118800E+02  0.7816164E-02  0.1184000E+00
        -11   -1    0    0    0    0  0.00000000000E+00  0.00000000000E+00  0.45593999997E+02  0.45594000000E+02  0.51100000000E-03 0. -1.
         11   -1    0    0    0    0 -0.00000000000E+00 -0.00000000000E+00 -0.45593999997E+02  0.45594000000E+02  0.51100000000E-03 0.  1.
         23    2    1    2    0    0  0.00000000000E+00  0.00000000000E+00 -0.71054273576E-14  0.91188000000E+02  0.91188000000E+02 0.  0.
    9900012    2    3    3    0    0  0.19308164695E+02  0.16110315957E+02 -0.35373369114E+02  0.47787277119E+02  0.20000027696E+02 0.  0.
         12    1    3    3    0    0 -0.19308164695E+02 -0.16110315957E+02  0.35373369114E+02  0.43400722881E+02  0.00000000000E+00 0. -1.
         11    1    4    4    0    0  0.36796968105E+01  0.16821386715E+01 -0.80839123528E+00  0.41259248390E+01  0.51100000000E-03 0. -1.
        -11    1    4    4    0    0  0.11325986319E+02  0.13808067668E+02 -0.14140042742E+02  0.22778970737E+02  0.51100000000E-03 0.  1.
        -12    1    4    4    0    0  0.43024815652E+01  0.62010961707E+00 -0.20424935137E+02  0.20882381543E+02  0.00000000000E+00 0.  1.
</event>
<event>
 8    1  0.6469014E-010  0.9118800E+02  0.7816164E-02  0.1184000E+00
        -11   -1    0    0    0    0  0.00000000000E+00  0.00000000000E+00  0.45593999997E+02  0.45594000000E+02  0.51100000000E-03 0. -1.
         11   -1    0    0    0    0 -0.00000000000E+00 -0.00000000000E+00 -0.45593999997E+02  0.45594000000E+02  0.51100000000E-03 0.  1.
         23    2    1    2    0    0  0.00000000000E+00  0.00000000000E+00  0.00000000000E+00  0.91188000000E+02  0.91188000000E+02 0.  0.
    9900012    2    3    3    0    0 -0.28219476672E+02 -0.12396417233E+02  0.30555064982E+02  0.47787285491E+02  0.20000065866E+02 0.  0.
        -12    1    3    3    0    0  0.28219476672E+02  0.12396417233E+02 -0.30555064982E+02  0.43400714509E+02  0.00000000000E+00 0.  1.
         11    1    4    4    0    0 -0.12773800171E+02 -0.11300014407E+02  0.13218925494E+02  0.21577773005E+02  0.51100000000E-03 0. -1.
        -11    1    4    4    0    0 -0.10052614313E+02  0.24518294844E+01  0.34689460009E+01  0.10913299637E+02  0.51100000000E-03 0.  1.
        -12    1    4    4    0    0 -0.53930621882E+01 -0.35482323107E+01  0.13867193487E+02  0.15296212849E+02  0.00000000000E+00 0.  1.
</event>
<event>
 8    1  0.6469014E-010  0.9118800E+02  0.7816164E-02  0.1184000E+00
        -11   -1    0    0    0    0  0.00000000000E+00  0.00000000000E+00  0.45593999997E+02  0.45594000000E+02  0.51100000000E-03 0. -1.
         11   -1    0    0    0    0 -0.00000000000E+00 -0.00000000000E+00 -0.45593999997E+02  0.45594000000E+02  0.51100000000E-03 0.  1.
         23    2    1    2    0    0  0.00000000000E+00 -0.88817841970E-15  0.00000000000E+00  0.91188000000E+02  0.91188000000E+02 0.  0.
    9900012    2    3    3    0    0  0.41318131450E+02 -0.74046635620E+01 -0.11027526270E+02  0.47787269999E+02  0.19999995233E+02 0.  0.
         12    1    3    3    0    0 -0.41318131450E+02  0.74046635620E+01  0.11027526270E+02  0.43400730001E+02  0.00000000000E+00 0. -1.
         11    1    4    4    0    0  0.28040700607E+01  0.78269663125E+00 -0.38664670423E+01  0.48399370422E+01  0.51100000000E-03 0. -1.
        -11    1    4    4    0    0  0.20511162486E+02  0.36037612959E+01 -0.34568428643E+01  0.21110297128E+02  0.51100000000E-03 0.  1.
        -12    1    4    4    0    0  0.18002898904E+02 -0.11791121489E+02 -0.37042163635E+01  0.21837035829E+02  0.00000000000E+00 0.  1.
</event>
<event>
 8    1  0.6469014E-010  0.9118800E+02  0.7816164E-02  0.1184000E+00
        -11   -1    0    0    0    0  0.00000000000E+00  0.00000000000E+00  0.45593999997E+02  0.45594000000E+02  0.51100000000E-03 0. -1.
         11   -1    0    0    0    0 -0.00000000000E+00 -0.00000000000E+00 -0.45593999997E+02  0.45594000000E+02  0.51100000000E-03 0.  1.
         23    2    1    2    0    0  0.00000000000E+00  0.00000000000E+00  0.00000000000E+00  0.91188000000E+02  0.91188000000E+02 0.  0.
    9900012    2    3    3    0    0  0.53903179184E+01  0.24339980259E+02  0.35526515146E+02  0.47787269076E+02  0.19999991027E+02 0.  0.
        -12    1    3    3    0    0 -0.53903179184E+01 -0.24339980259E+02 -0.35526515146E+02  0.43400730924E+02  0.00000000000E+00 0.  1.
         11    1    4    4    0    0  0.39981585192E+01  0.82792366360E+01  0.15485598762E+02  0.18009297602E+02  0.51100000000E-03 0. -1.
        -11    1    4    4    0    0  0.61540509435E+01  0.10477834926E+01  0.49767704894E+01  0.79836356397E+01  0.51100000000E-03 0.  1.
        -12    1    4    4    0    0 -0.47618915442E+01  0.15012960130E+02  0.15064145895E+02  0.21794335835E+02  0.00000000000E+00 0.  1.
</event>
<event>
 8    1  0.6469014E-010  0.9118800E+02  0.7816164E-02  0.1184000E+00
        -11   -1    0    0    0    0  0.00000000000E+00  0.00000000000E+00  0.45593999997E+02  0.45594000000E+02  0.51100000000E-03 0. -1.
         11   -1    0    0    0    0 -0.00000000000E+00 -0.00000000000E+00 -0.45593999997E+02  0.45594000000E+02  0.51100000000E-03 0.  1.
         23    2    1    2    0    0  0.44408920985E-15  0.00000000000E+00  0.35527136788E-14  0.91188000000E+02  0.91188000000E+02 0.  0.
    9900012    2    3    3    0    0  0.28443685732E+01  0.30720216379E+02 -0.30525421517E+02  0.47787268604E+02  0.19999988873E+02 0.  0.
         12    1    3    3    0    0 -0.28443685732E+01 -0.30720216379E+02  0.30525421517E+02  0.43400731396E+02  0.00000000000E+00 0. -1.
         11    1    4    4    0    0  0.32067064850E+01 -0.18647501231E+01 -0.12672201508E+01  0.39199625858E+01  0.51100000000E-03 0. -1.
        -11    1    4    4    0    0 -0.37312005314E+00  0.18946245995E+02 -0.18658421029E+02  0.26593911549E+02  0.51100000000E-03 0.  1.
         12    1    4    4    0    0  0.10782141367E-01  0.13638720507E+02 -0.10599780337E+02  0.17273394469E+02  0.00000000000E+00 0. -1.
</event>
<event>
 8    1  0.6469014E-010  0.9118800E+02  0.7816164E-02  0.1184000E+00
        -11   -1    0    0    0    0  0.00000000000E+00  0.00000000000E+00  0.45593999997E+02  0.45594000000E+02  0.51100000000E-03 0. -1.
         11   -1    0    0    0    0 -0.00000000000E+00 -0.00000000000E+00 -0.45593999997E+02  0.45594000000E+02  0.51100000000E-03 0.  1.
         23    2    1    2    0    0  0.00000000000E+00  0.00000000000E+00  0.00000000000E+00  0.91188000000E+02  0.91188000000E+02 0.  0.
    9900012    2    3    3    0    0  0.22649950005E+02 -0.36152930089E+02  0.79729954201E+01  0.47787271375E+02  0.20000001507E+02 0.  0.
        -12    1    3    3    0    0 -0.22649950005E+02  0.36152930089E+02 -0.79729954201E+01  0.43400728625E+02  0.00000000000E+00 0.  1.
         11    1    4    4    0    0  0.98067382890E+01 -0.20392079156E+02  0.10038394691E+02  0.24754360755E+02  0.51100000000E-03 0. -1.
        -11    1    4    4    0    0  0.18247007723E+00 -0.66833062062E+01 -0.32015758287E+01  0.74128243755E+01  0.51100000000E-03 0.  1.
         12    1    4    4    0    0  0.12660741639E+02 -0.90775447263E+01  0.11361765580E+01  0.15620086244E+02  0.00000000000E+00 0. -1.
</event>
<event>
 8    1  0.6469014E-010  0.9118800E+02  0.7816164E-02  0.1184000E+00
        -11   -1    0    0    0    0  0.00000000000E+00  0.00000000000E+00  0.45593999997E+02  0.45594000000E+02  0.51100000000E-03 0.  1.
         11   -1    0    0    0    0 -0.00000000000E+00 -0.00000000000E+00 -0.45593999997E+02  0.45594000000E+02  0.51100000000E-03 0. -1.
         23    2    1    2    0    0  0.71054273576E-14  0.00000000000E+00  0.00000000000E+00  0.91188000000E+02  0.91188000000E+02 0.  0.
    9900012    2    3    3    0    0 -0.41689550559E+02  0.10606765336E+02  0.57534614345E+01  0.47787257896E+02  0.19999940052E+02 0.  0.
        -12    1    3    3    0    0  0.41689550559E+02 -0.10606765336E+02 -0.57534614345E+01  0.43400742104E+02  0.00000000000E+00 0.  1.
         11    1    4    4    0    0 -0.97447705260E+01  0.10721914912E+02 -0.20045912457E+01  0.14626633184E+02  0.51100000000E-03 0. -1.
        -11    1    4    4    0    0 -0.29776401957E+02 -0.82089024792E+00  0.62780518776E+01  0.30442107515E+02  0.51100000000E-03 0.  1.
        -12    1    4    4    0    0 -0.21683780758E+01  0.70574067178E+00  0.14800008026E+01  0.27185171971E+01  0.00000000000E+00 0.  1.
</event>
<event>
 8    1  0.6755534E-010  0.9118800E+02  0.7816164E-02  0.1184000E+00
        -11   -1    0    0    0    0  0.00000000000E+00  0.00000000000E+00  0.45593999997E+02  0.45594000000E+02  0.51100000000E-03 0. -1.
         11   -1    0    0    0    0 -0.00000000000E+00 -0.00000000000E+00 -0.45593999997E+02  0.45594000000E+02  0.51100000000E-03 0.  1.
         23    2    1    2    0    0 -0.66613381478E-15  0.71054273576E-14 -0.35527136788E-14  0.91188000000E+02  0.91188000000E+02 0.  0.
    9900012    2    3    3    0    0  0.10575199245E+01  0.35099423647E+02 -0.25505598174E+02  0.47787269281E+02  0.19999991960E+02 0.  0.
         12    1    3    3    0    0 -0.10575199245E+01 -0.35099423647E+02  0.25505598174E+02  0.43400730719E+02  0.00000000000E+00 0. -1.
         11    1    4    4    0    0  0.45758247892E+01  0.14291915123E+01 -0.27037280466E+01  0.55037175156E+01  0.51100000000E-03 0. -1.
        -11    1    4    4    0    0  0.12019104271E+00  0.27802769753E+02 -0.21750240771E+02  0.35299878551E+02  0.51100000000E-03 0.  1.
         12    1    4    4    0    0 -0.36384959075E+01  0.58674623815E+01 -0.10516293562E+01  0.69836732147E+01  0.00000000000E+00 0. -1.
</event>
<event>
 8    1  0.6469014E-010  0.9118800E+02  0.7816164E-02  0.1184000E+00
        -11   -1    0    0    0    0  0.00000000000E+00  0.00000000000E+00  0.45593999997E+02  0.45594000000E+02  0.51100000000E-03 0. -1.
         11   -1    0    0    0    0 -0.00000000000E+00 -0.00000000000E+00 -0.45593999997E+02  0.45594000000E+02  0.51100000000E-03 0.  1.
         23    2    1    2    0    0  0.00000000000E+00  0.00000000000E+00 -0.30531133177E-15  0.91188000000E+02  0.91188000000E+02 0.  0.
    9900012    2    3    3    0    0 -0.79175713083E+01  0.42672036195E+02  0.18071711113E+00  0.47787271122E+02  0.20000000353E+02 0.  0.
         12    1    3    3    0    0  0.79175713083E+01 -0.42672036195E+02 -0.18071711113E+00  0.43400728878E+02  0.00000000000E+00 0. -1.
         11    1    4    4    0    0  0.21335504778E+01  0.44003065182E+01 -0.25064955308E+01  0.54952029264E+01  0.51100000000E-03 0. -1.
        -11    1    4    4    0    0  0.27302221937E+00  0.13212258428E+02  0.68278509915E+01  0.14874739101E+02  0.51100000000E-03 0.  1.
        -12    1    4    4    0    0 -0.10324144005E+02  0.25059471250E+02 -0.41406383496E+01  0.27417329095E+02  0.00000000000E+00 0.  1.
</event>
<event>
 8    1  0.6469014E-010  0.9118800E+02  0.7816164E-02  0.1184000E+00
        -11   -1    0    0    0    0  0.00000000000E+00  0.00000000000E+00  0.45593999997E+02  0.45594000000E+02  0.51100000000E-03 0. -1.
         11   -1    0    0    0    0 -0.00000000000E+00 -0.00000000000E+00 -0.45593999997E+02  0.45594000000E+02  0.51100000000E-03 0.  1.
         23    2    1    2    0    0 -0.88817841970E-15  0.00000000000E+00 -0.71054273576E-14  0.91188000000E+02  0.91188000000E+02 0.  0.
    9900012    2    3    3    0    0  0.78793370582E+01 -0.27207264552E+02  0.32883173525E+02  0.47787282288E+02  0.20000051263E+02 0.  0.
        -12    1    3    3    0    0 -0.78793370582E+01  0.27207264552E+02 -0.32883173525E+02  0.43400717712E+02  0.00000000000E+00 0.  1.
         11    1    4    4    0    0  0.90738873144E+01 -0.75604617300E+01  0.19467767903E+02  0.22770375490E+02  0.51100000000E-03 0. -1.
        -11    1    4    4    0    0 -0.25301285503E+01 -0.85544990385E+01  0.22038317299E+01  0.91890085883E+01  0.51100000000E-03 0.  1.
         12    1    4    4    0    0  0.13355782941E+01 -0.11092303783E+02  0.11211573892E+02  0.15827898210E+02  0.00000000000E+00 0. -1.
</event>
<event>
 8    1  0.6469014E-010  0.9118800E+02  0.7816164E-02  0.1184000E+00
        -11   -1    0    0    0    0  0.00000000000E+00  0.00000000000E+00  0.45593999997E+02  0.45594000000E+02  0.51100000000E-03 0. -1.
         11   -1    0    0    0    0 -0.00000000000E+00 -0.00000000000E+00 -0.45593999997E+02  0.45594000000E+02  0.51100000000E-03 0.  1.
         23    2    1    2    0    0 -0.44408920985E-15  0.00000000000E+00  0.00000000000E+00  0.91188000000E+02  0.91188000000E+02 0.  0.
    9900012    2    3    3    0    0 -0.37228311947E+01 -0.11781333695E+02  0.41604858575E+02  0.47787267832E+02  0.19999985351E+02 0.  0.
        -12    1    3    3    0    0  0.37228311947E+01  0.11781333695E+02 -0.41604858575E+02  0.43400732168E+02  0.00000000000E+00 0.  1.
         11    1    4    4    0    0  0.18071824283E+01  0.52556590696E+00  0.37859134859E+01  0.42279154480E+01  0.51100000000E-03 0. -1.
        -11    1    4    4    0    0 -0.74009597291E+01  0.13001593356E+01  0.97459860437E+01  0.12306456169E+02  0.51100000000E-03 0.  1.
        -12    1    4    4    0    0  0.18709461061E+01 -0.13607058937E+02  0.28072959045E+02  0.31252896215E+02  0.00000000000E+00 0.  1.
</event>
<event>
 8    1  0.6469014E-010  0.9118800E+02  0.7816164E-02  0.1184000E+00
        -11   -1    0    0    0    0  0.00000000000E+00  0.00000000000E+00  0.45593999997E+02  0.45594000000E+02  0.51100000000E-03 0. -1.
         11   -1    0    0    0    0 -0.00000000000E+00 -0.00000000000E+00 -0.45593999997E+02  0.45594000000E+02  0.51100000000E-03 0.  1.
         23    2    1    2    0    0  0.00000000000E+00  0.17763568394E-14  0.00000000000E+00  0.91188000000E+02  0.91188000000E+02 0.  0.
    9900012    2    3    3    0    0  0.11195641931E+02 -0.15342662179E+02  0.39024129769E+02  0.47787281283E+02  0.20000046681E+02 0.  0.
        -12    1    3    3    0    0 -0.11195641931E+02  0.15342662179E+02 -0.39024129769E+02  0.43400718717E+02  0.00000000000E+00 0.  1.
         11    1    4    4    0    0  0.24458886114E+01 -0.73341750472E+00  0.98125623050E+00  0.27355321944E+01  0.51100000000E-03 0. -1.
        -11    1    4    4    0    0  0.87925590641E+01  0.70293512707E+00  0.13970219797E+02  0.16521811467E+02  0.51100000000E-03 0.  1.
        -12    1    4    4    0    0 -0.42805744398E-01 -0.15312179801E+02  0.24072653741E+02  0.28529937622E+02  0.00000000000E+00 0.  1.
</event>
<event>
 8    1  0.6469014E-010  0.9118800E+02  0.7816164E-02  0.1184000E+00
        -11   -1    0    0    0    0  0.00000000000E+00  0.00000000000E+00  0.45593999997E+02  0.45594000000E+02  0.51100000000E-03 0. -1.
         11   -1    0    0    0    0 -0.00000000000E+00 -0.00000000000E+00 -0.45593999997E+02  0.45594000000E+02  0.51100000000E-03 0.  1.
         23    2    1    2    0    0 -0.88817841970E-15  0.00000000000E+00  0.00000000000E+00  0.91188000000E+02  0.91188000000E+02 0.  0.
    9900012    2    3    3    0    0  0.76634919104E+01 -0.86476742239E+01 -0.41834339424E+02  0.47787270366E+02  0.19999996906E+02 0.  0.
         12    1    3    3    0    0 -0.76634919104E+01  0.86476742239E+01  0.41834339424E+02  0.43400729634E+02  0.00000000000E+00 0. -1.
         11    1    4    4    0    0  0.30044250271E+01  0.78654249336E+00 -0.45748210460E+00  0.31391892225E+01  0.51100000000E-03 0. -1.
        -11    1    4    4    0    0 -0.26887916953E+01 -0.60897619890E+01 -0.29798533286E+02  0.30533054025E+02  0.51100000000E-03 0.  1.
        -12    1    4    4    0    0  0.73478585786E+01 -0.33444547283E+01 -0.11578324033E+02  0.14115027118E+02  0.00000000000E+00 0.  1.
</event>
<event>
 8    1  0.6469014E-010  0.9118800E+02  0.7816164E-02  0.1184000E+00
        -11   -1    0    0    0    0  0.00000000000E+00  0.00000000000E+00  0.45593999997E+02  0.45594000000E+02  0.51100000000E-03 0. -1.
         11   -1    0    0    0    0 -0.00000000000E+00 -0.00000000000E+00 -0.45593999997E+02  0.45594000000E+02  0.51100000000E-03 0.  1.
         23    2    1    2    0    0  0.22204460493E-15 -0.17763568394E-14  0.71054273576E-14  0.91188000000E+02  0.91188000000E+02 0.  0.
    9900012    2    3    3    0    0  0.18630087009E+01  0.15595203508E+02 -0.40459141187E+02  0.47787270980E+02  0.19999999706E+02 0.  0.
         12    1    3    3    0    0 -0.18630087009E+01 -0.15595203508E+02  0.40459141187E+02  0.43400729020E+02  0.00000000000E+00 0. -1.
         11    1    4    4    0    0  0.39546569179E+00  0.15761525233E+02 -0.20796180669E+02  0.26097187616E+02  0.51100000000E-03 0. -1.
        -11    1    4    4    0    0  0.33509691407E+01 -0.27526520664E+01 -0.16947824113E+02  0.17493851206E+02  0.51100000000E-03 0.  1.
        -12    1    4    4    0    0 -0.18834261316E+01  0.25863303417E+01 -0.27151364046E+01  0.41962321582E+01  0.00000000000E+00 0.  1.
</event>
<event>
 8    1  0.6469014E-010  0.9118800E+02  0.7816164E-02  0.1184000E+00
        -11   -1    0    0    0    0  0.00000000000E+00  0.00000000000E+00  0.45593999997E+02  0.45594000000E+02  0.51100000000E-03 0. -1.
         11   -1    0    0    0    0 -0.00000000000E+00 -0.00000000000E+00 -0.45593999997E+02  0.45594000000E+02  0.51100000000E-03 0.  1.
         23    2    1    2    0    0  0.00000000000E+00  0.00000000000E+00  0.00000000000E+00  0.91188000000E+02  0.91188000000E+02 0.  0.
    9900012    2    3    3    0    0 -0.75780762634E+01  0.32258267372E+02 -0.28028565045E+02  0.47787268299E+02  0.19999987483E+02 0.  0.
         12    1    3    3    0    0  0.75780762634E+01 -0.32258267372E+02  0.28028565045E+02  0.43400731701E+02  0.00000000000E+00 0. -1.
         11    1    4    4    0    0  0.26984989371E+01  0.68241755534E+01 -0.68052207333E+01  0.10008111609E+02  0.51100000000E-03 0. -1.
        -11    1    4    4    0    0 -0.11294764513E+02  0.92322488103E+01 -0.13188438378E+02  0.19665732394E+02  0.51100000000E-03 0.  1.
        -12    1    4    4    0    0  0.10181893123E+01  0.16201843008E+02 -0.80349059341E+01  0.18113424295E+02  0.00000000000E+00 0.  1.
</event>
<event>
 8    1  0.6469014E-010  0.9118800E+02  0.7816164E-02  0.1184000E+00
        -11   -1    0    0    0    0  0.00000000000E+00  0.00000000000E+00  0.45593999997E+02  0.45594000000E+02  0.51100000000E-03 0.  1.
         11   -1    0    0    0    0 -0.00000000000E+00 -0.00000000000E+00 -0.45593999997E+02  0.45594000000E+02  0.51100000000E-03 0. -1.
         23    2    1    2    0    0  0.35527136788E-14 -0.71054273576E-14  0.00000000000E+00  0.91188000000E+02  0.91188000000E+02 0.  0.
    9900012    2    3    3    0    0 -0.19337526733E+02  0.37641874587E+02  0.96318790115E+01  0.47787265491E+02  0.19999974681E+02 0.  0.
        -12    1    3    3    0    0  0.19337526733E+02 -0.37641874587E+02 -0.96318790115E+01  0.43400734509E+02  0.00000000000E+00 0.  1.
         11    1    4    4    0    0 -0.72986271227E+01  0.13226841123E+02  0.10847904828E+01  0.15145826311E+02  0.51100000000E-03 0. -1.
        -11    1    4    4    0    0 -0.45672900051E+00  0.85530999642E+01 -0.38763585198E+01  0.94016102882E+01  0.51100000000E-03 0.  1.
        -12    1    4    4    0    0 -0.11582170610E+02  0.15861933500E+02  0.12423447049E+02  0.23239828892E+02  0.00000000000E+00 0.  1.
</event>
<event>
 8    1  0.6469014E-010  0.9118800E+02  0.7816164E-02  0.1184000E+00
        -11   -1    0    0    0    0  0.00000000000E+00  0.00000000000E+00  0.45593999997E+02  0.45594000000E+02  0.51100000000E-03 0. -1.
         11   -1    0    0    0    0 -0.00000000000E+00 -0.00000000000E+00 -0.45593999997E+02  0.45594000000E+02  0.51100000000E-03 0.  1.
         23    2    1    2    0    0  0.00000000000E+00  0.00000000000E+00  0.00000000000E+00  0.91188000000E+02  0.91188000000E+02 0.  0.
    9900012    2    3    3    0    0 -0.23149498884E+02 -0.22837928042E+02 -0.28742880210E+02  0.47787269377E+02  0.19999992399E+02 0.  0.
         12    1    3    3    0    0  0.23149498884E+02  0.22837928042E+02  0.28742880210E+02  0.43400730623E+02  0.00000000000E+00 0. -1.
         11    1    4    4    0    0 -0.49657499115E+01 -0.56233119569E+01 -0.16849389550E+02  0.18444029875E+02  0.51100000000E-03 0. -1.
        -11    1    4    4    0    0 -0.10605175853E+02 -0.70602125796E+01 -0.12612037428E+01  0.12802616595E+02  0.51100000000E-03 0.  1.
        -12    1    4    4    0    0 -0.75785731191E+01 -0.10154403505E+02 -0.10632286917E+02  0.16540622907E+02  0.00000000000E+00 0.  1.
</event>
<event>
 8    1  0.6469014E-010  0.9118800E+02  0.7816164E-02  0.1184000E+00
        -11   -1    0    0    0    0  0.00000000000E+00  0.00000000000E+00  0.45593999997E+02  0.45594000000E+02  0.51100000000E-03 0. -1.
         11   -1    0    0    0    0 -0.00000000000E+00 -0.00000000000E+00 -0.45593999997E+02  0.45594000000E+02  0.51100000000E-03 0.  1.
         23    2    1    2    0    0  0.00000000000E+00  0.71054273576E-14  0.17763568394E-14  0.91188000000E+02  0.91188000000E+02 0.  0.
    9900012    2    3    3    0    0 -0.15413365873E+02 -0.38730919496E+02 -0.12081697530E+02  0.47787269732E+02  0.19999994018E+02 0.  0.
         12    1    3    3    0    0  0.15413365873E+02  0.38730919496E+02  0.12081697530E+02  0.43400730268E+02  0.00000000000E+00 0. -1.
         11    1    4    4    0    0 -0.52649748549E+00  0.16156819984E+01 -0.22118688148E+01  0.27892636730E+01  0.51100000000E-03 0. -1.
        -11    1    4    4    0    0 -0.11802474701E+02 -0.19262433616E+02 -0.53402799914E+01  0.23213322652E+02  0.51100000000E-03 0.  1.
         12    1    4    4    0    0 -0.30843936864E+01 -0.21084167878E+02 -0.45295487241E+01  0.21784683408E+02  0.00000000000E+00 0. -1.
</event>
<event>
 8    1  0.6469014E-010  0.9118800E+02  0.7816164E-02  0.1184000E+00
        -11   -1    0    0    0    0  0.00000000000E+00  0.00000000000E+00  0.45593999997E+02  0.45594000000E+02  0.51100000000E-03 0. -1.
         11   -1    0    0    0    0 -0.00000000000E+00 -0.00000000000E+00 -0.45593999997E+02  0.45594000000E+02  0.51100000000E-03 0.  1.
         23    2    1    2    0    0 -0.17763568394E-14 -0.71054273576E-14  0.00000000000E+00  0.91188000000E+02  0.91188000000E+02 0.  0.
    9900012    2    3    3    0    0  0.10950259465E+02  0.31877345376E+02 -0.27341354481E+02  0.47787274252E+02  0.20000014627E+02 0.  0.
         12    1    3    3    0    0 -0.10950259465E+02 -0.31877345376E+02  0.27341354481E+02  0.43400725748E+02  0.00000000000E+00 0. -1.
         11    1    4    4    0    0  0.20133862124E+01 -0.87836371888E+00 -0.66006091989E+01  0.69565285107E+01  0.51100000000E-03 0.  1.
        -11    1    4    4    0    0  0.89769300147E+01  0.15546233785E+02 -0.11055581277E+02  0.21083086468E+02  0.51100000000E-03 0. -1.
         12    1    4    4    0    0 -0.40056762277E-01  0.17209475310E+02 -0.96851640047E+01  0.19747659274E+02  0.00000000000E+00 0. -1.
</event>
<event>
 8    1  0.6469014E-010  0.9118800E+02  0.7816164E-02  0.1184000E+00
        -11   -1    0    0    0    0  0.00000000000E+00  0.00000000000E+00  0.45593999997E+02  0.45594000000E+02  0.51100000000E-03 0. -1.
         11   -1    0    0    0    0 -0.00000000000E+00 -0.00000000000E+00 -0.45593999997E+02  0.45594000000E+02  0.51100000000E-03 0.  1.
         23    2    1    2    0    0  0.00000000000E+00  0.00000000000E+00  0.00000000000E+00  0.91188000000E+02  0.91188000000E+02 0.  0.
    9900012    2    3    3    0    0  0.79400707610E+01 -0.15783421746E+02 -0.39641668622E+02  0.47787274006E+02  0.20000013502E+02 0.  0.
         12    1    3    3    0    0 -0.79400707610E+01  0.15783421746E+02  0.39641668622E+02  0.43400725994E+02  0.00000000000E+00 0. -1.
         11    1    4    4    0    0 -0.42282260530E+01 -0.29926054754E+01 -0.27549460539E+01  0.58671382383E+01  0.51100000000E-03 0. -1.
        -11    1    4    4    0    0  0.12415890373E+02 -0.76561645103E+01 -0.29645168141E+02  0.33039479159E+02  0.51100000000E-03 0.  1.
        -12    1    4    4    0    0 -0.24759355862E+00 -0.51346517608E+01 -0.72415544268E+01  0.88806566081E+01  0.00000000000E+00 0.  1.
</event>
<event>
 8    1  0.6469014E-010  0.9118800E+02  0.7816164E-02  0.1184000E+00
        -11   -1    0    0    0    0  0.00000000000E+00  0.00000000000E+00  0.45593999997E+02  0.45594000000E+02  0.51100000000E-03 0. -1.
         11   -1    0    0    0    0 -0.00000000000E+00 -0.00000000000E+00 -0.45593999997E+02  0.45594000000E+02  0.51100000000E-03 0.  1.
         23    2    1    2    0    0  0.00000000000E+00  0.00000000000E+00  0.00000000000E+00  0.91188000000E+02  0.91188000000E+02 0.  0.
    9900012    2    3    3    0    0 -0.15916716366E+02  0.10227597138E+02  0.39059923621E+02  0.47787271476E+02  0.20000001970E+02 0.  0.
        -12    1    3    3    0    0  0.15916716366E+02 -0.10227597138E+02 -0.39059923621E+02  0.43400728524E+02  0.00000000000E+00 0.  1.
         11    1    4    4    0    0  0.10126125993E+01  0.50244183085E+01  0.14665768076E+02  0.15535601602E+02  0.51100000000E-03 0. -1.
        -11    1    4    4    0    0 -0.90610587044E+01  0.42719691128E+01  0.47838787014E+01  0.11101261218E+02  0.51100000000E-03 0.  1.
        -12    1    4    4    0    0 -0.78682702613E+01  0.93120971616E+00  0.19610276844E+02  0.21150408656E+02  0.00000000000E+00 0.  1.
</event>
<event>
 8    1  0.6469014E-010  0.9118800E+02  0.7816164E-02  0.1184000E+00
        -11   -1    0    0    0    0  0.00000000000E+00  0.00000000000E+00  0.45593999997E+02  0.45594000000E+02  0.51100000000E-03 0. -1.
         11   -1    0    0    0    0 -0.00000000000E+00 -0.00000000000E+00 -0.45593999997E+02  0.45594000000E+02  0.51100000000E-03 0.  1.
         23    2    1    2    0    0  0.35527136788E-14  0.00000000000E+00  0.00000000000E+00  0.91188000000E+02  0.91188000000E+02 0.  0.
    9900012    2    3    3    0    0 -0.15441535478E+02 -0.35506175292E+02 -0.19608498314E+02  0.47787277565E+02  0.20000029729E+02 0.  0.
         12    1    3    3    0    0  0.15441535478E+02  0.35506175292E+02  0.19608498314E+02  0.43400722435E+02  0.00000000000E+00 0. -1.
         11    1    4    4    0    0 -0.38828264819E+01 -0.69109630737E+00 -0.28915004655E+01  0.48902689903E+01  0.51100000000E-03 0. -1.
        -11    1    4    4    0    0 -0.56595404697E+01 -0.22150819517E+02 -0.17668202239E+02  0.28893850111E+02  0.51100000000E-03 0.  1.
        -12    1    4    4    0    0 -0.58991685266E+01 -0.12664259467E+02  0.95120439063E+00  0.14003158463E+02  0.00000000000E+00 0.  1.
</event>
<event>
 8    1  0.6469014E-010  0.9118800E+02  0.7816164E-02  0.1184000E+00
        -11   -1    0    0    0    0  0.00000000000E+00  0.00000000000E+00  0.45593999997E+02  0.45594000000E+02  0.51100000000E-03 0. -1.
         11   -1    0    0    0    0 -0.00000000000E+00 -0.00000000000E+00 -0.45593999997E+02  0.45594000000E+02  0.51100000000E-03 0.  1.
         23    2    1    2    0    0  0.35527136788E-14  0.00000000000E+00 -0.71054273576E-14  0.91188000000E+02  0.91188000000E+02 0.  0.
    9900012    2    3    3    0    0  0.24431798243E+02 -0.16195516868E+02  0.32006491303E+02  0.47787273997E+02  0.20000013463E+02 0.  0.
        -12    1    3    3    0    0 -0.24431798243E+02  0.16195516868E+02 -0.32006491303E+02  0.43400726003E+02  0.00000000000E+00 0.  1.
         11    1    4    4    0    0  0.63632094370E+01 -0.86117518666E+01  0.15211787032E+02  0.18602450632E+02  0.51100000000E-03 0. -1.
        -11    1    4    4    0    0  0.17545646576E+02 -0.13412994581E+01  0.12071158835E+02  0.21339205090E+02  0.51100000000E-03 0.  1.
        -12    1    4    4    0    0  0.52294223064E+00 -0.62424655430E+01  0.47235454371E+01  0.78456182757E+01  0.00000000000E+00 0.  1.
</event>
<event>
 8    1  0.6469014E-010  0.9118800E+02  0.7816164E-02  0.1184000E+00
        -11   -1    0    0    0    0  0.00000000000E+00  0.00000000000E+00  0.45593999997E+02  0.45594000000E+02  0.51100000000E-03 0. -1.
         11   -1    0    0    0    0 -0.00000000000E+00 -0.00000000000E+00 -0.45593999997E+02  0.45594000000E+02  0.51100000000E-03 0.  1.
         23    2    1    2    0    0  0.00000000000E+00  0.00000000000E+00  0.00000000000E+00  0.91188000000E+02  0.91188000000E+02 0.  0.
    9900012    2    3    3    0    0 -0.46906438235E+01  0.25241331670E+02 -0.34992802678E+02  0.47787271859E+02  0.20000003712E+02 0.  0.
         12    1    3    3    0    0  0.46906438235E+01 -0.25241331670E+02  0.34992802678E+02  0.43400728141E+02  0.00000000000E+00 0. -1.
         11    1    4    4    0    0 -0.72513077068E+01  0.20181803520E+02 -0.24362491401E+02  0.32456396046E+02  0.51100000000E-03 0.  1.
        -11    1    4    4    0    0 -0.23209181509E+01  0.56530417893E+01 -0.54493035717E+01  0.81877012777E+01  0.51100000000E-03 0. -1.
         12    1    4    4    0    0  0.48815820342E+01 -0.59351363909E+00 -0.51810077050E+01  0.71431745348E+01  0.00000000000E+00 0. -1.
</event>
<event>
 8    1  0.6469014E-010  0.9118800E+02  0.7816164E-02  0.1184000E+00
        -11   -1    0    0    0    0  0.00000000000E+00  0.00000000000E+00  0.45593999997E+02  0.45594000000E+02  0.51100000000E-03 0. -1.
         11   -1    0    0    0    0 -0.00000000000E+00 -0.00000000000E+00 -0.45593999997E+02  0.45594000000E+02  0.51100000000E-03 0.  1.
         23    2    1    2    0    0  0.88817841970E-15  0.00000000000E+00  0.00000000000E+00  0.91188000000E+02  0.91188000000E+02 0.  0.
    9900012    2    3    3    0    0  0.50171590162E+01 -0.35020919604E+02  0.25139352549E+02  0.47787265662E+02  0.19999975459E+02 0.  0.
        -12    1    3    3    0    0 -0.50171590162E+01  0.35020919604E+02 -0.25139352549E+02  0.43400734338E+02  0.00000000000E+00 0.  1.
         11    1    4    4    0    0  0.55073649796E+01 -0.16137795360E+02  0.88358948201E+01  0.19205013555E+02  0.51100000000E-03 0. -1.
        -11    1    4    4    0    0 -0.18942858525E+01 -0.37185749049E+01  0.12076318163E+02  0.12777072390E+02  0.51100000000E-03 0.  1.
        -12    1    4    4    0    0  0.14040798892E+01 -0.15164549339E+02  0.42271395652E+01  0.15805179717E+02  0.00000000000E+00 0.  1.
</event>
<event>
 8    1  0.6469014E-010  0.9118800E+02  0.7816164E-02  0.1184000E+00
        -11   -1    0    0    0    0  0.00000000000E+00  0.00000000000E+00  0.45593999997E+02  0.45594000000E+02  0.51100000000E-03 0. -1.
         11   -1    0    0    0    0 -0.00000000000E+00 -0.00000000000E+00 -0.45593999997E+02  0.45594000000E+02  0.51100000000E-03 0.  1.
         23    2    1    2    0    0 -0.99920072216E-15 -0.12212453271E-14  0.00000000000E+00  0.91188000000E+02  0.91188000000E+02 0.  0.
    9900012    2    3    3    0    0  0.36466220155E+00 -0.51758206871E+00  0.43396109640E+02  0.47787271877E+02  0.20000003795E+02 0.  0.
        -12    1    3    3    0    0 -0.36466220155E+00  0.51758206871E+00 -0.43396109640E+02  0.43400728123E+02  0.00000000000E+00 0.  1.
         11    1    4    4    0    0 -0.31696261587E+01 -0.73624198064E+01  0.17658294098E+02  0.19392449719E+02  0.51100000000E-03 0. -1.
        -11    1    4    4    0    0  0.12508902672E+01  0.92310752053E-02 -0.37485031206E+00  0.13058808103E+01  0.51100000000E-03 0.  1.
         12    1    4    4    0    0  0.22833980931E+01  0.68356066625E+01  0.26112665855E+02  0.27088941348E+02  0.00000000000E+00 0. -1.
</event>
<event>
 8    1  0.6469014E-010  0.9118800E+02  0.7816164E-02  0.1184000E+00
        -11   -1    0    0    0    0  0.00000000000E+00  0.00000000000E+00  0.45593999997E+02  0.45594000000E+02  0.51100000000E-03 0. -1.
         11   -1    0    0    0    0 -0.00000000000E+00 -0.00000000000E+00 -0.45593999997E+02  0.45594000000E+02  0.51100000000E-03 0.  1.
         23    2    1    2    0    0 -0.17763568394E-14 -0.17763568394E-14 -0.71054273576E-14  0.91188000000E+02  0.91188000000E+02 0.  0.
    9900012    2    3    3    0    0  0.68580564870E+01  0.10537796152E+02  0.41539680171E+02  0.47787272872E+02  0.20000008332E+02 0.  0.
        -12    1    3    3    0    0 -0.68580564870E+01 -0.10537796152E+02 -0.41539680171E+02  0.43400727128E+02  0.00000000000E+00 0.  1.
         11    1    4    4    0    0  0.28655605680E+01  0.40181995768E+01  0.42902772429E+01  0.65394070289E+01  0.51100000000E-03 0. -1.
        -11    1    4    4    0    0  0.86895847418E+01  0.68508080175E+01  0.33338211009E+02  0.35126610526E+02  0.51100000000E-03 0.  1.
        -12    1    4    4    0    0 -0.46970888227E+01 -0.33121144211E+00  0.39111919191E+01  0.61212553170E+01  0.00000000000E+00 0.  1.
</event>
<event>
 8    1  0.6469014E-010  0.9118800E+02  0.7816164E-02  0.1184000E+00
        -11   -1    0    0    0    0  0.00000000000E+00  0.00000000000E+00  0.45593999997E+02  0.45594000000E+02  0.51100000000E-03 0. -1.
         11   -1    0    0    0    0 -0.00000000000E+00 -0.00000000000E+00 -0.45593999997E+02  0.45594000000E+02  0.51100000000E-03 0.  1.
         23    2    1    2    0    0 -0.33306690739E-15  0.00000000000E+00  0.00000000000E+00  0.91188000000E+02  0.91188000000E+02 0.  0.
    9900012    2    3    3    0    0  0.82008729999E+00  0.40276811706E+02 -0.16147110107E+02  0.47787271099E+02  0.20000000247E+02 0.  0.
         12    1    3    3    0    0 -0.82008729999E+00 -0.40276811706E+02  0.16147110107E+02  0.43400728901E+02  0.00000000000E+00 0. -1.
         11    1    4    4    0    0  0.63347226528E+01  0.17484068421E+02 -0.59284934677E+01  0.19518411685E+02  0.51100000000E-03 0.  1.
        -11    1    4    4    0    0 -0.62589517606E+01  0.22880650338E+02 -0.66688947516E+01  0.24640876497E+02  0.51100000000E-03 0. -1.
        -12    1    4    4    0    0  0.74431640771E+00 -0.87907054033E-01 -0.35497218878E+01  0.36279829170E+01  0.00000000000E+00 0.  1.
</event>
<event>
 8    1  0.6469014E-010  0.9118800E+02  0.7816164E-02  0.1184000E+00
        -11   -1    0    0    0    0  0.00000000000E+00  0.00000000000E+00  0.45593999997E+02  0.45594000000E+02  0.51100000000E-03 0. -1.
         11   -1    0    0    0    0 -0.00000000000E+00 -0.00000000000E+00 -0.45593999997E+02  0.45594000000E+02  0.51100000000E-03 0.  1.
         23    2    1    2    0    0 -0.35527136788E-14  0.00000000000E+00  0.00000000000E+00  0.91188000000E+02  0.91188000000E+02 0.  0.
    9900012    2    3    3    0    0 -0.16092215624E+02  0.77944952756E+01  0.39546298779E+02  0.47787270658E+02  0.19999998240E+02 0.  0.
        -12    1    3    3    0    0  0.16092215624E+02 -0.77944952756E+01 -0.39546298779E+02  0.43400729342E+02  0.00000000000E+00 0.  1.
         11    1    4    4    0    0 -0.44891540642E+01  0.70499647216E+01  0.75733261192E+01  0.11278731115E+02  0.51100000000E-03 0. -1.
        -11    1    4    4    0    0 -0.13002050830E+02  0.29028302975E+01  0.31030264511E+02  0.33769173300E+02  0.51100000000E-03 0.  1.
        -12    1    4    4    0    0  0.13989892704E+01 -0.21582997435E+01  0.94270814871E+00  0.27393662433E+01  0.00000000000E+00 0.  1.
</event>
<event>
 8    1  0.6469014E-010  0.9118800E+02  0.7816164E-02  0.1184000E+00
        -11   -1    0    0    0    0  0.00000000000E+00  0.00000000000E+00  0.45593999997E+02  0.45594000000E+02  0.51100000000E-03 0. -1.
         11   -1    0    0    0    0 -0.00000000000E+00 -0.00000000000E+00 -0.45593999997E+02  0.45594000000E+02  0.51100000000E-03 0.  1.
         23    2    1    2    0    0  0.88817841970E-15  0.00000000000E+00  0.00000000000E+00  0.91188000000E+02  0.91188000000E+02 0.  0.
    9900012    2    3    3    0    0  0.42382866393E+01 -0.16025112338E+02 -0.40110547369E+02  0.47787270636E+02  0.19999998139E+02 0.  0.
         12    1    3    3    0    0 -0.42382866393E+01  0.16025112338E+02  0.40110547369E+02  0.43400729364E+02  0.00000000000E+00 0. -1.
         11    1    4    4    0    0 -0.96725840290E+00  0.27378950737E+01 -0.14891415980E+01  0.32633113876E+01  0.51100000000E-03 0. -1.
        -11    1    4    4    0    0  0.59554188118E+01 -0.14640012491E+02 -0.20287950489E+02  0.25717657636E+02  0.51100000000E-03 0.  1.
        -12    1    4    4    0    0 -0.74987376968E+00 -0.41229949205E+01 -0.18333455282E+02  0.18806301613E+02  0.00000000000E+00 0.  1.
</event>
<event>
 8    1  0.6469014E-010  0.9118800E+02  0.7816164E-02  0.1184000E+00
        -11   -1    0    0    0    0  0.00000000000E+00  0.00000000000E+00  0.45593999997E+02  0.45594000000E+02  0.51100000000E-03 0. -1.
         11   -1    0    0    0    0 -0.00000000000E+00 -0.00000000000E+00 -0.45593999997E+02  0.45594000000E+02  0.51100000000E-03 0.  1.
         23    2    1    2    0    0  0.00000000000E+00  0.00000000000E+00  0.71054273576E-14  0.91188000000E+02  0.91188000000E+02 0.  0.
    9900012    2    3    3    0    0 -0.20514920235E+02 -0.11326155623E+02  0.36530530600E+02  0.47787269368E+02  0.19999992358E+02 0.  0.
        -12    1    3    3    0    0  0.20514920235E+02  0.11326155623E+02 -0.36530530600E+02  0.43400730632E+02  0.00000000000E+00 0.  1.
         11    1    4    4    0    0 -0.86072373069E+01 -0.12758479407E+01  0.16918324785E+01  0.88642325907E+01  0.51100000000E-03 0.  1.
        -11    1    4    4    0    0 -0.70575612029E+01 -0.16565269372E+01  0.19204279650E+02  0.20526997071E+02  0.51100000000E-03 0. -1.
         12    1    4    4    0    0 -0.48501217250E+01 -0.83937807449E+01  0.15634418472E+02  0.18396039707E+02  0.00000000000E+00 0. -1.
</event>
<event>
 8    1  0.8438509E-010  0.9118800E+02  0.7816164E-02  0.1184000E+00
        -11   -1    0    0    0    0  0.00000000000E+00  0.00000000000E+00  0.45593999997E+02  0.45594000000E+02  0.51100000000E-03 0. -1.
         11   -1    0    0    0    0 -0.00000000000E+00 -0.00000000000E+00 -0.45593999997E+02  0.45594000000E+02  0.51100000000E-03 0.  1.
         23    2    1    2    0    0  0.00000000000E+00  0.44408920985E-15  0.00000000000E+00  0.91188000000E+02  0.91188000000E+02 0.  0.
    9900012    2    3    3    0    0  0.30330304792E+01  0.34677494076E+01 -0.43155519003E+02  0.47787269819E+02  0.19999994414E+02 0.  0.
         12    1    3    3    0    0 -0.30330304792E+01 -0.34677494076E+01  0.43155519003E+02  0.43400730181E+02  0.00000000000E+00 0. -1.
         11    1    4    4    0    0 -0.10074486518E+01  0.57449151900E+01 -0.26166496063E+01  0.63926409839E+01  0.51100000000E-03 0. -1.
        -11    1    4    4    0    0  0.58895448293E+01 -0.14432617993E+01 -0.25048705412E+02  0.25772221209E+02  0.51100000000E-03 0.  1.
         12    1    4    4    0    0 -0.18490656983E+01 -0.83390398300E+00 -0.15490163984E+02  0.15622407627E+02  0.00000000000E+00 0. -1.
</event>
<event>
 8    1  0.6469014E-010  0.9118800E+02  0.7816164E-02  0.1184000E+00
        -11   -1    0    0    0    0  0.00000000000E+00  0.00000000000E+00  0.45593999997E+02  0.45594000000E+02  0.51100000000E-03 0. -1.
         11   -1    0    0    0    0 -0.00000000000E+00 -0.00000000000E+00 -0.45593999997E+02  0.45594000000E+02  0.51100000000E-03 0.  1.
         23    2    1    2    0    0 -0.35527136788E-14  0.00000000000E+00  0.00000000000E+00  0.91188000000E+02  0.91188000000E+02 0.  0.
    9900012    2    3    3    0    0  0.27650668950E+02  0.27503662157E+02 -0.19042371202E+02  0.47787276199E+02  0.20000023502E+02 0.  0.
         12    1    3    3    0    0 -0.27650668950E+02 -0.27503662157E+02  0.19042371202E+02  0.43400723801E+02  0.00000000000E+00 0. -1.
         11    1    4    4    0    0  0.67799855421E+01  0.34415460785E+01 -0.27096576081E+01  0.80718453885E+01  0.51100000000E-03 0. -1.
        -11    1    4    4    0    0  0.75134581787E+01  0.19166941779E+02 -0.41837439376E+01  0.21007794376E+02  0.51100000000E-03 0.  1.
        -12    1    4    4    0    0  0.13357225229E+02  0.48951743000E+01 -0.12148969656E+02  0.18707636434E+02  0.00000000000E+00 0.  1.
</event>
<event>
 8    1  0.6469014E-010  0.9118800E+02  0.7816164E-02  0.1184000E+00
        -11   -1    0    0    0    0  0.00000000000E+00  0.00000000000E+00  0.45593999997E+02  0.45594000000E+02  0.51100000000E-03 0. -1.
         11   -1    0    0    0    0 -0.00000000000E+00 -0.00000000000E+00 -0.45593999997E+02  0.45594000000E+02  0.51100000000E-03 0.  1.
         23    2    1    2    0    0  0.00000000000E+00  0.00000000000E+00  0.00000000000E+00  0.91188000000E+02  0.91188000000E+02 0.  0.
    9900012    2    3    3    0    0 -0.87125032325E+01 -0.23832205417E+02 -0.35209987081E+02  0.47787252104E+02  0.19999913645E+02 0.  0.
         12    1    3    3    0    0  0.87125032325E+01  0.23832205417E+02  0.35209987081E+02  0.43400747896E+02  0.00000000000E+00 0. -1.
         11    1    4    4    0    0 -0.87888668648E+01 -0.89827636986E+01 -0.24162176010E+02  0.27234995396E+02  0.51100000000E-03 0. -1.
        -11    1    4    4    0    0 -0.30435436075E+01 -0.10565335188E+02 -0.39259825731E+01  0.11674879217E+02  0.51100000000E-03 0.  1.
         12    1    4    4    0    0  0.31199072399E+01 -0.42841065311E+01 -0.71218284980E+01  0.88773774906E+01  0.00000000000E+00 0. -1.
</event>
<event>
 8    1  0.6469014E-010  0.9118800E+02  0.7816164E-02  0.1184000E+00
        -11   -1    0    0    0    0  0.00000000000E+00  0.00000000000E+00  0.45593999997E+02  0.45594000000E+02  0.51100000000E-03 0. -1.
         11   -1    0    0    0    0 -0.00000000000E+00 -0.00000000000E+00 -0.45593999997E+02  0.45594000000E+02  0.51100000000E-03 0.  1.
         23    2    1    2    0    0  0.00000000000E+00  0.00000000000E+00  0.00000000000E+00  0.91188000000E+02  0.91188000000E+02 0.  0.
    9900012    2    3    3    0    0  0.32450774296E+02  0.21454970293E+02 -0.19242001710E+02  0.47787272673E+02  0.20000007427E+02 0.  0.
         12    1    3    3    0    0 -0.32450774296E+02 -0.21454970293E+02  0.19242001710E+02  0.43400727327E+02  0.00000000000E+00 0. -1.
         11    1    4    4    0    0  0.10772117881E+02  0.90052811474E+01 -0.12373682173E+02  0.18714743465E+02  0.51100000000E-03 0. -1.
        -11    1    4    4    0    0  0.81034096205E+01  0.70749838263E+01  0.33322944437E+01  0.11261653082E+02  0.51100000000E-03 0.  1.
        -12    1    4    4    0    0  0.13575246794E+02  0.53747053192E+01 -0.10200613981E+02  0.17810876126E+02  0.00000000000E+00 0.  1.
</event>
<event>
 8    1  0.6469014E-010  0.9118800E+02  0.7816164E-02  0.1184000E+00
        -11   -1    0    0    0    0  0.00000000000E+00  0.00000000000E+00  0.45593999997E+02  0.45594000000E+02  0.51100000000E-03 0. -1.
         11   -1    0    0    0    0 -0.00000000000E+00 -0.00000000000E+00 -0.45593999997E+02  0.45594000000E+02  0.51100000000E-03 0.  1.
         23    2    1    2    0    0  0.00000000000E+00  0.00000000000E+00  0.00000000000E+00  0.91188000000E+02  0.91188000000E+02 0.  0.
    9900012    2    3    3    0    0 -0.42244775270E+01 -0.39226036966E+02 -0.18085764262E+02  0.47787273561E+02  0.20000011476E+02 0.  0.
         12    1    3    3    0    0  0.42244775270E+01  0.39226036966E+02  0.18085764262E+02  0.43400726439E+02  0.00000000000E+00 0. -1.
         11    1    4    4    0    0  0.66833929660E+01 -0.12578054052E+02 -0.10758413911E+01  0.14283998748E+02  0.51100000000E-03 0. -1.
        -11    1    4    4    0    0 -0.70170516718E+01 -0.15008590934E+02 -0.10439245510E+02  0.19582509111E+02  0.51100000000E-03 0.  1.
         12    1    4    4    0    0 -0.38908188211E+01 -0.11639391980E+02 -0.65706773606E+01  0.13920765703E+02  0.00000000000E+00 0. -1.
</event>
<event>
 8    1  0.6469014E-010  0.9118800E+02  0.7816164E-02  0.1184000E+00
        -11   -1    0    0    0    0  0.00000000000E+00  0.00000000000E+00  0.45593999997E+02  0.45594000000E+02  0.51100000000E-03 0. -1.
         11   -1    0    0    0    0 -0.00000000000E+00 -0.00000000000E+00 -0.45593999997E+02  0.45594000000E+02  0.51100000000E-03 0.  1.
         23    2    1    2    0    0  0.00000000000E+00  0.44408920985E-15  0.00000000000E+00  0.91188000000E+02  0.91188000000E+02 0.  0.
    9900012    2    3    3    0    0 -0.16210492054E+02  0.32852993012E+01  0.40125427682E+02  0.47787272002E+02  0.20000004365E+02 0.  0.
        -12    1    3    3    0    0  0.16210492054E+02 -0.32852993012E+01 -0.40125427682E+02  0.43400727998E+02  0.00000000000E+00 0.  1.
         11    1    4    4    0    0 -0.58448609765E+01 -0.57892264677E+01  0.17085424220E+02  0.18962839027E+02  0.51100000000E-03 0. -1.
        -11    1    4    4    0    0 -0.23869670804E+01  0.58280159028E+01  0.17460043745E+02  0.18561155919E+02  0.51100000000E-03 0.  1.
         12    1    4    4    0    0 -0.79786639966E+01  0.32465098662E+01  0.55799597167E+01  0.10263277056E+02  0.00000000000E+00 0. -1.
</event>
<event>
 8    1  0.6469014E-010  0.9118800E+02  0.7816164E-02  0.1184000E+00
        -11   -1    0    0    0    0  0.00000000000E+00  0.00000000000E+00  0.45593999997E+02  0.45594000000E+02  0.51100000000E-03 0. -1.
         11   -1    0    0    0    0 -0.00000000000E+00 -0.00000000000E+00 -0.45593999997E+02  0.45594000000E+02  0.51100000000E-03 0.  1.
         23    2    1    2    0    0  0.00000000000E+00  0.00000000000E+00  0.00000000000E+00  0.91188000000E+02  0.91188000000E+02 0.  0.
    9900012    2    3    3    0    0 -0.10558115016E+02 -0.20301995389E+02 -0.36877885547E+02  0.47787271298E+02  0.20000001157E+02 0.  0.
         12    1    3    3    0    0  0.10558115016E+02  0.20301995389E+02  0.36877885547E+02  0.43400728702E+02  0.00000000000E+00 0. -1.
         11    1    4    4    0    0  0.35932248780E+01 -0.89721082645E+01 -0.10140619403E+02  0.14008645683E+02  0.51100000000E-03 0. -1.
        -11    1    4    4    0    0 -0.15166336793E+02 -0.12072715001E+02 -0.25100159704E+02  0.31714133074E+02  0.51100000000E-03 0.  1.
         12    1    4    4    0    0  0.10149968986E+01  0.74282787638E+00 -0.16371064393E+01  0.20644925409E+01  0.00000000000E+00 0. -1.
</event>
<event>
 8    1  0.6469014E-010  0.9118800E+02  0.7816164E-02  0.1184000E+00
        -11   -1    0    0    0    0  0.00000000000E+00  0.00000000000E+00  0.45593999997E+02  0.45594000000E+02  0.51100000000E-03 0. -1.
         11   -1    0    0    0    0 -0.00000000000E+00 -0.00000000000E+00 -0.45593999997E+02  0.45594000000E+02  0.51100000000E-03 0.  1.
         23    2    1    2    0    0  0.00000000000E+00  0.00000000000E+00  0.35527136788E-14  0.91188000000E+02  0.91188000000E+02 0.  0.
    9900012    2    3    3    0    0 -0.35703204770E+02 -0.58421043537E+01  0.23974451088E+02  0.47787270524E+02  0.19999997625E+02 0.  0.
        -12    1    3    3    0    0  0.35703204770E+02  0.58421043537E+01 -0.23974451088E+02  0.43400729476E+02  0.00000000000E+00 0.  1.
         11    1    4    4    0    0 -0.14177429959E+02 -0.52021573316E+01  0.14241628112E+02  0.20757792096E+02  0.51100000000E-03 0. -1.
        -11    1    4    4    0    0 -0.19918781529E+01 -0.31725079854E+01 -0.18510518763E+01  0.41783703525E+01  0.51100000000E-03 0.  1.
        -12    1    4    4    0    0 -0.19533896658E+02  0.25325609633E+01  0.11583874853E+02  0.22851108075E+02  0.00000000000E+00 0.  1.
</event>
<event>
 8    1  0.6469014E-010  0.9118800E+02  0.7816164E-02  0.1184000E+00
        -11   -1    0    0    0    0  0.00000000000E+00  0.00000000000E+00  0.45593999997E+02  0.45594000000E+02  0.51100000000E-03 0. -1.
         11   -1    0    0    0    0 -0.00000000000E+00 -0.00000000000E+00 -0.45593999997E+02  0.45594000000E+02  0.51100000000E-03 0.  1.
         23    2    1    2    0    0  0.17763568394E-14  0.71054273576E-14  0.00000000000E+00  0.91188000000E+02  0.91188000000E+02 0.  0.
    9900012    2    3    3    0    0 -0.13026545733E+02 -0.35818828082E+02  0.20759185957E+02  0.47787272581E+02  0.20000007004E+02 0.  0.
        -12    1    3    3    0    0  0.13026545733E+02  0.35818828082E+02 -0.20759185957E+02  0.43400727419E+02  0.00000000000E+00 0.  1.
         11    1    4    4    0    0 -0.67634763042E+01 -0.79005928038E+01  0.15425999421E+02  0.18604446693E+02  0.51100000000E-03 0. -1.
        -11    1    4    4    0    0 -0.23902927555E+01 -0.65793518525E+01  0.10977827875E+01  0.70856543499E+01  0.51100000000E-03 0.  1.
         12    1    4    4    0    0 -0.38727766731E+01 -0.21338883426E+02  0.42354037488E+01  0.22097171537E+02  0.00000000000E+00 0. -1.
</event>
<event>
 8    1  0.6469014E-010  0.9118800E+02  0.7816164E-02  0.1184000E+00
        -11   -1    0    0    0    0  0.00000000000E+00  0.00000000000E+00  0.45593999997E+02  0.45594000000E+02  0.51100000000E-03 0. -1.
         11   -1    0    0    0    0 -0.00000000000E+00 -0.00000000000E+00 -0.45593999997E+02  0.45594000000E+02  0.51100000000E-03 0.  1.
         23    2    1    2    0    0  0.00000000000E+00  0.00000000000E+00  0.71054273576E-14  0.91188000000E+02  0.91188000000E+02 0.  0.
    9900012    2    3    3    0    0 -0.11536391738E+02  0.17196741574E+02 -0.38141934674E+02  0.47787269179E+02  0.19999991495E+02 0.  0.
         12    1    3    3    0    0  0.11536391738E+02 -0.17196741574E+02  0.38141934674E+02  0.43400730821E+02  0.00000000000E+00 0. -1.
         11    1    4    4    0    0 -0.29637880984E+01  0.18042785152E+01 -0.59151567056E+01  0.68577357754E+01  0.51100000000E-03 0.  1.
        -11    1    4    4    0    0 -0.13500622406E+02  0.12162997606E+02 -0.18214152475E+02  0.25728596284E+02  0.51100000000E-03 0. -1.
        -12    1    4    4    0    0  0.49280187669E+01  0.32294654523E+01 -0.14012625494E+02  0.15200937119E+02  0.00000000000E+00 0.  1.
</event>
<event>
 8    1  0.6469014E-010  0.9118800E+02  0.7816164E-02  0.1184000E+00
        -11   -1    0    0    0    0  0.00000000000E+00  0.00000000000E+00  0.45593999997E+02  0.45594000000E+02  0.51100000000E-03 0.  1.
         11   -1    0    0    0    0 -0.00000000000E+00 -0.00000000000E+00 -0.45593999997E+02  0.45594000000E+02  0.51100000000E-03 0. -1.
         23    2    1    2    0    0  0.00000000000E+00  0.35527136788E-14  0.35527136788E-14  0.91188000000E+02  0.91188000000E+02 0.  0.
    9900012    2    3    3    0    0  0.22900237699E+02 -0.27588155110E+02 -0.24456003193E+02  0.47787270960E+02  0.19999999613E+02 0.  0.
         12    1    3    3    0    0 -0.22900237699E+02  0.27588155110E+02  0.24456003193E+02  0.43400729040E+02  0.00000000000E+00 0. -1.
         11    1    4    4    0    0  0.12907368731E+02 -0.10529854877E+02 -0.20480991393E+01  0.16783108223E+02  0.51100000000E-03 0. -1.
        -11    1    4    4    0    0  0.69338318221E+01 -0.62049390291E+01 -0.14510074754E+02  0.17237214442E+02  0.51100000000E-03 0.  1.
         12    1    4    4    0    0  0.30590371457E+01 -0.10853361204E+02 -0.78978293001E+01  0.13766948294E+02  0.00000000000E+00 0. -1.
</event>
<event>
 8    1  0.6469014E-010  0.9118800E+02  0.7816164E-02  0.1184000E+00
        -11   -1    0    0    0    0  0.00000000000E+00  0.00000000000E+00  0.45593999997E+02  0.45594000000E+02  0.51100000000E-03 0. -1.
         11   -1    0    0    0    0 -0.00000000000E+00 -0.00000000000E+00 -0.45593999997E+02  0.45594000000E+02  0.51100000000E-03 0.  1.
         23    2    1    2    0    0  0.71054273576E-14  0.00000000000E+00 -0.35527136788E-14  0.91188000000E+02  0.91188000000E+02 0.  0.
    9900012    2    3    3    0    0  0.34971134437E+02 -0.95988630552E+01  0.23843341790E+02  0.47787270012E+02  0.19999995292E+02 0.  0.
        -12    1    3    3    0    0 -0.34971134437E+02  0.95988630552E+01 -0.23843341790E+02  0.43400729988E+02  0.00000000000E+00 0.  1.
         11    1    4    4    0    0  0.33850307486E+02 -0.67242717472E+01  0.18194651005E+02  0.39014157339E+02  0.51100000000E-03 0.  1.
        -11    1    4    4    0    0  0.21271570777E+00 -0.17072939015E+01  0.67265382439E+01  0.69430841451E+01  0.51100000000E-03 0. -1.
         12    1    4    4    0    0  0.90811124392E+00 -0.11672974065E+01 -0.10778474594E+01  0.18300285278E+01  0.00000000000E+00 0. -1.
</event>
<event>
 8    1  0.6469014E-010  0.9118800E+02  0.7816164E-02  0.1184000E+00
        -11   -1    0    0    0    0  0.00000000000E+00  0.00000000000E+00  0.45593999997E+02  0.45594000000E+02  0.51100000000E-03 0. -1.
         11   -1    0    0    0    0 -0.00000000000E+00 -0.00000000000E+00 -0.45593999997E+02  0.45594000000E+02  0.51100000000E-03 0.  1.
         23    2    1    2    0    0  0.00000000000E+00  0.00000000000E+00  0.17763568394E-14  0.91188000000E+02  0.91188000000E+02 0.  0.
    9900012    2    3    3    0    0  0.22877041365E+02 -0.33393293985E+02  0.15657319833E+02  0.47787276859E+02  0.20000026511E+02 0.  0.
        -12    1    3    3    0    0 -0.22877041365E+02  0.33393293985E+02 -0.15657319833E+02  0.43400723141E+02  0.00000000000E+00 0.  1.
         11    1    4    4    0    0  0.21201472434E+02 -0.21320246025E+02  0.14091718368E+02  0.33205900842E+02  0.51100000000E-03 0. -1.
        -11    1    4    4    0    0 -0.69988859656E+00  0.41896669895E+00 -0.13111339928E+01  0.15441663610E+01  0.51100000000E-03 0.  1.
         12    1    4    4    0    0  0.23754575280E+01 -0.12492014659E+02  0.28767354576E+01  0.13037209656E+02  0.00000000000E+00 0. -1.
</event>
<event>
 8    1  0.6469014E-010  0.9118800E+02  0.7816164E-02  0.1184000E+00
        -11   -1    0    0    0    0  0.00000000000E+00  0.00000000000E+00  0.45593999997E+02  0.45594000000E+02  0.51100000000E-03 0. -1.
         11   -1    0    0    0    0 -0.00000000000E+00 -0.00000000000E+00 -0.45593999997E+02  0.45594000000E+02  0.51100000000E-03 0.  1.
         23    2    1    2    0    0 -0.17763568394E-14  0.00000000000E+00 -0.35527136788E-14  0.91188000000E+02  0.91188000000E+02 0.  0.
    9900012    2    3    3    0    0 -0.96095742277E+01 -0.33281688362E+02 -0.26145907888E+02  0.47787271938E+02  0.20000004073E+02 0.  0.
         12    1    3    3    0    0  0.96095742277E+01  0.33281688362E+02  0.26145907888E+02  0.43400728062E+02  0.00000000000E+00 0. -1.
         11    1    4    4    0    0  0.26097670796E+01 -0.56376153148E+01 -0.92669645951E+00  0.62811111466E+01  0.51100000000E-03 0. -1.
        -11    1    4    4    0    0 -0.11312964636E+02 -0.23009536058E+02 -0.13731437207E+02  0.29085637117E+02  0.51100000000E-03 0.  1.
        -12    1    4    4    0    0 -0.90637667106E+00 -0.46345369885E+01 -0.11487774222E+02  0.12420523674E+02  0.00000000000E+00 0.  1.
</event>
<event>
 8    1  0.6469014E-010  0.9118800E+02  0.7816164E-02  0.1184000E+00
        -11   -1    0    0    0    0  0.00000000000E+00  0.00000000000E+00  0.45593999997E+02  0.45594000000E+02  0.51100000000E-03 0. -1.
         11   -1    0    0    0    0 -0.00000000000E+00 -0.00000000000E+00 -0.45593999997E+02  0.45594000000E+02  0.51100000000E-03 0.  1.
         23    2    1    2    0    0 -0.35527136788E-14 -0.35527136788E-14  0.00000000000E+00  0.91188000000E+02  0.91188000000E+02 0.  0.
    9900012    2    3    3    0    0 -0.23964429708E+02 -0.28746923105E+02 -0.21975999405E+02  0.47787262345E+02  0.19999960334E+02 0.  0.
         12    1    3    3    0    0  0.23964429708E+02  0.28746923105E+02  0.21975999405E+02  0.43400737655E+02  0.00000000000E+00 0. -1.
         11    1    4    4    0    0 -0.11273514788E+02 -0.22336331341E+02 -0.13183510313E+02  0.28280890684E+02  0.51100000000E-03 0. -1.
        -11    1    4    4    0    0 -0.40520293147E+01  0.20946729751E+01 -0.50804025110E+01  0.68276706404E+01  0.51100000000E-03 0.  1.
        -12    1    4    4    0    0 -0.86388856053E+01 -0.85052647385E+01 -0.37120865807E+01  0.12678701020E+02  0.00000000000E+00 0.  1.
</event>
<event>
 8    1  0.6469014E-010  0.9118800E+02  0.7816164E-02  0.1184000E+00
        -11   -1    0    0    0    0  0.00000000000E+00  0.00000000000E+00  0.45593999997E+02  0.45594000000E+02  0.51100000000E-03 0. -1.
         11   -1    0    0    0    0 -0.00000000000E+00 -0.00000000000E+00 -0.45593999997E+02  0.45594000000E+02  0.51100000000E-03 0.  1.
         23    2    1    2    0    0  0.00000000000E+00  0.00000000000E+00  0.00000000000E+00  0.91188000000E+02  0.91188000000E+02 0.  0.
    9900012    2    3    3    0    0 -0.59091732489E+01 -0.20148723204E+02  0.37983337378E+02  0.47787270817E+02  0.19999998961E+02 0.  0.
        -12    1    3    3    0    0  0.59091732489E+01  0.20148723204E+02 -0.37983337378E+02  0.43400729183E+02  0.00000000000E+00 0.  1.
         11    1    4    4    0    0 -0.68512278849E+01 -0.27152015531E+01  0.21236564499E+02  0.22478952711E+02  0.51100000000E-03 0. -1.
        -11    1    4    4    0    0 -0.21291738212E+01 -0.14586192640E+02  0.13753262787E+02  0.20160422476E+02  0.51100000000E-03 0.  1.
         12    1    4    4    0    0  0.30712284573E+01 -0.28473290115E+01  0.29935100931E+01  0.51478956296E+01  0.00000000000E+00 0. -1.
</event>
<event>
 8    1  0.6469014E-010  0.9118800E+02  0.7816164E-02  0.1184000E+00
        -11   -1    0    0    0    0  0.00000000000E+00  0.00000000000E+00  0.45593999997E+02  0.45594000000E+02  0.51100000000E-03 0. -1.
         11   -1    0    0    0    0 -0.00000000000E+00 -0.00000000000E+00 -0.45593999997E+02  0.45594000000E+02  0.51100000000E-03 0.  1.
         23    2    1    2    0    0  0.71054273576E-14  0.00000000000E+00  0.00000000000E+00  0.91188000000E+02  0.91188000000E+02 0.  0.
    9900012    2    3    3    0    0 -0.36421207433E+02  0.43589496219E+01  0.23197390509E+02  0.47787265915E+02  0.19999976613E+02 0.  0.
        -12    1    3    3    0    0  0.36421207433E+02 -0.43589496219E+01 -0.23197390509E+02  0.43400734085E+02  0.00000000000E+00 0.  1.
         11    1    4    4    0    0 -0.59348561875E+01  0.25820556651E+01  0.66552527984E+01  0.92834217558E+01  0.51100000000E-03 0. -1.
        -11    1    4    4    0    0 -0.14803048797E+02 -0.12815063324E+01  0.16923456061E+02  0.22520565656E+02  0.51100000000E-03 0.  1.
        -12    1    4    4    0    0 -0.15683302449E+02  0.30584002892E+01 -0.38131834990E+00  0.15983278503E+02  0.00000000000E+00 0.  1.
</event>
<event>
 8    1  0.6469014E-010  0.9118800E+02  0.7816164E-02  0.1184000E+00
        -11   -1    0    0    0    0  0.00000000000E+00  0.00000000000E+00  0.45593999997E+02  0.45594000000E+02  0.51100000000E-03 0. -1.
         11   -1    0    0    0    0 -0.00000000000E+00 -0.00000000000E+00 -0.45593999997E+02  0.45594000000E+02  0.51100000000E-03 0.  1.
         23    2    1    2    0    0 -0.13322676296E-14  0.00000000000E+00  0.00000000000E+00  0.91188000000E+02  0.91188000000E+02 0.  0.
    9900012    2    3    3    0    0 -0.35191601128E+01 -0.42755251449E+02  0.65747346400E+01  0.47787272472E+02  0.20000006510E+02 0.  0.
        -12    1    3    3    0    0  0.35191601128E+01  0.42755251449E+02 -0.65747346400E+01  0.43400727528E+02  0.00000000000E+00 0.  1.
         11    1    4    4    0    0 -0.22844586946E+01 -0.10199106252E+02  0.65876067149E+01  0.12354638091E+02  0.51100000000E-03 0. -1.
        -11    1    4    4    0    0  0.56322498381E+01 -0.22578033640E+02 -0.90134031100E+00  0.23287384050E+02  0.51100000000E-03 0.  1.
        -12    1    4    4    0    0 -0.68669512564E+01 -0.99781115569E+01  0.88846823611E+00  0.12145250331E+02  0.00000000000E+00 0.  1.
</event>
<event>
 8    1  0.6469014E-010  0.9118800E+02  0.7816164E-02  0.1184000E+00
        -11   -1    0    0    0    0  0.00000000000E+00  0.00000000000E+00  0.45593999997E+02  0.45594000000E+02  0.51100000000E-03 0. -1.
         11   -1    0    0    0    0 -0.00000000000E+00 -0.00000000000E+00 -0.45593999997E+02  0.45594000000E+02  0.51100000000E-03 0.  1.
         23    2    1    2    0    0  0.00000000000E+00  0.00000000000E+00  0.71054273576E-14  0.91188000000E+02  0.91188000000E+02 0.  0.
    9900012    2    3    3    0    0 -0.19452822493E+02 -0.76140102949E+01  0.38042582728E+02  0.47787267790E+02  0.19999985161E+02 0.  0.
        -12    1    3    3    0    0  0.19452822493E+02  0.76140102949E+01 -0.38042582728E+02  0.43400732210E+02  0.00000000000E+00 0.  1.
         11    1    4    4    0    0 -0.14514984391E+02 -0.74808300344E+01  0.25528948750E+02  0.30304699544E+02  0.51100000000E-03 0. -1.
        -11    1    4    4    0    0 -0.53232461307E+01  0.45607118633E+01  0.49828246875E+01  0.86003246564E+01  0.51100000000E-03 0.  1.
        -12    1    4    4    0    0  0.38540802835E+00 -0.46938921238E+01  0.75308092905E+01  0.88822435897E+01  0.00000000000E+00 0.  1.
</event>
<event>
 8    1  0.6469014E-010  0.9118800E+02  0.7816164E-02  0.1184000E+00
        -11   -1    0    0    0    0  0.00000000000E+00  0.00000000000E+00  0.45593999997E+02  0.45594000000E+02  0.51100000000E-03 0. -1.
         11   -1    0    0    0    0 -0.00000000000E+00 -0.00000000000E+00 -0.45593999997E+02  0.45594000000E+02  0.51100000000E-03 0.  1.
         23    2    1    2    0    0  0.35527136788E-14  0.35527136788E-14  0.00000000000E+00  0.91188000000E+02  0.91188000000E+02 0.  0.
    9900012    2    3    3    0    0  0.30908569819E+02  0.26483983487E+02 -0.15062608927E+02  0.47787271236E+02  0.20000000873E+02 0.  0.
         12    1    3    3    0    0 -0.30908569819E+02 -0.26483983487E+02  0.15062608927E+02  0.43400728764E+02  0.00000000000E+00 0. -1.
         11    1    4    4    0    0  0.95211570821E+01 -0.39620747022E+00 -0.45048541424E+00  0.95400393034E+01  0.51100000000E-03 0. -1.
        -11    1    4    4    0    0  0.20648041611E+02  0.21332033671E+02 -0.13095038974E+02  0.32448071266E+02  0.51100000000E-03 0.  1.
         12    1    4    4    0    0  0.73937112527E+00  0.55481572865E+01 -0.15170845381E+01  0.57991606662E+01  0.00000000000E+00 0. -1.
</event>
<event>
 8    1  0.6469014E-010  0.9118800E+02  0.7816164E-02  0.1184000E+00
        -11   -1    0    0    0    0  0.00000000000E+00  0.00000000000E+00  0.45593999997E+02  0.45594000000E+02  0.51100000000E-03 0. -1.
         11   -1    0    0    0    0 -0.00000000000E+00 -0.00000000000E+00 -0.45593999997E+02  0.45594000000E+02  0.51100000000E-03 0.  1.
         23    2    1    2    0    0  0.00000000000E+00  0.00000000000E+00  0.35527136788E-14  0.91188000000E+02  0.91188000000E+02 0.  0.
    9900012    2    3    3    0    0 -0.17722776307E+02 -0.29710562977E+02 -0.26207029223E+02  0.47787277275E+02  0.20000028406E+02 0.  0.
         12    1    3    3    0    0  0.17722776307E+02  0.29710562977E+02  0.26207029223E+02  0.43400722725E+02  0.00000000000E+00 0. -1.
         11    1    4    4    0    0  0.15394986098E+01 -0.95102227644E+01 -0.36858675385E+01  0.10315038186E+02  0.51100000000E-03 0. -1.
        -11    1    4    4    0    0 -0.18418358559E+02 -0.18520370718E+02 -0.15875693994E+02  0.30565956939E+02  0.51100000000E-03 0.  1.
         12    1    4    4    0    0 -0.84391635766E+00 -0.16799694943E+01 -0.66454676900E+01  0.69062821503E+01  0.00000000000E+00 0. -1.
</event>
<event>
 8    1  0.6469014E-010  0.9118800E+02  0.7816164E-02  0.1184000E+00
        -11   -1    0    0    0    0  0.00000000000E+00  0.00000000000E+00  0.45593999997E+02  0.45594000000E+02  0.51100000000E-03 0. -1.
         11   -1    0    0    0    0 -0.00000000000E+00 -0.00000000000E+00 -0.45593999997E+02  0.45594000000E+02  0.51100000000E-03 0.  1.
         23    2    1    2    0    0  0.00000000000E+00  0.44408920985E-15  0.00000000000E+00  0.91188000000E+02  0.91188000000E+02 0.  0.
    9900012    2    3    3    0    0  0.22950793897E+02  0.25553583010E+01 -0.36747168215E+02  0.47787272260E+02  0.20000005541E+02 0.  0.
         12    1    3    3    0    0 -0.22950793897E+02 -0.25553583010E+01  0.36747168215E+02  0.43400727740E+02  0.00000000000E+00 0. -1.
         11    1    4    4    0    0  0.17354903762E+02  0.62117750314E+01 -0.25735958615E+02  0.31656253722E+02  0.51100000000E-03 0. -1.
        -11    1    4    4    0    0  0.41321502961E+01 -0.69641285915E+01 -0.84163488716E+01  0.11679412729E+02  0.51100000000E-03 0.  1.
         12    1    4    4    0    0  0.14637398387E+01  0.33077118611E+01 -0.25948607283E+01  0.44516058081E+01  0.00000000000E+00 0. -1.
</event>
<event>
 8    1  0.6469014E-010  0.9118800E+02  0.7816164E-02  0.1184000E+00
        -11   -1    0    0    0    0  0.00000000000E+00  0.00000000000E+00  0.45593999997E+02  0.45594000000E+02  0.51100000000E-03 0. -1.
         11   -1    0    0    0    0 -0.00000000000E+00 -0.00000000000E+00 -0.45593999997E+02  0.45594000000E+02  0.51100000000E-03 0.  1.
         23    2    1    2    0    0  0.00000000000E+00  0.00000000000E+00  0.00000000000E+00  0.91188000000E+02  0.91188000000E+02 0.  0.
    9900012    2    3    3    0    0  0.23398504518E+02  0.29498174042E+02  0.21586814719E+02  0.47787275868E+02  0.20000021992E+02 0.  0.
        -12    1    3    3    0    0 -0.23398504518E+02 -0.29498174042E+02 -0.21586814719E+02  0.43400724132E+02  0.00000000000E+00 0.  1.
         11    1    4    4    0    0  0.24229778566E+01  0.97693522023E+01  0.12961605764E+02  0.16410797921E+02  0.51100000000E-03 0. -1.
        -11    1    4    4    0    0  0.21024908901E+02  0.17389672639E+02  0.61472288662E+01  0.27968481042E+02  0.51100000000E-03 0.  1.
        -12    1    4    4    0    0 -0.49382239850E-01  0.23391492007E+01  0.24779800883E+01  0.34079969053E+01  0.00000000000E+00 0.  1.
</event>
<event>
 8    1  0.6469014E-010  0.9118800E+02  0.7816164E-02  0.1184000E+00
        -11   -1    0    0    0    0  0.00000000000E+00  0.00000000000E+00  0.45593999997E+02  0.45594000000E+02  0.51100000000E-03 0. -1.
         11   -1    0    0    0    0 -0.00000000000E+00 -0.00000000000E+00 -0.45593999997E+02  0.45594000000E+02  0.51100000000E-03 0.  1.
         23    2    1    2    0    0  0.00000000000E+00  0.44408920985E-15  0.00000000000E+00  0.91188000000E+02  0.91188000000E+02 0.  0.
    9900012    2    3    3    0    0  0.18735379495E+02  0.26231724802E+01 -0.39060563012E+02  0.47787273491E+02  0.20000011156E+02 0.  0.
         12    1    3    3    0    0 -0.18735379495E+02 -0.26231724802E+01  0.39060563012E+02  0.43400726509E+02  0.00000000000E+00 0. -1.
         11    1    4    4    0    0  0.11181015147E+01 -0.74716155952E+00 -0.17229115563E+02  0.17281516853E+02  0.51100000000E-03 0. -1.
        -11    1    4    4    0    0  0.16706717345E+02  0.26405005737E+00 -0.21532545737E+02  0.27254993176E+02  0.51100000000E-03 0.  1.
        -12    1    4    4    0    0  0.91056063597E+00  0.31062839824E+01 -0.29890171136E+00  0.32507634617E+01  0.00000000000E+00 0.  1.
</event>
<event>
 8    1  0.6469014E-010  0.9118800E+02  0.7816164E-02  0.1184000E+00
        -11   -1    0    0    0    0  0.00000000000E+00  0.00000000000E+00  0.45593999997E+02  0.45594000000E+02  0.51100000000E-03 0. -1.
         11   -1    0    0    0    0 -0.00000000000E+00 -0.00000000000E+00 -0.45593999997E+02  0.45594000000E+02  0.51100000000E-03 0.  1.
         23    2    1    2    0    0 -0.35527136788E-14 -0.35527136788E-14  0.00000000000E+00  0.91188000000E+02  0.91188000000E+02 0.  0.
    9900012    2    3    3    0    0  0.28925142855E+02  0.29607185403E+02 -0.13052737076E+02  0.47787271183E+02  0.20000000632E+02 0.  0.
         12    1    3    3    0    0 -0.28925142855E+02 -0.29607185403E+02  0.13052737076E+02  0.43400728817E+02  0.00000000000E+00 0. -1.
         11    1    4    4    0    0  0.27747898632E+01 -0.10585348015E+01 -0.20662857274E+01  0.36179402537E+01  0.51100000000E-03 0. -1.
        -11    1    4    4    0    0  0.30780411320E+01  0.82728820731E+01 -0.79407411869E+01  0.11873090830E+02  0.51100000000E-03 0.  1.
        -12    1    4    4    0    0  0.23072311860E+02  0.22392838131E+02 -0.30457101613E+01  0.32296240099E+02  0.00000000000E+00 0.  1.
</event>
<event>
 8    1  0.6469014E-010  0.9118800E+02  0.7816164E-02  0.1184000E+00
        -11   -1    0    0    0    0  0.00000000000E+00  0.00000000000E+00  0.45593999997E+02  0.45594000000E+02  0.51100000000E-03 0. -1.
         11   -1    0    0    0    0 -0.00000000000E+00 -0.00000000000E+00 -0.45593999997E+02  0.45594000000E+02  0.51100000000E-03 0.  1.
         23    2    1    2    0    0  0.35527136788E-14 -0.17763568394E-14  0.00000000000E+00  0.91188000000E+02  0.91188000000E+02 0.  0.
    9900012    2    3    3    0    0 -0.25545326779E+02  0.11845225823E+02  0.33026518419E+02  0.47787262519E+02  0.19999961127E+02 0.  0.
        -12    1    3    3    0    0  0.25545326779E+02 -0.11845225823E+02 -0.33026518419E+02  0.43400737481E+02  0.00000000000E+00 0.  1.
         11    1    4    4    0    0  0.47820506522E+00  0.35970593981E+01  0.13399173091E+02  0.13881835476E+02  0.51100000000E-03 0. -1.
        -11    1    4    4    0    0 -0.33978067906E+01  0.25189906728E+01  0.39645206822E+01  0.57972260173E+01  0.51100000000E-03 0.  1.
         12    1    4    4    0    0 -0.22625725053E+02  0.57291757521E+01  0.15662824646E+02  0.28108201025E+02  0.00000000000E+00 0. -1.
</event>
<event>
 8    1  0.6469014E-010  0.9118800E+02  0.7816164E-02  0.1184000E+00
        -11   -1    0    0    0    0  0.00000000000E+00  0.00000000000E+00  0.45593999997E+02  0.45594000000E+02  0.51100000000E-03 0. -1.
         11   -1    0    0    0    0 -0.00000000000E+00 -0.00000000000E+00 -0.45593999997E+02  0.45594000000E+02  0.51100000000E-03 0.  1.
         23    2    1    2    0    0  0.00000000000E+00  0.71054273576E-14  0.00000000000E+00  0.91188000000E+02  0.91188000000E+02 0.  0.
    9900012    2    3    3    0    0 -0.59074968903E+01 -0.36128410763E+02 -0.23312287009E+02  0.47787270636E+02  0.19999998136E+02 0.  0.
         12    1    3    3    0    0  0.59074968903E+01  0.36128410763E+02  0.23312287009E+02  0.43400729364E+02  0.00000000000E+00 0. -1.
         11    1    4    4    0    0 -0.41726098604E+01 -0.12770306685E+02 -0.14379348236E+02  0.19678848082E+02  0.51100000000E-03 0. -1.
        -11    1    4    4    0    0  0.24357924837E-02 -0.68496035645E+01  0.31872937107E+01  0.75548604477E+01  0.51100000000E-03 0.  1.
        -12    1    4    4    0    0 -0.17373228224E+01 -0.16508500513E+02 -0.12120232483E+02  0.20553562106E+02  0.00000000000E+00 0.  1.
</event>
<event>
 8    1  0.6469014E-010  0.9118800E+02  0.7816164E-02  0.1184000E+00
        -11   -1    0    0    0    0  0.00000000000E+00  0.00000000000E+00  0.45593999997E+02  0.45594000000E+02  0.51100000000E-03 0. -1.
         11   -1    0    0    0    0 -0.00000000000E+00 -0.00000000000E+00 -0.45593999997E+02  0.45594000000E+02  0.51100000000E-03 0.  1.
         23    2    1    2    0    0 -0.22204460493E-15  0.00000000000E+00  0.00000000000E+00  0.91188000000E+02  0.91188000000E+02 0.  0.
    9900012    2    3    3    0    0 -0.19864167787E+01 -0.33571190756E+02 -0.27434487600E+02  0.47787287906E+02  0.20000076880E+02 0.  0.
         12    1    3    3    0    0  0.19864167787E+01  0.33571190756E+02  0.27434487600E+02  0.43400712094E+02  0.00000000000E+00 0. -1.
         11    1    4    4    0    0 -0.17892223205E+01 -0.15169063252E+01 -0.11849586172E-01  0.23457327183E+01  0.51100000000E-03 0. -1.
        -11    1    4    4    0    0 -0.41468087157E+00  0.20691262417E+01 -0.16155660911E+01  0.26576865287E+01  0.51100000000E-03 0.  1.
        -12    1    4    4    0    0  0.21748641334E+00 -0.34123410672E+02 -0.25807071923E+02  0.42783868659E+02  0.00000000000E+00 0.  1.
</event>
<event>
 8    1  0.6469014E-010  0.9118800E+02  0.7816164E-02  0.1184000E+00
        -11   -1    0    0    0    0  0.00000000000E+00  0.00000000000E+00  0.45593999997E+02  0.45594000000E+02  0.51100000000E-03 0. -1.
         11   -1    0    0    0    0 -0.00000000000E+00 -0.00000000000E+00 -0.45593999997E+02  0.45594000000E+02  0.51100000000E-03 0.  1.
         23    2    1    2    0    0  0.35527136788E-14 -0.13877787808E-15  0.00000000000E+00  0.91188000000E+02  0.91188000000E+02 0.  0.
    9900012    2    3    3    0    0  0.20423142010E+02  0.21309118211E+00  0.38294561113E+02  0.47787267883E+02  0.19999985587E+02 0.  0.
        -12    1    3    3    0    0 -0.20423142010E+02 -0.21309118211E+00 -0.38294561113E+02  0.43400732117E+02  0.00000000000E+00 0.  1.
         11    1    4    4    0    0  0.25443578175E+00 -0.64497860085E+01  0.14591361962E+02  0.15955322663E+02  0.51100000000E-03 0. -1.
        -11    1    4    4    0    0  0.16970868608E+02  0.57535289147E+01  0.20174450797E+02  0.26983734758E+02  0.51100000000E-03 0.  1.
         12    1    4    4    0    0  0.31978376207E+01  0.90934827593E+00  0.35287483541E+01  0.48482104619E+01  0.00000000000E+00 0. -1.
</event>
<event>
 8    1  0.6469014E-010  0.9118800E+02  0.7816164E-02  0.1184000E+00
        -11   -1    0    0    0    0  0.00000000000E+00  0.00000000000E+00  0.45593999997E+02  0.45594000000E+02  0.51100000000E-03 0. -1.
         11   -1    0    0    0    0 -0.00000000000E+00 -0.00000000000E+00 -0.45593999997E+02  0.45594000000E+02  0.51100000000E-03 0.  1.
         23    2    1    2    0    0  0.17763568394E-14 -0.17763568394E-14  0.00000000000E+00  0.91188000000E+02  0.91188000000E+02 0.  0.
    9900012    2    3    3    0    0  0.13957541379E+02 -0.14975274900E+02  0.38269457533E+02  0.47787271901E+02  0.20000003904E+02 0.  0.
        -12    1    3    3    0    0 -0.13957541379E+02  0.14975274900E+02 -0.38269457533E+02  0.43400728099E+02  0.00000000000E+00 0.  1.
         11    1    4    4    0    0  0.78152594215E+01 -0.14697940962E+02  0.35628545751E+02  0.39325577185E+02  0.51100000000E-03 0. -1.
        -11    1    4    4    0    0  0.40764174796E+01  0.23242685817E+01  0.18698997065E+01  0.50513294370E+01  0.51100000000E-03 0.  1.
         12    1    4    4    0    0  0.20658644781E+01 -0.26016025196E+01  0.77101207524E+00  0.34103652784E+01  0.00000000000E+00 0. -1.
</event>
<event>
 8    1  0.6469014E-010  0.9118800E+02  0.7816164E-02  0.1184000E+00
        -11   -1    0    0    0    0  0.00000000000E+00  0.00000000000E+00  0.45593999997E+02  0.45594000000E+02  0.51100000000E-03 0. -1.
         11   -1    0    0    0    0 -0.00000000000E+00 -0.00000000000E+00 -0.45593999997E+02  0.45594000000E+02  0.51100000000E-03 0.  1.
         23    2    1    2    0    0  0.00000000000E+00  0.00000000000E+00  0.35527136788E-14  0.91188000000E+02  0.91188000000E+02 0.  0.
    9900012    2    3    3    0    0 -0.10821233688E+02 -0.35917708927E+02 -0.21827534171E+02  0.47787283864E+02  0.20000058451E+02 0.  0.
         12    1    3    3    0    0  0.10821233688E+02  0.35917708927E+02  0.21827534171E+02  0.43400716136E+02  0.00000000000E+00 0. -1.
         11    1    4    4    0    0 -0.72218630477E+01 -0.10248772703E+02  0.34688394825E+00  0.12542446992E+02  0.51100000000E-03 0. -1.
        -11    1    4    4    0    0 -0.64218607683E+01 -0.19341922712E+02 -0.17736467779E+02  0.27017264101E+02  0.51100000000E-03 0.  1.
         12    1    4    4    0    0  0.28224901279E+01 -0.63270135118E+01 -0.44379503396E+01  0.82275727720E+01  0.00000000000E+00 0. -1.
</event>
<event>
 8    1  0.6469014E-010  0.9118800E+02  0.7816164E-02  0.1184000E+00
        -11   -1    0    0    0    0  0.00000000000E+00  0.00000000000E+00  0.45593999997E+02  0.45594000000E+02  0.51100000000E-03 0.  1.
         11   -1    0    0    0    0 -0.00000000000E+00 -0.00000000000E+00 -0.45593999997E+02  0.45594000000E+02  0.51100000000E-03 0. -1.
         23    2    1    2    0    0  0.00000000000E+00  0.00000000000E+00  0.00000000000E+00  0.91188000000E+02  0.91188000000E+02 0.  0.
    9900012    2    3    3    0    0 -0.31001547550E+02  0.28467910082E+02  0.10587988517E+02  0.47787270100E+02  0.19999995696E+02 0.  0.
        -12    1    3    3    0    0  0.31001547550E+02 -0.28467910082E+02 -0.10587988517E+02  0.43400729900E+02  0.00000000000E+00 0.  1.
         11    1    4    4    0    0 -0.19764488230E+02  0.26994205498E+02  0.77101918289E+01  0.34333208177E+02  0.51100000000E-03 0. -1.
        -11    1    4    4    0    0 -0.53445987810E+01 -0.12928060038E+01  0.40636476412E+01  0.68373471395E+01  0.51100000000E-03 0.  1.
         12    1    4    4    0    0 -0.58924605395E+01  0.27665105881E+01 -0.11858509527E+01  0.66167147835E+01  0.00000000000E+00 0. -1.
</event>
<event>
 8    1  0.6469014E-010  0.9118800E+02  0.7816164E-02  0.1184000E+00
        -11   -1    0    0    0    0  0.00000000000E+00  0.00000000000E+00  0.45593999997E+02  0.45594000000E+02  0.51100000000E-03 0. -1.
         11   -1    0    0    0    0 -0.00000000000E+00 -0.00000000000E+00 -0.45593999997E+02  0.45594000000E+02  0.51100000000E-03 0.  1.
         23    2    1    2    0    0  0.00000000000E+00  0.44408920985E-15  0.00000000000E+00  0.91188000000E+02  0.91188000000E+02 0.  0.
    9900012    2    3    3    0    0 -0.36468518832E+02 -0.19573303706E+01  0.23448742181E+02  0.47787222151E+02  0.19999777075E+02 0.  0.
        -12    1    3    3    0    0  0.36468518832E+02  0.19573303706E+01 -0.23448742181E+02  0.43400777849E+02  0.00000000000E+00 0.  1.
         11    1    4    4    0    0 -0.13273288201E+01  0.44525816311E+00  0.67104975127E+00  0.15525349137E+01  0.51100000000E-03 0.  1.
        -11    1    4    4    0    0 -0.15223803343E+02  0.53671033252E+01  0.18280818750E+02  0.24387667391E+02  0.51100000000E-03 0. -1.
        -12    1    4    4    0    0 -0.19917386669E+02 -0.77696918589E+01  0.44968736803E+01  0.21847019847E+02  0.00000000000E+00 0.  1.
</event>
<event>
 8    1  0.6469014E-010  0.9118800E+02  0.7816164E-02  0.1184000E+00
        -11   -1    0    0    0    0  0.00000000000E+00  0.00000000000E+00  0.45593999997E+02  0.45594000000E+02  0.51100000000E-03 0. -1.
         11   -1    0    0    0    0 -0.00000000000E+00 -0.00000000000E+00 -0.45593999997E+02  0.45594000000E+02  0.51100000000E-03 0.  1.
         23    2    1    2    0    0 -0.35527136788E-14 -0.88817841970E-15  0.71054273576E-14  0.91188000000E+02  0.91188000000E+02 0.  0.
    9900012    2    3    3    0    0  0.23382198904E+02  0.34626086525E+01 -0.36399262489E+02  0.47787271965E+02  0.20000004195E+02 0.  0.
         12    1    3    3    0    0 -0.23382198904E+02 -0.34626086525E+01  0.36399262489E+02  0.43400728035E+02  0.00000000000E+00 0. -1.
         11    1    4    4    0    0  0.11738947623E+02  0.81061104638E+01 -0.22043619387E+02  0.26257057605E+02  0.51100000000E-03 0. -1.
        -11    1    4    4    0    0  0.36010529156E+01 -0.67179940457E+01 -0.55724044451E+01  0.94419657731E+01  0.51100000000E-03 0.  1.
        -12    1    4    4    0    0  0.80421983657E+01  0.20744922344E+01 -0.87832386565E+01  0.12088248586E+02  0.00000000000E+00 0.  1.
</event>
<event>
 8    1  0.6469014E-010  0.9118800E+02  0.7816164E-02  0.1184000E+00
        -11   -1    0    0    0    0  0.00000000000E+00  0.00000000000E+00  0.45593999997E+02  0.45594000000E+02  0.51100000000E-03 0. -1.
         11   -1    0    0    0    0 -0.00000000000E+00 -0.00000000000E+00 -0.45593999997E+02  0.45594000000E+02  0.51100000000E-03 0.  1.
         23    2    1    2    0    0  0.00000000000E+00  0.00000000000E+00  0.00000000000E+00  0.91188000000E+02  0.91188000000E+02 0.  0.
    9900012    2    3    3    0    0 -0.18475457671E+02  0.13924237708E+02 -0.36720515924E+02  0.47787271646E+02  0.20000002743E+02 0.  0.
         12    1    3    3    0    0  0.18475457671E+02 -0.13924237708E+02  0.36720515924E+02  0.43400728354E+02  0.00000000000E+00 0. -1.
         11    1    4    4    0    0 -0.43121016771E+01  0.37470022381E+00 -0.29678129518E+01  0.52480982373E+01  0.51100000000E-03 0. -1.
        -11    1    4    4    0    0 -0.17140820541E+02  0.12398106203E+02 -0.22676072562E+02  0.31011691882E+02  0.51100000000E-03 0.  1.
        -12    1    4    4    0    0  0.29774645467E+01  0.11514312813E+01 -0.11076630410E+02  0.11527481527E+02  0.00000000000E+00 0.  1.
</event>
<event>
 8    1  0.6469014E-010  0.9118800E+02  0.7816164E-02  0.1184000E+00
        -11   -1    0    0    0    0  0.00000000000E+00  0.00000000000E+00  0.45593999997E+02  0.45594000000E+02  0.51100000000E-03 0. -1.
         11   -1    0    0    0    0 -0.00000000000E+00 -0.00000000000E+00 -0.45593999997E+02  0.45594000000E+02  0.51100000000E-03 0.  1.
         23    2    1    2    0    0  0.00000000000E+00  0.00000000000E+00  0.00000000000E+00  0.91188000000E+02  0.91188000000E+02 0.  0.
    9900012    2    3    3    0    0 -0.16611894663E+02 -0.25484270706E+01 -0.40014674272E+02  0.47787266343E+02  0.19999978565E+02 0.  0.
         12    1    3    3    0    0  0.16611894663E+02  0.25484270706E+01  0.40014674272E+02  0.43400733657E+02  0.00000000000E+00 0. -1.
         11    1    4    4    0    0  0.22880127588E+01  0.19478792466E+01 -0.89177218978E+01  0.94103666268E+01  0.51100000000E-03 0. -1.
        -11    1    4    4    0    0 -0.17029827395E+02  0.49647144864E+00 -0.25292949811E+02  0.30495816359E+02  0.51100000000E-03 0.  1.
        -12    1    4    4    0    0 -0.18700800272E+01 -0.49927777659E+01 -0.58040025638E+01  0.78810833575E+01  0.00000000000E+00 0.  1.
</event>
<event>
 8    1  0.6469014E-010  0.9118800E+02  0.7816164E-02  0.1184000E+00
        -11   -1    0    0    0    0  0.00000000000E+00  0.00000000000E+00  0.45593999997E+02  0.45594000000E+02  0.51100000000E-03 0. -1.
         11   -1    0    0    0    0 -0.00000000000E+00 -0.00000000000E+00 -0.45593999997E+02  0.45594000000E+02  0.51100000000E-03 0.  1.
         23    2    1    2    0    0  0.00000000000E+00  0.00000000000E+00  0.00000000000E+00  0.91188000000E+02  0.91188000000E+02 0.  0.
    9900012    2    3    3    0    0 -0.30779827491E+02 -0.64650056346E+01  0.29907034529E+02  0.47787253549E+02  0.19999920229E+02 0.  0.
        -12    1    3    3    0    0  0.30779827491E+02  0.64650056346E+01 -0.29907034529E+02  0.43400746451E+02  0.00000000000E+00 0.  1.
         11    1    4    4    0    0 -0.12989459328E+02 -0.74536923151E+01  0.51689254013E+01  0.15843022844E+02  0.51100000000E-03 0. -1.
        -11    1    4    4    0    0 -0.56103387245E+01  0.12783920694E+00  0.15926868003E+02  0.16886603214E+02  0.51100000000E-03 0.  1.
         12    1    4    4    0    0 -0.12180029438E+02  0.86084747352E+00  0.88112411247E+01  0.15057627491E+02  0.00000000000E+00 0. -1.
</event>
<event>
 8    1  0.6469014E-010  0.9118800E+02  0.7816164E-02  0.1184000E+00
        -11   -1    0    0    0    0  0.00000000000E+00  0.00000000000E+00  0.45593999997E+02  0.45594000000E+02  0.51100000000E-03 0. -1.
         11   -1    0    0    0    0 -0.00000000000E+00 -0.00000000000E+00 -0.45593999997E+02  0.45594000000E+02  0.51100000000E-03 0.  1.
         23    2    1    2    0    0  0.00000000000E+00  0.88817841970E-15  0.00000000000E+00  0.91188000000E+02  0.91188000000E+02 0.  0.
    9900012    2    3    3    0    0  0.15931036428E+02  0.32845028587E+01 -0.40237257369E+02  0.47787276950E+02  0.20000026925E+02 0.  0.
         12    1    3    3    0    0 -0.15931036428E+02 -0.32845028587E+01  0.40237257369E+02  0.43400723050E+02  0.00000000000E+00 0. -1.
         11    1    4    4    0    0 -0.29597315943E+01  0.28194027290E+01 -0.36675180361E+01  0.54917876566E+01  0.51100000000E-03 0. -1.
        -11    1    4    4    0    0  0.14592481903E+02 -0.38690102886E+01 -0.27308422019E+02  0.31203520348E+02  0.51100000000E-03 0.  1.
        -12    1    4    4    0    0  0.42982861198E+01  0.43341104183E+01 -0.92613173143E+01  0.11091968945E+02  0.00000000000E+00 0.  1.
</event>
<event>
 8    1  0.6469014E-010  0.9118800E+02  0.7816164E-02  0.1184000E+00
        -11   -1    0    0    0    0  0.00000000000E+00  0.00000000000E+00  0.45593999997E+02  0.45594000000E+02  0.51100000000E-03 0. -1.
         11   -1    0    0    0    0 -0.00000000000E+00 -0.00000000000E+00 -0.45593999997E+02  0.45594000000E+02  0.51100000000E-03 0.  1.
         23    2    1    2    0    0  0.00000000000E+00 -0.17763568394E-14 -0.44408920985E-15  0.91188000000E+02  0.91188000000E+02 0.  0.
    9900012    2    3    3    0    0  0.40242972707E+02 -0.15776699207E+02 -0.39015791861E+01  0.47787269473E+02  0.19999992834E+02 0.  0.
        -12    1    3    3    0    0 -0.40242972707E+02  0.15776699207E+02  0.39015791861E+01  0.43400730527E+02  0.00000000000E+00 0.  1.
         11    1    4    4    0    0  0.17152991502E+02 -0.10014444649E+02 -0.58681601797E+01  0.20711096621E+02  0.51100000000E-03 0.  1.
        -11    1    4    4    0    0  0.19580534396E+01  0.74802994839E+00  0.43573267100E+01  0.48352681823E+01  0.51100000000E-03 0. -1.
         12    1    4    4    0    0  0.21131927765E+02 -0.65102845068E+01 -0.23907457163E+01  0.22240904669E+02  0.00000000000E+00 0. -1.
</event>
<event>
 8    1  0.6834878E-010  0.9118800E+02  0.7816164E-02  0.1184000E+00
        -11   -1    0    0    0    0  0.00000000000E+00  0.00000000000E+00  0.45593999997E+02  0.45594000000E+02  0.51100000000E-03 0. -1.
         11   -1    0    0    0    0 -0.00000000000E+00 -0.00000000000E+00 -0.45593999997E+02  0.45594000000E+02  0.51100000000E-03 0.  1.
         23    2    1    2    0    0 -0.17763568394E-14  0.17763568394E-14  0.71054273576E-14  0.91188000000E+02  0.91188000000E+02 0.  0.
    9900012    2    3    3    0    0  0.15890667673E+02 -0.13493086759E+02 -0.38066348173E+02  0.47787267603E+02  0.19999984307E+02 0.  0.
         12    1    3    3    0    0 -0.15890667673E+02  0.13493086759E+02  0.38066348173E+02  0.43400732397E+02  0.00000000000E+00 0. -1.
         11    1    4    4    0    0  0.23052151220E+01 -0.12593034048E+02 -0.10232672590E+02  0.16389207176E+02  0.51100000000E-03 0. -1.
        -11    1    4    4    0    0  0.89343851834E+01 -0.22231892999E+01 -0.21809388536E+02  0.23673091007E+02  0.51100000000E-03 0.  1.
         12    1    4    4    0    0  0.46510673672E+01  0.13231365885E+01 -0.60242870479E+01  0.77249694188E+01  0.00000000000E+00 0. -1.
</event>
<event>
 8    1  0.6469014E-010  0.9118800E+02  0.7816164E-02  0.1184000E+00
        -11   -1    0    0    0    0  0.00000000000E+00  0.00000000000E+00  0.45593999997E+02  0.45594000000E+02  0.51100000000E-03 0. -1.
         11   -1    0    0    0    0 -0.00000000000E+00 -0.00000000000E+00 -0.45593999997E+02  0.45594000000E+02  0.51100000000E-03 0.  1.
         23    2    1    2    0    0  0.00000000000E+00 -0.16653345369E-15  0.00000000000E+00  0.91188000000E+02  0.91188000000E+02 0.  0.
    9900012    2    3    3    0    0 -0.85153619846E+01 -0.43563975481E+00 -0.42554934787E+02  0.47787266752E+02  0.19999980428E+02 0.  0.
         12    1    3    3    0    0  0.85153619846E+01  0.43563975481E+00  0.42554934787E+02  0.43400733248E+02  0.00000000000E+00 0. -1.
         11    1    4    4    0    0 -0.88993071492E+01  0.24137412951E+01 -0.60934565556E+01  0.11052331330E+02  0.51100000000E-03 0. -1.
        -11    1    4    4    0    0 -0.42856050084E+00 -0.34354206664E+01 -0.29262736667E+02  0.29466820947E+02  0.51100000000E-03 0.  1.
         12    1    4    4    0    0  0.81250566543E+00  0.58603961653E+00 -0.71987415650E+01  0.72681144740E+01  0.00000000000E+00 0. -1.
</event>
<event>
 8    1  0.6469014E-010  0.9118800E+02  0.7816164E-02  0.1184000E+00
        -11   -1    0    0    0    0  0.00000000000E+00  0.00000000000E+00  0.45593999997E+02  0.45594000000E+02  0.51100000000E-03 0. -1.
         11   -1    0    0    0    0 -0.00000000000E+00 -0.00000000000E+00 -0.45593999997E+02  0.45594000000E+02  0.51100000000E-03 0.  1.
         23    2    1    2    0    0  0.00000000000E+00 -0.44408920985E-15  0.00000000000E+00  0.91188000000E+02  0.91188000000E+02 0.  0.
    9900012    2    3    3    0    0 -0.20745647683E+02 -0.34972052205E+01  0.37960651212E+02  0.47787269792E+02  0.19999994292E+02 0.  0.
        -12    1    3    3    0    0  0.20745647683E+02  0.34972052205E+01 -0.37960651212E+02  0.43400730208E+02  0.00000000000E+00 0.  1.
         11    1    4    4    0    0 -0.15726386608E+02  0.74518682454E+00  0.11936314553E+02  0.19757280798E+02  0.51100000000E-03 0. -1.
        -11    1    4    4    0    0 -0.42449851051E+01 -0.15795555479E+00  0.48319493745E+01  0.64337068257E+01  0.51100000000E-03 0.  1.
         12    1    4    4    0    0 -0.77427596962E+00 -0.40844364903E+01  0.21192387284E+02  0.21596282169E+02  0.00000000000E+00 0. -1.
</event>
<event>
 8    1  0.6469014E-010  0.9118800E+02  0.7816164E-02  0.1184000E+00
        -11   -1    0    0    0    0  0.00000000000E+00  0.00000000000E+00  0.45593999997E+02  0.45594000000E+02  0.51100000000E-03 0. -1.
         11   -1    0    0    0    0 -0.00000000000E+00 -0.00000000000E+00 -0.45593999997E+02  0.45594000000E+02  0.51100000000E-03 0.  1.
         23    2    1    2    0    0  0.00000000000E+00  0.00000000000E+00  0.00000000000E+00  0.91188000000E+02  0.91188000000E+02 0.  0.
    9900012    2    3    3    0    0  0.16965401908E+02 -0.39640474643E+02 -0.49429327199E+01  0.47787254895E+02  0.19999926366E+02 0.  0.
         12    1    3    3    0    0 -0.16965401908E+02  0.39640474643E+02  0.49429327199E+01  0.43400745105E+02  0.00000000000E+00 0. -1.
         11    1    4    4    0    0  0.17093313318E+02 -0.26712520110E+02  0.15186561363E-01  0.31713409179E+02  0.51100000000E-03 0. -1.
        -11    1    4    4    0    0 -0.26350540681E+01 -0.62391109730E+00 -0.53162542158E+00  0.27596015743E+01  0.51100000000E-03 0.  1.
         12    1    4    4    0    0  0.25071426576E+01 -0.12304043435E+02 -0.44264938597E+01  0.13314244141E+02  0.00000000000E+00 0. -1.
</event>
<event>
 8    1  0.6469014E-010  0.9118800E+02  0.7816164E-02  0.1184000E+00
        -11   -1    0    0    0    0  0.00000000000E+00  0.00000000000E+00  0.45593999997E+02  0.45594000000E+02  0.51100000000E-03 0. -1.
         11   -1    0    0    0    0 -0.00000000000E+00 -0.00000000000E+00 -0.45593999997E+02  0.45594000000E+02  0.51100000000E-03 0.  1.
         23    2    1    2    0    0  0.00000000000E+00 -0.35527136788E-14  0.00000000000E+00  0.91188000000E+02  0.91188000000E+02 0.  0.
    9900012    2    3    3    0    0  0.38098559532E+01 -0.30581113597E+02  0.30559839314E+02  0.47787270858E+02  0.19999999148E+02 0.  0.
        -12    1    3    3    0    0 -0.38098559532E+01  0.30581113597E+02 -0.30559839314E+02  0.43400729142E+02  0.00000000000E+00 0.  1.
         11    1    4    4    0    0  0.32132068714E+01 -0.24110057690E+02  0.22130060496E+02  0.32884025879E+02  0.51100000000E-03 0. -1.
        -11    1    4    4    0    0  0.28991158311E+01  0.19708481268E+01  0.29237168040E+01  0.45647820487E+01  0.51100000000E-03 0.  1.
         12    1    4    4    0    0 -0.23024667494E+01 -0.84419040338E+01  0.55060620142E+01  0.10338462930E+02  0.00000000000E+00 0. -1.
</event>
<event>
 8    1  0.6469014E-010  0.9118800E+02  0.7816164E-02  0.1184000E+00
        -11   -1    0    0    0    0  0.00000000000E+00  0.00000000000E+00  0.45593999997E+02  0.45594000000E+02  0.51100000000E-03 0.  1.
         11   -1    0    0    0    0 -0.00000000000E+00 -0.00000000000E+00 -0.45593999997E+02  0.45594000000E+02  0.51100000000E-03 0. -1.
         23    2    1    2    0    0  0.71054273576E-14  0.00000000000E+00  0.00000000000E+00  0.91188000000E+02  0.91188000000E+02 0.  0.
    9900012    2    3    3    0    0 -0.34048276100E+02 -0.12669935233E+02 -0.23744703049E+02  0.47787270892E+02  0.19999999306E+02 0.  0.
         12    1    3    3    0    0  0.34048276100E+02  0.12669935233E+02  0.23744703049E+02  0.43400729108E+02  0.00000000000E+00 0. -1.
         11    1    4    4    0    0 -0.69640469718E+01  0.18241862158E+01 -0.12283046079E+02  0.14237233819E+02  0.51100000000E-03 0. -1.
        -11    1    4    4    0    0 -0.96918150144E+01 -0.91384248798E+01 -0.43795520057E+01  0.14022216786E+02  0.51100000000E-03 0.  1.
         12    1    4    4    0    0 -0.17392414114E+02 -0.53556965689E+01 -0.70821049643E+01  0.19527820287E+02  0.00000000000E+00 0. -1.
</event>
<event>
 8    1  0.6469014E-010  0.9118800E+02  0.7816164E-02  0.1184000E+00
        -11   -1    0    0    0    0  0.00000000000E+00  0.00000000000E+00  0.45593999997E+02  0.45594000000E+02  0.51100000000E-03 0. -1.
         11   -1    0    0    0    0 -0.00000000000E+00 -0.00000000000E+00 -0.45593999997E+02  0.45594000000E+02  0.51100000000E-03 0.  1.
         23    2    1    2    0    0  0.00000000000E+00  0.00000000000E+00  0.00000000000E+00  0.91188000000E+02  0.91188000000E+02 0.  0.
    9900012    2    3    3    0    0  0.59444813664E+01  0.23562054612E+02 -0.35959923004E+02  0.47787270297E+02  0.19999996592E+02 0.  0.
         12    1    3    3    0    0 -0.59444813664E+01 -0.23562054612E+02  0.35959923004E+02  0.43400729703E+02  0.00000000000E+00 0. -1.
         11    1    4    4    0    0  0.20604658409E+01  0.27275955356E+01  0.60211332590E+00  0.34709995110E+01  0.51100000000E-03 0. -1.
        -11    1    4    4    0    0 -0.92483053420E+00  0.19525250851E+02 -0.25068491046E+02  0.31788676851E+02  0.51100000000E-03 0.  1.
        -12    1    4    4    0    0  0.48088460598E+01  0.13092082255E+01 -0.11493545284E+02  0.12527593935E+02  0.00000000000E+00 0.  1.
</event>
<event>
 8    1  0.6469014E-010  0.9118800E+02  0.7816164E-02  0.1184000E+00
        -11   -1    0    0    0    0  0.00000000000E+00  0.00000000000E+00  0.45593999997E+02  0.45594000000E+02  0.51100000000E-03 0. -1.
         11   -1    0    0    0    0 -0.00000000000E+00 -0.00000000000E+00 -0.45593999997E+02  0.45594000000E+02  0.51100000000E-03 0.  1.
         23    2    1    2    0    0 -0.35527136788E-14  0.44408920985E-15  0.00000000000E+00  0.91188000000E+02  0.91188000000E+02 0.  0.
    9900012    2    3    3    0    0 -0.31701371809E+02  0.24170760529E+01 -0.29543256762E+02  0.47787271304E+02  0.20000001186E+02 0.  0.
         12    1    3    3    0    0  0.31701371809E+02 -0.24170760529E+01  0.29543256762E+02  0.43400728696E+02  0.00000000000E+00 0. -1.
         11    1    4    4    0    0  0.14158197966E+01 -0.26763058478E+01 -0.60825678582E+01  0.67944676537E+01  0.51100000000E-03 0. -1.
        -11    1    4    4    0    0 -0.21985023106E+02  0.43243417145E+01 -0.16708582903E+02  0.27950275761E+02  0.51100000000E-03 0.  1.
         12    1    4    4    0    0 -0.11132168499E+02  0.76904018616E+00 -0.67521060006E+01  0.13042527890E+02  0.00000000000E+00 0. -1.
</event>
<event>
 8    1  0.6469014E-010  0.9118800E+02  0.7816164E-02  0.1184000E+00
        -11   -1    0    0    0    0  0.00000000000E+00  0.00000000000E+00  0.45593999997E+02  0.45594000000E+02  0.51100000000E-03 0. -1.
         11   -1    0    0    0    0 -0.00000000000E+00 -0.00000000000E+00 -0.45593999997E+02  0.45594000000E+02  0.51100000000E-03 0.  1.
         23    2    1    2    0    0  0.44408920985E-15 -0.88817841970E-15  0.71054273576E-14  0.91188000000E+02  0.91188000000E+02 0.  0.
    9900012    2    3    3    0    0  0.55752190839E+00  0.72177662116E+01  0.42792718944E+02  0.47787265278E+02  0.19999973709E+02 0.  0.
        -12    1    3    3    0    0 -0.55752190839E+00 -0.72177662116E+01 -0.42792718944E+02  0.43400734722E+02  0.00000000000E+00 0.  1.
         11    1    4    4    0    0 -0.63288384809E+01  0.33242304072E+01  0.35363850320E+02  0.36079171471E+02  0.51100000000E-03 0. -1.
        -11    1    4    4    0    0  0.50341982879E+01  0.46813153804E+00  0.33280362835E+01  0.60529435240E+01  0.51100000000E-03 0.  1.
        -12    1    4    4    0    0  0.18521621014E+01  0.34254042663E+01  0.41008323411E+01  0.56551502834E+01  0.00000000000E+00 0.  1.
</event>
<event>
 8    1  0.6469014E-010  0.9118800E+02  0.7816164E-02  0.1184000E+00
        -11   -1    0    0    0    0  0.00000000000E+00  0.00000000000E+00  0.45593999997E+02  0.45594000000E+02  0.51100000000E-03 0. -1.
         11   -1    0    0    0    0 -0.00000000000E+00 -0.00000000000E+00 -0.45593999997E+02  0.45594000000E+02  0.51100000000E-03 0.  1.
         23    2    1    2    0    0  0.00000000000E+00 -0.17763568394E-14  0.00000000000E+00  0.91188000000E+02  0.91188000000E+02 0.  0.
    9900012    2    3    3    0    0  0.11464842781E+02  0.15088132331E+02 -0.39045212654E+02  0.47787274333E+02  0.20000014993E+02 0.  0.
         12    1    3    3    0    0 -0.11464842781E+02 -0.15088132331E+02  0.39045212654E+02  0.43400725667E+02  0.00000000000E+00 0. -1.
         11    1    4    4    0    0 -0.10437709598E+00  0.27063683724E+01 -0.37872733067E+01  0.46560459304E+01  0.51100000000E-03 0. -1.
        -11    1    4    4    0    0 -0.21236510635E+00  0.11852231237E+02 -0.11060574239E+02  0.16212858693E+02  0.51100000000E-03 0.  1.
        -12    1    4    4    0    0  0.11781584983E+02  0.52953272154E+00 -0.24197365108E+02  0.26918369709E+02  0.00000000000E+00 0.  1.
</event>
<event>
 8    1  0.7380376E-010  0.9118800E+02  0.7816164E-02  0.1184000E+00
        -11   -1    0    0    0    0  0.00000000000E+00  0.00000000000E+00  0.45593999997E+02  0.45594000000E+02  0.51100000000E-03 0. -1.
         11   -1    0    0    0    0 -0.00000000000E+00 -0.00000000000E+00 -0.45593999997E+02  0.45594000000E+02  0.51100000000E-03 0.  1.
         23    2    1    2    0    0 -0.35527136788E-14  0.00000000000E+00  0.35527136788E-14  0.91188000000E+02  0.91188000000E+02 0.  0.
    9900012    2    3    3    0    0  0.24618538292E+02  0.24439536176E+02 -0.26081801808E+02  0.47787265655E+02  0.19999975427E+02 0.  0.
         12    1    3    3    0    0 -0.24618538292E+02 -0.24439536176E+02  0.26081801808E+02  0.43400734345E+02  0.00000000000E+00 0. -1.
         11    1    4    4    0    0  0.58342479643E+01  0.99147363418E+01 -0.14623994483E+00  0.11504861252E+02  0.51100000000E-03 0. -1.
        -11    1    4    4    0    0  0.11118845496E+02  0.11790096474E+02 -0.12078284422E+02  0.20211879054E+02  0.51100000000E-03 0.  1.
         12    1    4    4    0    0  0.76654448319E+01  0.27347033601E+01 -0.13857277441E+02  0.16070525350E+02  0.00000000000E+00 0. -1.
</event>
<event>
 8    1  0.6469014E-010  0.9118800E+02  0.7816164E-02  0.1184000E+00
        -11   -1    0    0    0    0  0.00000000000E+00  0.00000000000E+00  0.45593999997E+02  0.45594000000E+02  0.51100000000E-03 0. -1.
         11   -1    0    0    0    0 -0.00000000000E+00 -0.00000000000E+00 -0.45593999997E+02  0.45594000000E+02  0.51100000000E-03 0.  1.
         23    2    1    2    0    0  0.00000000000E+00 -0.35527136788E-14  0.17763568394E-14  0.91188000000E+02  0.91188000000E+02 0.  0.
    9900012    2    3    3    0    0 -0.31941830391E+02 -0.26245290273E+02  0.13210893471E+02  0.47787268479E+02  0.19999988305E+02 0.  0.
        -12    1    3    3    0    0  0.31941830391E+02  0.26245290273E+02 -0.13210893471E+02  0.43400731521E+02  0.00000000000E+00 0.  1.
         11    1    4    4    0    0 -0.94804204361E+01  0.43147152320E-01  0.47045075715E+01  0.10583601706E+02  0.51100000000E-03 0. -1.
        -11    1    4    4    0    0 -0.66921714351E+01 -0.36533064989E+01 -0.16607159378E+01  0.78031906666E+01  0.51100000000E-03 0.  1.
         12    1    4    4    0    0 -0.15769238520E+02 -0.22635130926E+02  0.10167101837E+02  0.29400476107E+02  0.00000000000E+00 0. -1.
</event>
<event>
 8    1  0.6469014E-010  0.9118800E+02  0.7816164E-02  0.1184000E+00
        -11   -1    0    0    0    0  0.00000000000E+00  0.00000000000E+00  0.45593999997E+02  0.45594000000E+02  0.51100000000E-03 0.  1.
         11   -1    0    0    0    0 -0.00000000000E+00 -0.00000000000E+00 -0.45593999997E+02  0.45594000000E+02  0.51100000000E-03 0. -1.
         23    2    1    2    0    0  0.35527136788E-14  0.00000000000E+00  0.17763568394E-14  0.91188000000E+02  0.91188000000E+02 0.  0.
    9900012    2    3    3    0    0  0.20899858181E+02  0.36422740379E+02  0.10963743776E+02  0.47787265372E+02  0.19999974135E+02 0.  0.
        -12    1    3    3    0    0 -0.20899858181E+02 -0.36422740379E+02 -0.10963743776E+02  0.43400734628E+02  0.00000000000E+00 0.  1.
         11    1    4    4    0    0  0.16720431799E+02  0.20767940900E+02 -0.20489630809E+01  0.26740950969E+02  0.51100000000E-03 0. -1.
        -11    1    4    4    0    0 -0.72984879641E-01  0.54682327768E+01  0.49561217976E+01  0.73803821058E+01  0.51100000000E-03 0.  1.
         12    1    4    4    0    0  0.42524112621E+01  0.10186566702E+02  0.80565850594E+01  0.13665932297E+02  0.00000000000E+00 0. -1.
</event>
<event>
 8    1  0.6505795E-010  0.9118800E+02  0.7816164E-02  0.1184000E+00
        -11   -1    0    0    0    0  0.00000000000E+00  0.00000000000E+00  0.45593999997E+02  0.45594000000E+02  0.51100000000E-03 0. -1.
         11   -1    0    0    0    0 -0.00000000000E+00 -0.00000000000E+00 -0.45593999997E+02  0.45594000000E+02  0.51100000000E-03 0.  1.
         23    2    1    2    0    0  0.00000000000E+00  0.00000000000E+00 -0.71054273576E-14  0.91188000000E+02  0.91188000000E+02 0.  0.
    9900012    2    3    3    0    0 -0.13326579035E+02 -0.17287301764E+02 -0.37512299370E+02  0.47787295915E+02  0.20000113395E+02 0.  0.
         12    1    3    3    0    0  0.13326579035E+02  0.17287301764E+02  0.37512299370E+02  0.43400704085E+02  0.00000000000E+00 0. -1.
         11    1    4    4    0    0 -0.13395683200E+01 -0.44447835732E+01  0.11029048351E+01  0.47714718518E+01  0.51100000000E-03 0. -1.
        -11    1    4    4    0    0 -0.44431600493E+01 -0.97808008993E+01 -0.20130304372E+02  0.22817425179E+02  0.51100000000E-03 0.  1.
         12    1    4    4    0    0 -0.75438506658E+01 -0.30617172920E+01 -0.18484899833E+02  0.20198398884E+02  0.00000000000E+00 0. -1.
</event>
<event>
 8    1  0.6469014E-010  0.9118800E+02  0.7816164E-02  0.1184000E+00
        -11   -1    0    0    0    0  0.00000000000E+00  0.00000000000E+00  0.45593999997E+02  0.45594000000E+02  0.51100000000E-03 0. -1.
         11   -1    0    0    0    0 -0.00000000000E+00 -0.00000000000E+00 -0.45593999997E+02  0.45594000000E+02  0.51100000000E-03 0.  1.
         23    2    1    2    0    0  0.00000000000E+00  0.00000000000E+00  0.00000000000E+00  0.91188000000E+02  0.91188000000E+02 0.  0.
    9900012    2    3    3    0    0 -0.19753851277E+02 -0.25450508899E+02  0.29080576992E+02  0.47787274180E+02  0.20000014296E+02 0.  0.
        -12    1    3    3    0    0  0.19753851277E+02  0.25450508899E+02 -0.29080576992E+02  0.43400725820E+02  0.00000000000E+00 0.  1.
         11    1    4    4    0    0 -0.74227739921E+01 -0.20742376152E+02  0.24601026199E+02  0.33023540581E+02  0.51100000000E-03 0. -1.
        -11    1    4    4    0    0 -0.11663360374E+02 -0.49530151166E+01  0.52492856850E+01  0.13715733098E+02  0.51100000000E-03 0.  1.
         12    1    4    4    0    0 -0.66771691079E+00  0.24488236912E+00 -0.76973489168E+00  0.10480005015E+01  0.00000000000E+00 0. -1.
</event>
<event>
 8    1  0.6469014E-010  0.9118800E+02  0.7816164E-02  0.1184000E+00
        -11   -1    0    0    0    0  0.00000000000E+00  0.00000000000E+00  0.45593999997E+02  0.45594000000E+02  0.51100000000E-03 0. -1.
         11   -1    0    0    0    0 -0.00000000000E+00 -0.00000000000E+00 -0.45593999997E+02  0.45594000000E+02  0.51100000000E-03 0.  1.
         23    2    1    2    0    0  0.00000000000E+00  0.17763568394E-14  0.00000000000E+00  0.91188000000E+02  0.91188000000E+02 0.  0.
    9900012    2    3    3    0    0  0.69169786117E+01 -0.11435165686E+02  0.41291834070E+02  0.47787272261E+02  0.20000005546E+02 0.  0.
        -12    1    3    3    0    0 -0.69169786117E+01  0.11435165686E+02 -0.41291834070E+02  0.43400727739E+02  0.00000000000E+00 0.  1.
         11    1    4    4    0    0  0.13709066043E+01 -0.75712333455E+01  0.84174748306E+01  0.11404246668E+02  0.51100000000E-03 0. -1.
        -11    1    4    4    0    0  0.55341963381E+01  0.40017635026E+01  0.21463517647E+02  0.22523854695E+02  0.51100000000E-03 0.  1.
        -12    1    4    4    0    0  0.11875669291E-01 -0.78656958432E+01  0.11410841592E+02  0.13859170898E+02  0.00000000000E+00 0.  1.
</event>
<event>
 8    1  0.6469014E-010  0.9118800E+02  0.7816164E-02  0.1184000E+00
        -11   -1    0    0    0    0  0.00000000000E+00  0.00000000000E+00  0.45593999997E+02  0.45594000000E+02  0.51100000000E-03 0. -1.
         11   -1    0    0    0    0 -0.00000000000E+00 -0.00000000000E+00 -0.45593999997E+02  0.45594000000E+02  0.51100000000E-03 0.  1.
         23    2    1    2    0    0 -0.88817841970E-15  0.00000000000E+00  0.00000000000E+00  0.91188000000E+02  0.91188000000E+02 0.  0.
    9900012    2    3    3    0    0  0.58810472319E+01 -0.34150387069E+02 -0.26130205401E+02  0.47787270884E+02  0.19999999268E+02 0.  0.
         12    1    3    3    0    0 -0.58810472319E+01  0.34150387069E+02  0.26130205401E+02  0.43400729116E+02  0.00000000000E+00 0. -1.
         11    1    4    4    0    0  0.45869093987E+00 -0.75103062520E+01 -0.14705662039E+02  0.16518825432E+02  0.51100000000E-03 0. -1.
        -11    1    4    4    0    0  0.28628642844E+01 -0.24592142931E+02 -0.12607672292E+02  0.27783500260E+02  0.51100000000E-03 0.  1.
        -12    1    4    4    0    0  0.25594920076E+01 -0.20479378861E+01  0.11831289300E+01  0.34849451914E+01  0.00000000000E+00 0.  1.
</event>
<event>
 8    1  0.6469014E-010  0.9118800E+02  0.7816164E-02  0.1184000E+00
        -11   -1    0    0    0    0  0.00000000000E+00  0.00000000000E+00  0.45593999997E+02  0.45594000000E+02  0.51100000000E-03 0. -1.
         11   -1    0    0    0    0 -0.00000000000E+00 -0.00000000000E+00 -0.45593999997E+02  0.45594000000E+02  0.51100000000E-03 0.  1.
         23    2    1    2    0    0  0.00000000000E+00 -0.35527136788E-14  0.00000000000E+00  0.91188000000E+02  0.91188000000E+02 0.  0.
    9900012    2    3    3    0    0 -0.23919355048E+02  0.28154786602E+02 -0.22777093449E+02  0.47787267973E+02  0.19999985996E+02 0.  0.
         12    1    3    3    0    0  0.23919355048E+02 -0.28154786602E+02  0.22777093449E+02  0.43400732027E+02  0.00000000000E+00 0. -1.
         11    1    4    4    0    0 -0.48045059358E+01  0.13905615523E+02 -0.16300386513E+02  0.21957960313E+02  0.51100000000E-03 0. -1.
        -11    1    4    4    0    0 -0.88590564123E+01  0.90937955495E+01 -0.66863099537E+01  0.14348753920E+02  0.51100000000E-03 0.  1.
         12    1    4    4    0    0 -0.10255792700E+02  0.51553755294E+01  0.20960301748E+00  0.11480553740E+02  0.00000000000E+00 0. -1.
</event>
<event>
 8    1  0.6469014E-010  0.9118800E+02  0.7816164E-02  0.1184000E+00
        -11   -1    0    0    0    0  0.00000000000E+00  0.00000000000E+00  0.45593999997E+02  0.45594000000E+02  0.51100000000E-03 0.  1.
         11   -1    0    0    0    0 -0.00000000000E+00 -0.00000000000E+00 -0.45593999997E+02  0.45594000000E+02  0.51100000000E-03 0. -1.
         23    2    1    2    0    0  0.71054273576E-14 -0.35527136788E-14  0.88817841970E-15  0.91188000000E+02  0.91188000000E+02 0.  0.
    9900012    2    3    3    0    0  0.37220869637E+02 -0.22289306796E+02  0.11903068340E+01  0.47787272307E+02  0.20000005755E+02 0.  0.
        -12    1    3    3    0    0 -0.37220869637E+02  0.22289306796E+02 -0.11903068340E+01  0.43400727693E+02  0.00000000000E+00 0.  1.
         11    1    4    4    0    0  0.12088451247E+02 -0.44289333007E+01  0.38428539209E+01  0.13435536098E+02  0.51100000000E-03 0. -1.
        -11    1    4    4    0    0  0.18767213534E+02 -0.74401396727E+01 -0.70345832496E+01  0.21378712401E+02  0.51100000000E-03 0.  1.
        -12    1    4    4    0    0  0.63652048564E+01 -0.10420233822E+02  0.43820361628E+01  0.12973023807E+02  0.00000000000E+00 0.  1.
</event>
<event>
 8    1  0.6469014E-010  0.9118800E+02  0.7816164E-02  0.1184000E+00
        -11   -1    0    0    0    0  0.00000000000E+00  0.00000000000E+00  0.45593999997E+02  0.45594000000E+02  0.51100000000E-03 0. -1.
         11   -1    0    0    0    0 -0.00000000000E+00 -0.00000000000E+00 -0.45593999997E+02  0.45594000000E+02  0.51100000000E-03 0.  1.
         23    2    1    2    0    0 -0.35527136788E-14  0.00000000000E+00 -0.35527136788E-14  0.91188000000E+02  0.91188000000E+02 0.  0.
    9900012    2    3    3    0    0  0.23680513958E+02  0.25256653746E+02 -0.26171704020E+02  0.47787269694E+02  0.19999993844E+02 0.  0.
         12    1    3    3    0    0 -0.23680513958E+02 -0.25256653746E+02  0.26171704020E+02  0.43400730306E+02  0.00000000000E+00 0. -1.
         11    1    4    4    0    0 -0.84356628234E+00  0.27662154343E+01 -0.95435554881E+01  0.99721112868E+01  0.51100000000E-03 0. -1.
        -11    1    4    4    0    0  0.15743782390E+02  0.18420717696E+02 -0.10913094867E+02  0.26576026118E+02  0.51100000000E-03 0.  1.
         12    1    4    4    0    0  0.87802978509E+01  0.40697206157E+01 -0.57150536640E+01  0.11239132290E+02  0.00000000000E+00 0. -1.
</event>
<event>
 8    1  0.6469014E-010  0.9118800E+02  0.7816164E-02  0.1184000E+00
        -11   -1    0    0    0    0  0.00000000000E+00  0.00000000000E+00  0.45593999997E+02  0.45594000000E+02  0.51100000000E-03 0. -1.
         11   -1    0    0    0    0 -0.00000000000E+00 -0.00000000000E+00 -0.45593999997E+02  0.45594000000E+02  0.51100000000E-03 0.  1.
         23    2    1    2    0    0  0.22204460493E-15 -0.11102230246E-15  0.71054273576E-14  0.91188000000E+02  0.91188000000E+02 0.  0.
    9900012    2    3    3    0    0  0.13757349768E+01  0.91293130854E+00  0.43369311361E+02  0.47787271225E+02  0.20000000821E+02 0.  0.
        -12    1    3    3    0    0 -0.13757349768E+01 -0.91293130854E+00 -0.43369311361E+02  0.43400728775E+02  0.00000000000E+00 0.  1.
         11    1    4    4    0    0 -0.17670371928E+01  0.28949755678E+01  0.36192118382E+02  0.36350691014E+02  0.51100000000E-03 0. -1.
        -11    1    4    4    0    0 -0.25765395725E+01 -0.80372221133E+00  0.38926268453E+01  0.47367783968E+01  0.51100000000E-03 0.  1.
         12    1    4    4    0    0  0.57193117421E+01 -0.11783220479E+01  0.32845661339E+01  0.66998018135E+01  0.00000000000E+00 0. -1.
</event>
<event>
 8    1  0.6469014E-010  0.9118800E+02  0.7816164E-02  0.1184000E+00
        -11   -1    0    0    0    0  0.00000000000E+00  0.00000000000E+00  0.45593999997E+02  0.45594000000E+02  0.51100000000E-03 0. -1.
         11   -1    0    0    0    0 -0.00000000000E+00 -0.00000000000E+00 -0.45593999997E+02  0.45594000000E+02  0.51100000000E-03 0.  1.
         23    2    1    2    0    0 -0.35527136788E-14  0.00000000000E+00  0.00000000000E+00  0.91188000000E+02  0.91188000000E+02 0.  0.
    9900012    2    3    3    0    0  0.18209180628E+02 -0.31851595061E+02  0.23184599139E+02  0.47787262630E+02  0.19999961634E+02 0.  0.
        -12    1    3    3    0    0 -0.18209180628E+02  0.31851595061E+02 -0.23184599139E+02  0.43400737370E+02  0.00000000000E+00 0.  1.
         11    1    4    4    0    0  0.11800591201E+02 -0.81179724605E+01  0.13663587549E+02  0.19795177557E+02  0.51100000000E-03 0. -1.
        -11    1    4    4    0    0  0.84060476048E+01 -0.20344142491E+02  0.62687560331E+01  0.22887618323E+02  0.51100000000E-03 0.  1.
        -12    1    4    4    0    0 -0.19974581785E+01 -0.33894801098E+01  0.32522555572E+01  0.51044667497E+01  0.00000000000E+00 0.  1.
</event>
<event>
 8    1  0.6469014E-010  0.9118800E+02  0.7816164E-02  0.1184000E+00
        -11   -1    0    0    0    0  0.00000000000E+00  0.00000000000E+00  0.45593999997E+02  0.45594000000E+02  0.51100000000E-03 0. -1.
         11   -1    0    0    0    0 -0.00000000000E+00 -0.00000000000E+00 -0.45593999997E+02  0.45594000000E+02  0.51100000000E-03 0.  1.
         23    2    1    2    0    0  0.00000000000E+00  0.00000000000E+00 -0.71054273576E-14  0.91188000000E+02  0.91188000000E+02 0.  0.
    9900012    2    3    3    0    0 -0.18902561519E+02 -0.71165531247E+01  0.38414468835E+02  0.47787267561E+02  0.19999984117E+02 0.  0.
        -12    1    3    3    0    0  0.18902561519E+02  0.71165531247E+01 -0.38414468835E+02  0.43400732439E+02  0.00000000000E+00 0.  1.
         11    1    4    4    0    0 -0.25666154956E+01 -0.67976290796E+01  0.13579716871E+02  0.15401428076E+02  0.51100000000E-03 0. -1.
        -11    1    4    4    0    0 -0.46079807721E+01  0.11032292567E+01 -0.15878415485E+00  0.47408664037E+01  0.51100000000E-03 0.  1.
        -12    1    4    4    0    0 -0.11727965251E+02 -0.14221533017E+01  0.24993536119E+02  0.27644973081E+02  0.00000000000E+00 0.  1.
</event>
<event>
 8    1  0.6469014E-010  0.9118800E+02  0.7816164E-02  0.1184000E+00
        -11   -1    0    0    0    0  0.00000000000E+00  0.00000000000E+00  0.45593999997E+02  0.45594000000E+02  0.51100000000E-03 0. -1.
         11   -1    0    0    0    0 -0.00000000000E+00 -0.00000000000E+00 -0.45593999997E+02  0.45594000000E+02  0.51100000000E-03 0.  1.
         23    2    1    2    0    0  0.00000000000E+00 -0.35527136788E-14  0.00000000000E+00  0.91188000000E+02  0.91188000000E+02 0.  0.
    9900012    2    3    3    0    0 -0.20844570669E+02 -0.16973311193E+02  0.34073946708E+02  0.47787271164E+02  0.20000000547E+02 0.  0.
        -12    1    3    3    0    0  0.20844570669E+02  0.16973311193E+02 -0.34073946708E+02  0.43400728836E+02  0.00000000000E+00 0.  1.
         11    1    4    4    0    0 -0.60225628084E+01 -0.14842844357E+02  0.23529032312E+02  0.28463953576E+02  0.51100000000E-03 0. -1.
        -11    1    4    4    0    0 -0.89653027438E+01 -0.39127654070E+01  0.46739362889E+01  0.10841220739E+02  0.51100000000E-03 0.  1.
         12    1    4    4    0    0 -0.58567051170E+01  0.17822985715E+01  0.58709781067E+01  0.84820968489E+01  0.00000000000E+00 0. -1.
</event>
<event>
 8    1  0.6469014E-010  0.9118800E+02  0.7816164E-02  0.1184000E+00
        -11   -1    0    0    0    0  0.00000000000E+00  0.00000000000E+00  0.45593999997E+02  0.45594000000E+02  0.51100000000E-03 0. -1.
         11   -1    0    0    0    0 -0.00000000000E+00 -0.00000000000E+00 -0.45593999997E+02  0.45594000000E+02  0.51100000000E-03 0.  1.
         23    2    1    2    0    0  0.00000000000E+00  0.17763568394E-14 -0.71054273576E-14  0.91188000000E+02  0.91188000000E+02 0.  0.
    9900012    2    3    3    0    0 -0.36322722426E+01  0.15223725194E+02  0.40480468727E+02  0.47787267762E+02  0.19999985034E+02 0.  0.
        -12    1    3    3    0    0  0.36322722426E+01 -0.15223725194E+02 -0.40480468727E+02  0.43400732238E+02  0.00000000000E+00 0.  1.
         11    1    4    4    0    0 -0.56591437775E+01  0.30953167872E+01  0.22478842542E+02  0.23386005571E+02  0.51100000000E-03 0. -1.
        -11    1    4    4    0    0 -0.18459023966E+01  0.62743991804E+01  0.18601161285E+01  0.67996671246E+01  0.51100000000E-03 0.  1.
        -12    1    4    4    0    0  0.38727739315E+01  0.58540092262E+01  0.16141510057E+02  0.17601595066E+02  0.00000000000E+00 0.  1.
</event>
<event>
 8    1  0.6469014E-010  0.9118800E+02  0.7816164E-02  0.1184000E+00
        -11   -1    0    0    0    0  0.00000000000E+00  0.00000000000E+00  0.45593999997E+02  0.45594000000E+02  0.51100000000E-03 0.  1.
         11   -1    0    0    0    0 -0.00000000000E+00 -0.00000000000E+00 -0.45593999997E+02  0.45594000000E+02  0.51100000000E-03 0. -1.
         23    2    1    2    0    0  0.17763568394E-14  0.00000000000E+00  0.00000000000E+00  0.91188000000E+02  0.91188000000E+02 0.  0.
    9900012    2    3    3    0    0  0.15339704398E+02  0.40180147281E+02 -0.58199729967E+01  0.47787275902E+02  0.20000022147E+02 0.  0.
        -12    1    3    3    0    0 -0.15339704398E+02 -0.40180147281E+02  0.58199729967E+01  0.43400724098E+02  0.00000000000E+00 0.  1.
         11    1    4    4    0    0  0.99370239763E+01  0.22658362186E+02 -0.88102472302E+01  0.26263401893E+02  0.51100000000E-03 0. -1.
        -11    1    4    4    0    0 -0.22906383027E+01  0.69659869748E+01  0.41237619623E+01  0.84129311984E+01  0.51100000000E-03 0.  1.
        -12    1    4    4    0    0  0.76933187246E+01  0.10555798121E+02 -0.11334877288E+01  0.13110942811E+02  0.00000000000E+00 0.  1.
</event>
<event>
 8    1  0.6469014E-010  0.9118800E+02  0.7816164E-02  0.1184000E+00
        -11   -1    0    0    0    0  0.00000000000E+00  0.00000000000E+00  0.45593999997E+02  0.45594000000E+02  0.51100000000E-03 0.  1.
         11   -1    0    0    0    0 -0.00000000000E+00 -0.00000000000E+00 -0.45593999997E+02  0.45594000000E+02  0.51100000000E-03 0. -1.
         23    2    1    2    0    0  0.00000000000E+00  0.00000000000E+00 -0.88817841970E-15  0.91188000000E+02  0.91188000000E+02 0.  0.
    9900012    2    3    3    0    0 -0.44644987991E+01 -0.42475065667E+02 -0.77175499623E+01  0.47787268090E+02  0.19999986529E+02 0.  0.
         12    1    3    3    0    0  0.44644987991E+01  0.42475065667E+02  0.77175499623E+01  0.43400731910E+02  0.00000000000E+00 0. -1.
         11    1    4    4    0    0 -0.27666469956E+01 -0.10776636805E+01 -0.50907160656E+01  0.58933084875E+01  0.51100000000E-03 0. -1.
        -11    1    4    4    0    0 -0.88318888487E+00 -0.21786305545E+02  0.14301741047E+01  0.21851053296E+02  0.51100000000E-03 0.  1.
         12    1    4    4    0    0 -0.81466291864E+00 -0.19611096441E+02 -0.40570080014E+01  0.20042906306E+02  0.00000000000E+00 0. -1.
</event>
<event>
 8    1  0.6469014E-010  0.9118800E+02  0.7816164E-02  0.1184000E+00
        -11   -1    0    0    0    0  0.00000000000E+00  0.00000000000E+00  0.45593999997E+02  0.45594000000E+02  0.51100000000E-03 0. -1.
         11   -1    0    0    0    0 -0.00000000000E+00 -0.00000000000E+00 -0.45593999997E+02  0.45594000000E+02  0.51100000000E-03 0.  1.
         23    2    1    2    0    0  0.00000000000E+00 -0.35527136788E-14  0.00000000000E+00  0.91188000000E+02  0.91188000000E+02 0.  0.
    9900012    2    3    3    0    0  0.34458520080E+02  0.17915110779E+02  0.19372204877E+02  0.47787272793E+02  0.20000007972E+02 0.  0.
        -12    1    3    3    0    0 -0.34458520080E+02 -0.17915110779E+02 -0.19372204877E+02  0.43400727207E+02  0.00000000000E+00 0.  1.
         11    1    4    4    0    0  0.46253602819E+00  0.34763350473E+01  0.99574742112E+00  0.36455943448E+01  0.51100000000E-03 0. -1.
        -11    1    4    4    0    0  0.22737519769E+02  0.17232518820E+02  0.12751233899E+02  0.31249775621E+02  0.51100000000E-03 0.  1.
        -12    1    4    4    0    0  0.11258464282E+02 -0.27937430884E+01  0.56252235570E+01  0.12891902827E+02  0.00000000000E+00 0.  1.
</event>
<event>
 8    1  0.6469014E-010  0.9118800E+02  0.7816164E-02  0.1184000E+00
        -11   -1    0    0    0    0  0.00000000000E+00  0.00000000000E+00  0.45593999997E+02  0.45594000000E+02  0.51100000000E-03 0. -1.
         11   -1    0    0    0    0 -0.00000000000E+00 -0.00000000000E+00 -0.45593999997E+02  0.45594000000E+02  0.51100000000E-03 0.  1.
         23    2    1    2    0    0  0.44408920985E-15 -0.88817841970E-15  0.71054273576E-14  0.91188000000E+02  0.91188000000E+02 0.  0.
    9900012    2    3    3    0    0  0.33591476891E+01  0.44316201920E+00  0.43268270608E+02  0.47787268356E+02  0.19999987744E+02 0.  0.
        -12    1    3    3    0    0 -0.33591476891E+01 -0.44316201920E+00 -0.43268270608E+02  0.43400731644E+02  0.00000000000E+00 0.  1.
         11    1    4    4    0    0 -0.16269820011E+00 -0.39085751798E+01  0.12416634808E+02  0.13018304454E+02  0.51100000000E-03 0. -1.
        -11    1    4    4    0    0  0.17337631919E+00 -0.53477296602E+01  0.70565546474E+01  0.88556894492E+01  0.51100000000E-03 0.  1.
        -12    1    4    4    0    0  0.33484695700E+01  0.96994668593E+01  0.23795081153E+02  0.25913274453E+02  0.00000000000E+00 0.  1.
</event>
<event>
 8    1  0.6469014E-010  0.9118800E+02  0.7816164E-02  0.1184000E+00
        -11   -1    0    0    0    0  0.00000000000E+00  0.00000000000E+00  0.45593999997E+02  0.45594000000E+02  0.51100000000E-03 0. -1.
         11   -1    0    0    0    0 -0.00000000000E+00 -0.00000000000E+00 -0.45593999997E+02  0.45594000000E+02  0.51100000000E-03 0.  1.
         23    2    1    2    0    0 -0.88817841970E-15  0.71054273576E-14  0.00000000000E+00  0.91188000000E+02  0.91188000000E+02 0.  0.
    9900012    2    3    3    0    0 -0.67103892490E+00  0.38257253000E+02 -0.20483047098E+02  0.47787275136E+02  0.20000018654E+02 0.  0.
         12    1    3    3    0    0  0.67103892490E+00 -0.38257253000E+02  0.20483047098E+02  0.43400724864E+02  0.00000000000E+00 0. -1.
         11    1    4    4    0    0 -0.51806372924E+01  0.72065525406E+01 -0.40258983480E+01  0.97458329580E+01  0.51100000000E-03 0. -1.
        -11    1    4    4    0    0  0.93261487000E+01  0.16687985240E+02 -0.99886247420E+01  0.21569388620E+02  0.51100000000E-03 0.  1.
        -12    1    4    4    0    0 -0.48165503325E+01  0.14362715219E+02 -0.64685240076E+01  0.16472053557E+02  0.00000000000E+00 0.  1.
</event>
<event>
 8    1  0.6469014E-010  0.9118800E+02  0.7816164E-02  0.1184000E+00
        -11   -1    0    0    0    0  0.00000000000E+00  0.00000000000E+00  0.45593999997E+02  0.45594000000E+02  0.51100000000E-03 0. -1.
         11   -1    0    0    0    0 -0.00000000000E+00 -0.00000000000E+00 -0.45593999997E+02  0.45594000000E+02  0.51100000000E-03 0.  1.
         23    2    1    2    0    0 -0.35527136788E-14  0.00000000000E+00  0.00000000000E+00  0.91188000000E+02  0.91188000000E+02 0.  0.
    9900012    2    3    3    0    0  0.21775991014E+02  0.85522320342E+01 -0.36555267591E+02  0.47787285189E+02  0.20000064491E+02 0.  0.
         12    1    3    3    0    0 -0.21775991014E+02 -0.85522320342E+01  0.36555267591E+02  0.43400714811E+02  0.00000000000E+00 0. -1.
         11    1    4    4    0    0  0.16822250950E+01  0.41821858587E+00 -0.19787874725E+02  0.19863654610E+02  0.51100000000E-03 0. -1.
        -11    1    4    4    0    0  0.18099530804E+02  0.86940488979E+01 -0.16132089496E+02  0.25757014838E+02  0.51100000000E-03 0.  1.
         12    1    4    4    0    0  0.19942351151E+01 -0.56003544954E+00 -0.63530336986E+00  0.21666157414E+01  0.00000000000E+00 0. -1.
</event>
<event>
 8    1  0.6469014E-010  0.9118800E+02  0.7816164E-02  0.1184000E+00
        -11   -1    0    0    0    0  0.00000000000E+00  0.00000000000E+00  0.45593999997E+02  0.45594000000E+02  0.51100000000E-03 0. -1.
         11   -1    0    0    0    0 -0.00000000000E+00 -0.00000000000E+00 -0.45593999997E+02  0.45594000000E+02  0.51100000000E-03 0.  1.
         23    2    1    2    0    0  0.00000000000E+00  0.00000000000E+00  0.00000000000E+00  0.91188000000E+02  0.91188000000E+02 0.  0.
    9900012    2    3    3    0    0  0.22109621698E+02 -0.19357038939E+02  0.31938894450E+02  0.47787270665E+02  0.19999998268E+02 0.  0.
        -12    1    3    3    0    0 -0.22109621698E+02  0.19357038939E+02 -0.31938894450E+02  0.43400729335E+02  0.00000000000E+00 0.  1.
         11    1    4    4    0    0  0.43090966976E+01 -0.32592815213E+01  0.17741811276E+02  0.18546242153E+02  0.51100000000E-03 0.  1.
        -11    1    4    4    0    0  0.96909153170E+01 -0.43540759268E+01  0.28268087753E+01  0.10993755726E+02  0.51100000000E-03 0. -1.
         12    1    4    4    0    0  0.81096096838E+01 -0.11743681491E+02  0.11370274399E+02  0.18247272785E+02  0.00000000000E+00 0. -1.
</event>
<event>
 8    1  0.6469014E-010  0.9118800E+02  0.7816164E-02  0.1184000E+00
        -11   -1    0    0    0    0  0.00000000000E+00  0.00000000000E+00  0.45593999997E+02  0.45594000000E+02  0.51100000000E-03 0. -1.
         11   -1    0    0    0    0 -0.00000000000E+00 -0.00000000000E+00 -0.45593999997E+02  0.45594000000E+02  0.51100000000E-03 0.  1.
         23    2    1    2    0    0  0.00000000000E+00  0.00000000000E+00  0.00000000000E+00  0.91188000000E+02  0.91188000000E+02 0.  0.
    9900012    2    3    3    0    0 -0.40989645718E+02  0.12475559982E+02  0.69161187860E+01  0.47787270144E+02  0.19999995896E+02 0.  0.
        -12    1    3    3    0    0  0.40989645718E+02 -0.12475559982E+02 -0.69161187860E+01  0.43400729856E+02  0.00000000000E+00 0.  1.
         11    1    4    4    0    0 -0.19118283196E+02  0.70486202614E+01  0.79232795877E+01  0.21862528665E+02  0.51100000000E-03 0. -1.
        -11    1    4    4    0    0 -0.58301646840E+01 -0.41776572027E+01 -0.89169783774E+00  0.72276389810E+01  0.51100000000E-03 0.  1.
        -12    1    4    4    0    0 -0.16041197838E+02  0.96045969227E+01 -0.11546296399E+00  0.18697102498E+02  0.00000000000E+00 0.  1.
</event>
<event>
 8    1  0.6469014E-010  0.9118800E+02  0.7816164E-02  0.1184000E+00
        -11   -1    0    0    0    0  0.00000000000E+00  0.00000000000E+00  0.45593999997E+02  0.45594000000E+02  0.51100000000E-03 0. -1.
         11   -1    0    0    0    0 -0.00000000000E+00 -0.00000000000E+00 -0.45593999997E+02  0.45594000000E+02  0.51100000000E-03 0.  1.
         23    2    1    2    0    0  0.00000000000E+00  0.17763568394E-14 -0.35527136788E-14  0.91188000000E+02  0.91188000000E+02 0.  0.
    9900012    2    3    3    0    0 -0.29491440642E+02  0.65993619961E+01 -0.31150060534E+02  0.47787275108E+02  0.20000018529E+02 0.  0.
         12    1    3    3    0    0  0.29491440642E+02 -0.65993619961E+01  0.31150060534E+02  0.43400724892E+02  0.00000000000E+00 0. -1.
         11    1    4    4    0    0 -0.27073459715E+01 -0.42909734812E+01 -0.26426933102E+00  0.50805525453E+01  0.51100000000E-03 0. -1.
        -11    1    4    4    0    0 -0.14408946575E+02  0.39634397281E+01 -0.12472802705E+02  0.19465287140E+02  0.51100000000E-03 0.  1.
         12    1    4    4    0    0 -0.12375148095E+02  0.69268957492E+01 -0.18412988498E+02  0.23241435423E+02  0.00000000000E+00 0. -1.
</event>
<event>
 8    1  0.6469014E-010  0.9118800E+02  0.7816164E-02  0.1184000E+00
        -11   -1    0    0    0    0  0.00000000000E+00  0.00000000000E+00  0.45593999997E+02  0.45594000000E+02  0.51100000000E-03 0. -1.
         11   -1    0    0    0    0 -0.00000000000E+00 -0.00000000000E+00 -0.45593999997E+02  0.45594000000E+02  0.51100000000E-03 0.  1.
         23    2    1    2    0    0  0.00000000000E+00  0.00000000000E+00  0.17763568394E-14  0.91188000000E+02  0.91188000000E+02 0.  0.
    9900012    2    3    3    0    0  0.58291356231E+01 -0.40548470098E+02  0.14334140093E+02  0.47787253214E+02  0.19999918703E+02 0.  0.
        -12    1    3    3    0    0 -0.58291356231E+01  0.40548470098E+02 -0.14334140093E+02  0.43400746786E+02  0.00000000000E+00 0.  1.
         11    1    4    4    0    0 -0.38631909560E+01 -0.12739416156E+02  0.54756279548E+01  0.14394424966E+02  0.51100000000E-03 0. -1.
        -11    1    4    4    0    0  0.65300847163E+01 -0.30501275786E+01  0.13978159418E+01  0.73416057042E+01  0.51100000000E-03 0.  1.
        -12    1    4    4    0    0  0.31622418628E+01 -0.24758926363E+02  0.74606961964E+01  0.26051222543E+02  0.00000000000E+00 0.  1.
</event>
<event>
 8    1  0.6469014E-010  0.9118800E+02  0.7816164E-02  0.1184000E+00
        -11   -1    0    0    0    0  0.00000000000E+00  0.00000000000E+00  0.45593999997E+02  0.45594000000E+02  0.51100000000E-03 0. -1.
         11   -1    0    0    0    0 -0.00000000000E+00 -0.00000000000E+00 -0.45593999997E+02  0.45594000000E+02  0.51100000000E-03 0.  1.
         23    2    1    2    0    0  0.17763568394E-14 -0.88817841970E-15 -0.71054273576E-14  0.91188000000E+02  0.91188000000E+02 0.  0.
    9900012    2    3    3    0    0  0.42751250787E+01 -0.61103671397E+01 -0.42755184822E+02  0.47787319012E+02  0.20000218703E+02 0.  0.
         12    1    3    3    0    0 -0.42751250787E+01  0.61103671397E+01  0.42755184822E+02  0.43400680988E+02  0.00000000000E+00 0. -1.
         11    1    4    4    0    0 -0.53143653792E+01 -0.32720334570E+01 -0.13307994115E+02  0.14698686674E+02  0.51100000000E-03 0. -1.
        -11    1    4    4    0    0  0.92012704741E+01  0.26600965782E+01 -0.18604527770E+02  0.20925294405E+02  0.51100000000E-03 0.  1.
         12    1    4    4    0    0  0.38821998385E+00 -0.54984302609E+01 -0.10842662937E+02  0.12163337933E+02  0.00000000000E+00 0. -1.
</event>
<event>
 8    1  0.6469014E-010  0.9118800E+02  0.7816164E-02  0.1184000E+00
        -11   -1    0    0    0    0  0.00000000000E+00  0.00000000000E+00  0.45593999997E+02  0.45594000000E+02  0.51100000000E-03 0. -1.
         11   -1    0    0    0    0 -0.00000000000E+00 -0.00000000000E+00 -0.45593999997E+02  0.45594000000E+02  0.51100000000E-03 0.  1.
         23    2    1    2    0    0  0.71054273576E-14 -0.14432899320E-14 -0.35527136788E-14  0.91188000000E+02  0.91188000000E+02 0.  0.
    9900012    2    3    3    0    0  0.37308030807E+02 -0.96840574927E+00 -0.22153931701E+02  0.47787266571E+02  0.19999979602E+02 0.  0.
         12    1    3    3    0    0 -0.37308030807E+02  0.96840574927E+00  0.22153931701E+02  0.43400733429E+02  0.00000000000E+00 0. -1.
         11    1    4    4    0    0  0.79897591092E+01 -0.19833584294E+01 -0.12448241735E+01  0.83258362203E+01  0.51100000000E-03 0. -1.
        -11    1    4    4    0    0  0.12377069433E+02  0.63397094007E+01 -0.29712833454E+01  0.14220136708E+02  0.51100000000E-03 0.  1.
        -12    1    4    4    0    0  0.16941202265E+02 -0.53247567206E+01 -0.17937824182E+02  0.25241293642E+02  0.00000000000E+00 0.  1.
</event>
<event>
 8    1  0.6469014E-010  0.9118800E+02  0.7816164E-02  0.1184000E+00
        -11   -1    0    0    0    0  0.00000000000E+00  0.00000000000E+00  0.45593999997E+02  0.45594000000E+02  0.51100000000E-03 0. -1.
         11   -1    0    0    0    0 -0.00000000000E+00 -0.00000000000E+00 -0.45593999997E+02  0.45594000000E+02  0.51100000000E-03 0.  1.
         23    2    1    2    0    0 -0.35527136788E-14  0.33306690739E-15  0.35527136788E-14  0.91188000000E+02  0.91188000000E+02 0.  0.
    9900012    2    3    3    0    0 -0.30411194028E+02 -0.67704195904E+00 -0.30956805904E+02  0.47787274893E+02  0.20000017547E+02 0.  0.
         12    1    3    3    0    0  0.30411194028E+02  0.67704195904E+00  0.30956805904E+02  0.43400725107E+02  0.00000000000E+00 0. -1.
         11    1    4    4    0    0 -0.81545283681E+01 -0.66387529001E+01 -0.86529591841E+01  0.13617748561E+02  0.51100000000E-03 0. -1.
        -11    1    4    4    0    0 -0.72783943054E+01  0.66286138339E+01 -0.43064509662E+01  0.10745188003E+02  0.51100000000E-03 0.  1.
        -12    1    4    4    0    0 -0.14978271354E+02 -0.66690289283E+00 -0.17997395754E+02  0.23424338329E+02  0.00000000000E+00 0.  1.
</event>
<event>
 8    1  0.6469014E-010  0.9118800E+02  0.7816164E-02  0.1184000E+00
        -11   -1    0    0    0    0  0.00000000000E+00  0.00000000000E+00  0.45593999997E+02  0.45594000000E+02  0.51100000000E-03 0. -1.
         11   -1    0    0    0    0 -0.00000000000E+00 -0.00000000000E+00 -0.45593999997E+02  0.45594000000E+02  0.51100000000E-03 0.  1.
         23    2    1    2    0    0  0.44408920985E-15  0.35527136788E-14  0.00000000000E+00  0.91188000000E+02  0.91188000000E+02 0.  0.
    9900012    2    3    3    0    0 -0.31501095169E+01 -0.16399798259E+02  0.40059286585E+02  0.47787274032E+02  0.20000013621E+02 0.  0.
        -12    1    3    3    0    0  0.31501095169E+01  0.16399798259E+02 -0.40059286585E+02  0.43400725968E+02  0.00000000000E+00 0.  1.
         11    1    4    4    0    0 -0.72005532025E+01 -0.43550684732E+01  0.62711954002E+01  0.10494878743E+02  0.51100000000E-03 0. -1.
        -11    1    4    4    0    0  0.22292148493E+01 -0.13249972953E+02  0.30685726418E+02  0.33498432622E+02  0.51100000000E-03 0.  1.
        -12    1    4    4    0    0  0.18212288363E+01  0.12052431676E+01  0.31023647667E+01  0.37939626662E+01  0.00000000000E+00 0.  1.
</event>
<event>
 8    1  0.6469014E-010  0.9118800E+02  0.7816164E-02  0.1184000E+00
        -11   -1    0    0    0    0  0.00000000000E+00  0.00000000000E+00  0.45593999997E+02  0.45594000000E+02  0.51100000000E-03 0. -1.
         11   -1    0    0    0    0 -0.00000000000E+00 -0.00000000000E+00 -0.45593999997E+02  0.45594000000E+02  0.51100000000E-03 0.  1.
         23    2    1    2    0    0  0.00000000000E+00  0.00000000000E+00  0.00000000000E+00  0.91188000000E+02  0.91188000000E+02 0.  0.
    9900012    2    3    3    0    0 -0.37905857260E+02  0.11403206000E+02 -0.17797079908E+02  0.47787272184E+02  0.20000005198E+02 0.  0.
         12    1    3    3    0    0  0.37905857260E+02 -0.11403206000E+02  0.17797079908E+02  0.43400727816E+02  0.00000000000E+00 0. -1.
         11    1    4    4    0    0  0.62662198926E+00 -0.10072937998E+01  0.85194509811E+00  0.14605158773E+01  0.51100000000E-03 0. -1.
        -11    1    4    4    0    0 -0.17992272687E+02  0.92986255565E+01 -0.15073490776E+02  0.25246711431E+02  0.51100000000E-03 0.  1.
        -12    1    4    4    0    0 -0.20540206562E+02  0.31118742435E+01 -0.35755342298E+01  0.21080044876E+02  0.00000000000E+00 0.  1.
</event>
<event>
 8    1  0.6469014E-010  0.9118800E+02  0.7816164E-02  0.1184000E+00
        -11   -1    0    0    0    0  0.00000000000E+00  0.00000000000E+00  0.45593999997E+02  0.45594000000E+02  0.51100000000E-03 0. -1.
         11   -1    0    0    0    0 -0.00000000000E+00 -0.00000000000E+00 -0.45593999997E+02  0.45594000000E+02  0.51100000000E-03 0.  1.
         23    2    1    2    0    0  0.17763568394E-14 -0.71054273576E-14  0.00000000000E+00  0.91188000000E+02  0.91188000000E+02 0.  0.
    9900012    2    3    3    0    0 -0.48576302849E+01  0.42701982899E+02 -0.60470524693E+01  0.47787276975E+02  0.20000027041E+02 0.  0.
         12    1    3    3    0    0  0.48576302849E+01 -0.42701982899E+02  0.60470524693E+01  0.43400723025E+02  0.00000000000E+00 0. -1.
         11    1    4    4    0    0 -0.24997184548E+01  0.12709249619E+02 -0.40371920957E+01  0.13567333508E+02  0.51100000000E-03 0.  1.
        -11    1    4    4    0    0  0.62041349434E+01  0.17478746599E+02 -0.38604949649E+01  0.18944690409E+02  0.51100000000E-03 0. -1.
        -12    1    4    4    0    0 -0.85620467736E+01  0.12513986681E+02  0.18506345913E+01  0.15275253058E+02  0.00000000000E+00 0.  1.
</event>
<event>
 8    1  0.6469014E-010  0.9118800E+02  0.7816164E-02  0.1184000E+00
        -11   -1    0    0    0    0  0.00000000000E+00  0.00000000000E+00  0.45593999997E+02  0.45594000000E+02  0.51100000000E-03 0. -1.
         11   -1    0    0    0    0 -0.00000000000E+00 -0.00000000000E+00 -0.45593999997E+02  0.45594000000E+02  0.51100000000E-03 0.  1.
         23    2    1    2    0    0 -0.44408920985E-15  0.00000000000E+00  0.00000000000E+00  0.91188000000E+02  0.91188000000E+02 0.  0.
    9900012    2    3    3    0    0  0.36301143411E+01  0.21260507439E+02 -0.37662133170E+02  0.47787272108E+02  0.20000004849E+02 0.  0.
         12    1    3    3    0    0 -0.36301143411E+01 -0.21260507439E+02  0.37662133170E+02  0.43400727892E+02  0.00000000000E+00 0. -1.
         11    1    4    4    0    0 -0.46399972233E+01  0.10503023570E+02 -0.16018852216E+02  0.19709051345E+02  0.51100000000E-03 0. -1.
        -11    1    4    4    0    0  0.10414469061E+02  0.11269480346E+02 -0.16778519520E+02  0.22737217742E+02  0.51100000000E-03 0.  1.
        -12    1    4    4    0    0 -0.21443574968E+01 -0.51199647723E+00 -0.48647614328E+01  0.53410030204E+01  0.00000000000E+00 0.  1.
</event>
<event>
 8    1  0.6469014E-010  0.9118800E+02  0.7816164E-02  0.1184000E+00
        -11   -1    0    0    0    0  0.00000000000E+00  0.00000000000E+00  0.45593999997E+02  0.45594000000E+02  0.51100000000E-03 0. -1.
         11   -1    0    0    0    0 -0.00000000000E+00 -0.00000000000E+00 -0.45593999997E+02  0.45594000000E+02  0.51100000000E-03 0.  1.
         23    2    1    2    0    0 -0.17763568394E-14 -0.35527136788E-14  0.00000000000E+00  0.91188000000E+02  0.91188000000E+02 0.  0.
    9900012    2    3    3    0    0 -0.12517236405E+02 -0.28211878465E+02 -0.30512822662E+02  0.47787266820E+02  0.19999980738E+02 0.  0.
         12    1    3    3    0    0  0.12517236405E+02  0.28211878465E+02  0.30512822662E+02  0.43400733180E+02  0.00000000000E+00 0. -1.
         11    1    4    4    0    0 -0.36849111951E+01 -0.13045588889E+02 -0.12027242383E+01  0.13609280136E+02  0.51100000000E-03 0. -1.
        -11    1    4    4    0    0 -0.64307230137E+01 -0.10836104971E+02 -0.21884925734E+02  0.25253224429E+02  0.51100000000E-03 0.  1.
         12    1    4    4    0    0 -0.24016021963E+01 -0.43301846055E+01 -0.74251726899E+01  0.89247622546E+01  0.00000000000E+00 0. -1.
</event>
<event>
 8    1  0.6469014E-010  0.9118800E+02  0.7816164E-02  0.1184000E+00
        -11   -1    0    0    0    0  0.00000000000E+00  0.00000000000E+00  0.45593999997E+02  0.45594000000E+02  0.51100000000E-03 0. -1.
         11   -1    0    0    0    0 -0.00000000000E+00 -0.00000000000E+00 -0.45593999997E+02  0.45594000000E+02  0.51100000000E-03 0.  1.
         23    2    1    2    0    0  0.88817841970E-15  0.35527136788E-14  0.00000000000E+00  0.91188000000E+02  0.91188000000E+02 0.  0.
    9900012    2    3    3    0    0  0.74585234661E+01 -0.26845896759E+02 -0.33275988704E+02  0.47787272249E+02  0.20000005492E+02 0.  0.
         12    1    3    3    0    0 -0.74585234661E+01  0.26845896759E+02  0.33275988704E+02  0.43400727751E+02  0.00000000000E+00 0. -1.
         11    1    4    4    0    0  0.85530713170E+01 -0.22808719535E+01 -0.10931494888E+02  0.14066093508E+02  0.51100000000E-03 0. -1.
        -11    1    4    4    0    0 -0.20259571108E+01 -0.16641642262E+02 -0.11810119635E+02  0.20506771697E+02  0.51100000000E-03 0.  1.
         12    1    4    4    0    0  0.93140925998E+00 -0.79233825436E+01 -0.10534374181E+02  0.13214407044E+02  0.00000000000E+00 0. -1.
</event>
<event>
 8    1  0.6469014E-010  0.9118800E+02  0.7816164E-02  0.1184000E+00
        -11   -1    0    0    0    0  0.00000000000E+00  0.00000000000E+00  0.45593999997E+02  0.45594000000E+02  0.51100000000E-03 0.  1.
         11   -1    0    0    0    0 -0.00000000000E+00 -0.00000000000E+00 -0.45593999997E+02  0.45594000000E+02  0.51100000000E-03 0. -1.
         23    2    1    2    0    0  0.17763568394E-14 -0.71054273576E-14  0.00000000000E+00  0.91188000000E+02  0.91188000000E+02 0.  0.
    9900012    2    3    3    0    0 -0.11684155348E+02  0.41764804975E+02 -0.16742572212E+01  0.47787290812E+02  0.20000090127E+02 0.  0.
         12    1    3    3    0    0  0.11684155348E+02 -0.41764804975E+02  0.16742572212E+01  0.43400709188E+02  0.00000000000E+00 0. -1.
         11    1    4    4    0    0 -0.49899899032E+01  0.12551777591E+02  0.71346600705E+01  0.15275814038E+02  0.51100000000E-03 0. -1.
        -11    1    4    4    0    0  0.93303127844E+00  0.12949700730E+02 -0.61017381383E+01  0.14345609257E+02  0.51100000000E-03 0.  1.
        -12    1    4    4    0    0 -0.76271967229E+01  0.16263326654E+02 -0.27071791534E+01  0.18165867518E+02  0.00000000000E+00 0.  1.
</event>
<event>
 8    1  0.6469014E-010  0.9118800E+02  0.7816164E-02  0.1184000E+00
        -11   -1    0    0    0    0  0.00000000000E+00  0.00000000000E+00  0.45593999997E+02  0.45594000000E+02  0.51100000000E-03 0. -1.
         11   -1    0    0    0    0 -0.00000000000E+00 -0.00000000000E+00 -0.45593999997E+02  0.45594000000E+02  0.51100000000E-03 0.  1.
         23    2    1    2    0    0  0.00000000000E+00  0.00000000000E+00  0.00000000000E+00  0.91188000000E+02  0.91188000000E+02 0.  0.
    9900012    2    3    3    0    0  0.16991115576E+02  0.15791616833E+02  0.36681740810E+02  0.47787270978E+02  0.19999999699E+02 0.  0.
        -12    1    3    3    0    0 -0.16991115576E+02 -0.15791616833E+02 -0.36681740810E+02  0.43400729022E+02  0.00000000000E+00 0.  1.
         11    1    4    4    0    0  0.16569343018E+02  0.16191817834E+02  0.19032920872E+02  0.29982831254E+02  0.51100000000E-03 0. -1.
        -11    1    4    4    0    0  0.12306705519E+01 -0.32288861581E+00  0.14378358579E+02  0.14434542000E+02  0.51100000000E-03 0.  1.
         12    1    4    4    0    0 -0.80889799399E+00 -0.77312385119E-01  0.32704613592E+01  0.33698977242E+01  0.00000000000E+00 0. -1.
</event>
<event>
 8    1  0.6469014E-010  0.9118800E+02  0.7816164E-02  0.1184000E+00
        -11   -1    0    0    0    0  0.00000000000E+00  0.00000000000E+00  0.45593999997E+02  0.45594000000E+02  0.51100000000E-03 0. -1.
         11   -1    0    0    0    0 -0.00000000000E+00 -0.00000000000E+00 -0.45593999997E+02  0.45594000000E+02  0.51100000000E-03 0.  1.
         23    2    1    2    0    0  0.71054273576E-14  0.00000000000E+00  0.00000000000E+00  0.91188000000E+02  0.91188000000E+02 0.  0.
    9900012    2    3    3    0    0 -0.36959917979E+02 -0.74189833866E+01 -0.21506893549E+02  0.47787270494E+02  0.19999997490E+02 0.  0.
         12    1    3    3    0    0  0.36959917979E+02  0.74189833866E+01  0.21506893549E+02  0.43400729506E+02  0.00000000000E+00 0. -1.
         11    1    4    4    0    0 -0.22541129744E+02 -0.21711734173E+01 -0.42631834099E+01  0.23043247540E+02  0.51100000000E-03 0. -1.
        -11    1    4    4    0    0 -0.10236079270E+01 -0.89451186247E+00 -0.74883776023E+01  0.76107636960E+01  0.51100000000E-03 0.  1.
        -12    1    4    4    0    0 -0.13395180308E+02 -0.43532981068E+01 -0.97553325370E+01  0.17133259258E+02  0.00000000000E+00 0.  1.
</event>
<event>
 8    1  0.6469014E-010  0.9118800E+02  0.7816164E-02  0.1184000E+00
        -11   -1    0    0    0    0  0.00000000000E+00  0.00000000000E+00  0.45593999997E+02  0.45594000000E+02  0.51100000000E-03 0. -1.
         11   -1    0    0    0    0 -0.00000000000E+00 -0.00000000000E+00 -0.45593999997E+02  0.45594000000E+02  0.51100000000E-03 0.  1.
         23    2    1    2    0    0  0.00000000000E+00  0.00000000000E+00  0.00000000000E+00  0.91188000000E+02  0.91188000000E+02 0.  0.
    9900012    2    3    3    0    0  0.39878626736E+02 -0.17081982767E+02  0.12350997009E+01  0.47787257185E+02  0.19999936810E+02 0.  0.
        -12    1    3    3    0    0 -0.39878626736E+02  0.17081982767E+02 -0.12350997009E+01  0.43400742815E+02  0.00000000000E+00 0.  1.
         11    1    4    4    0    0  0.19702859537E+02 -0.17418116738E+02 -0.36092246701E+00  0.26300641245E+02  0.51100000000E-03 0. -1.
        -11    1    4    4    0    0  0.47418649174E+01  0.18096698247E+01 -0.21887145431E+01  0.55272650906E+01  0.51100000000E-03 0.  1.
         12    1    4    4    0    0  0.15433902282E+02 -0.14735358536E+01  0.37847367111E+01  0.15959350850E+02  0.00000000000E+00 0. -1.
</event>
<event>
 8    1  0.6469014E-010  0.9118800E+02  0.7816164E-02  0.1184000E+00
        -11   -1    0    0    0    0  0.00000000000E+00  0.00000000000E+00  0.45593999997E+02  0.45594000000E+02  0.51100000000E-03 0. -1.
         11   -1    0    0    0    0 -0.00000000000E+00 -0.00000000000E+00 -0.45593999997E+02  0.45594000000E+02  0.51100000000E-03 0.  1.
         23    2    1    2    0    0  0.00000000000E+00  0.00000000000E+00  0.00000000000E+00  0.91188000000E+02  0.91188000000E+02 0.  0.
    9900012    2    3    3    0    0 -0.37395759954E+02  0.18210622927E+02 -0.12391670136E+02  0.47787272602E+02  0.20000007101E+02 0.  0.
         12    1    3    3    0    0  0.37395759954E+02 -0.18210622927E+02  0.12391670136E+02  0.43400727398E+02  0.00000000000E+00 0. -1.
         11    1    4    4    0    0 -0.21893497735E+02  0.97345295487E+01 -0.98007526601E+01  0.25887082910E+02  0.51100000000E-03 0.  1.
        -11    1    4    4    0    0 -0.48087087302E+01 -0.53185332342E+00  0.41536952466E+01  0.63764984178E+01  0.51100000000E-03 0. -1.
        -12    1    4    4    0    0 -0.10693553488E+02  0.90079467021E+01 -0.67446127228E+01  0.15523691274E+02  0.00000000000E+00 0.  1.
</event>
<event>
 8    1  0.6469014E-010  0.9118800E+02  0.7816164E-02  0.1184000E+00
        -11   -1    0    0    0    0  0.00000000000E+00  0.00000000000E+00  0.45593999997E+02  0.45594000000E+02  0.51100000000E-03 0.  1.
         11   -1    0    0    0    0 -0.00000000000E+00 -0.00000000000E+00 -0.45593999997E+02  0.45594000000E+02  0.51100000000E-03 0. -1.
         23    2    1    2    0    0 -0.35527136788E-14  0.00000000000E+00 -0.44408920985E-15  0.91188000000E+02  0.91188000000E+02 0.  0.
    9900012    2    3    3    0    0 -0.17083603707E+02 -0.39869097639E+02  0.14929685762E+01  0.47787269392E+02  0.19999992466E+02 0.  0.
        -12    1    3    3    0    0  0.17083603707E+02  0.39869097639E+02 -0.14929685762E+01  0.43400730608E+02  0.00000000000E+00 0.  1.
         11    1    4    4    0    0 -0.19257810071E+01 -0.42861305072E+01 -0.10085868611E+01  0.48059124971E+01  0.51100000000E-03 0. -1.
        -11    1    4    4    0    0 -0.17906030803E+02 -0.22535633989E+02 -0.21403950848E+01  0.28862813962E+02  0.51100000000E-03 0.  1.
        -12    1    4    4    0    0  0.27482081034E+01 -0.13047333142E+02  0.46419505221E+01  0.14118542933E+02  0.00000000000E+00 0.  1.
</event>
<event>
 8    1  0.6469014E-010  0.9118800E+02  0.7816164E-02  0.1184000E+00
        -11   -1    0    0    0    0  0.00000000000E+00  0.00000000000E+00  0.45593999997E+02  0.45594000000E+02  0.51100000000E-03 0. -1.
         11   -1    0    0    0    0 -0.00000000000E+00 -0.00000000000E+00 -0.45593999997E+02  0.45594000000E+02  0.51100000000E-03 0.  1.
         23    2    1    2    0    0  0.44408920985E-15  0.00000000000E+00  0.00000000000E+00  0.91188000000E+02  0.91188000000E+02 0.  0.
    9900012    2    3    3    0    0 -0.36571724774E+01 -0.63076670099E+01  0.42783895958E+02  0.47787270432E+02  0.19999997210E+02 0.  0.
        -12    1    3    3    0    0  0.36571724774E+01  0.63076670099E+01 -0.42783895958E+02  0.43400729568E+02  0.00000000000E+00 0.  1.
         11    1    4    4    0    0  0.31084313597E+01 -0.94614240576E+01  0.29001938598E+02  0.30664202801E+02  0.51100000000E-03 0. -1.
        -11    1    4    4    0    0 -0.26478321353E+01  0.49899459850E+01  0.74256693430E+01  0.93301201173E+01  0.51100000000E-03 0.  1.
        -12    1    4    4    0    0 -0.41177717018E+01 -0.18361889372E+01  0.63562880166E+01  0.77929475137E+01  0.00000000000E+00 0.  1.
</event>
<event>
 8    1  0.6469014E-010  0.9118800E+02  0.7816164E-02  0.1184000E+00
        -11   -1    0    0    0    0  0.00000000000E+00  0.00000000000E+00  0.45593999997E+02  0.45594000000E+02  0.51100000000E-03 0. -1.
         11   -1    0    0    0    0 -0.00000000000E+00 -0.00000000000E+00 -0.45593999997E+02  0.45594000000E+02  0.51100000000E-03 0.  1.
         23    2    1    2    0    0  0.00000000000E+00 -0.88817841970E-15  0.00000000000E+00  0.91188000000E+02  0.91188000000E+02 0.  0.
    9900012    2    3    3    0    0  0.26456491359E+02  0.26545491942E+01  0.34302077893E+02  0.47787249843E+02  0.19999903332E+02 0.  0.
        -12    1    3    3    0    0 -0.26456491359E+02 -0.26545491942E+01 -0.34302077893E+02  0.43400750157E+02  0.00000000000E+00 0.  1.
         11    1    4    4    0    0  0.10803551872E+02 -0.84288569630E+00  0.23336879796E+02  0.25730082553E+02  0.51100000000E-03 0. -1.
        -11    1    4    4    0    0 -0.63953144365E+00  0.35996597362E+00 -0.12529373834E+01  0.14520428084E+01  0.51100000000E-03 0.  1.
         12    1    4    4    0    0  0.16292470932E+02  0.31374689169E+01  0.12218135480E+02  0.20605124481E+02  0.00000000000E+00 0. -1.
</event>
<event>
 8    1  0.6469014E-010  0.9118800E+02  0.7816164E-02  0.1184000E+00
        -11   -1    0    0    0    0  0.00000000000E+00  0.00000000000E+00  0.45593999997E+02  0.45594000000E+02  0.51100000000E-03 0. -1.
         11   -1    0    0    0    0 -0.00000000000E+00 -0.00000000000E+00 -0.45593999997E+02  0.45594000000E+02  0.51100000000E-03 0.  1.
         23    2    1    2    0    0 -0.66613381478E-15  0.00000000000E+00  0.00000000000E+00  0.91188000000E+02  0.91188000000E+02 0.  0.
    9900012    2    3    3    0    0  0.19741527754E+01  0.92894093775E+01 -0.42348943626E+02  0.47787269223E+02  0.19999991695E+02 0.  0.
         12    1    3    3    0    0 -0.19741527754E+01 -0.92894093775E+01  0.42348943626E+02  0.43400730777E+02  0.00000000000E+00 0. -1.
         11    1    4    4    0    0 -0.12119101809E+01  0.13388097546E+02 -0.29207625732E+02  0.32152687032E+02  0.51100000000E-03 0.  1.
        -11    1    4    4    0    0  0.44220856286E+01 -0.94627795990E+00 -0.10168324160E+02  0.11128571326E+02  0.51100000000E-03 0. -1.
         12    1    4    4    0    0 -0.12360226723E+01 -0.31524102090E+01 -0.29729937343E+01  0.45060108651E+01  0.00000000000E+00 0. -1.
</event>
<event>
 8    1  0.6469014E-010  0.9118800E+02  0.7816164E-02  0.1184000E+00
        -11   -1    0    0    0    0  0.00000000000E+00  0.00000000000E+00  0.45593999997E+02  0.45594000000E+02  0.51100000000E-03 0. -1.
         11   -1    0    0    0    0 -0.00000000000E+00 -0.00000000000E+00 -0.45593999997E+02  0.45594000000E+02  0.51100000000E-03 0.  1.
         23    2    1    2    0    0  0.00000000000E+00  0.00000000000E+00  0.00000000000E+00  0.91188000000E+02  0.91188000000E+02 0.  0.
    9900012    2    3    3    0    0  0.23332871520E+02  0.10801357594E+02 -0.34964714164E+02  0.47787268949E+02  0.19999990444E+02 0.  0.
         12    1    3    3    0    0 -0.23332871520E+02 -0.10801357594E+02  0.34964714164E+02  0.43400731051E+02  0.00000000000E+00 0. -1.
         11    1    4    4    0    0  0.88352618490E+01 -0.22059178956E+01 -0.11552127301E+02  0.14709846061E+02  0.51100000000E-03 0. -1.
        -11    1    4    4    0    0  0.98299738818E+00 -0.51071799134E+00  0.13812795300E+01  0.17706072780E+01  0.51100000000E-03 0.  1.
        -12    1    4    4    0    0  0.13514612283E+02  0.13517993481E+02 -0.24793866392E+02  0.31306815609E+02  0.00000000000E+00 0.  1.
</event>
<event>
 8    1  0.6469014E-010  0.9118800E+02  0.7816164E-02  0.1184000E+00
        -11   -1    0    0    0    0  0.00000000000E+00  0.00000000000E+00  0.45593999997E+02  0.45594000000E+02  0.51100000000E-03 0.  1.
         11   -1    0    0    0    0 -0.00000000000E+00 -0.00000000000E+00 -0.45593999997E+02  0.45594000000E+02  0.51100000000E-03 0. -1.
         23    2    1    2    0    0  0.00000000000E+00  0.00000000000E+00  0.00000000000E+00  0.91188000000E+02  0.91188000000E+02 0.  0.
    9900012    2    3    3    0    0  0.70650430631E+01  0.38414684696E+02 -0.18921503993E+02  0.47787237943E+02  0.19999849075E+02 0.  0.
        -12    1    3    3    0    0 -0.70650430631E+01 -0.38414684696E+02  0.18921503993E+02  0.43400762057E+02  0.00000000000E+00 0.  1.
         11    1    4    4    0    0  0.96860216504E+00  0.19788594648E+02 -0.98181466038E+01  0.22111595856E+02  0.51100000000E-03 0. -1.
        -11    1    4    4    0    0 -0.11345118114E+01  0.62768589858E+00 -0.58698454721E+01  0.60113386833E+01  0.51100000000E-03 0.  1.
        -12    1    4    4    0    0  0.72309527095E+01  0.17998404149E+02 -0.32335119168E+01  0.19664303403E+02  0.00000000000E+00 0.  1.
</event>
<event>
 8    1  0.6469014E-010  0.9118800E+02  0.7816164E-02  0.1184000E+00
        -11   -1    0    0    0    0  0.00000000000E+00  0.00000000000E+00  0.45593999997E+02  0.45594000000E+02  0.51100000000E-03 0. -1.
         11   -1    0    0    0    0 -0.00000000000E+00 -0.00000000000E+00 -0.45593999997E+02  0.45594000000E+02  0.51100000000E-03 0.  1.
         23    2    1    2    0    0  0.00000000000E+00  0.00000000000E+00  0.00000000000E+00  0.91188000000E+02  0.91188000000E+02 0.  0.
    9900012    2    3    3    0    0 -0.71839394068E+01 -0.37286820752E+02 -0.21016788725E+02  0.47787292684E+02  0.20000098665E+02 0.  0.
         12    1    3    3    0    0  0.71839394068E+01  0.37286820752E+02  0.21016788725E+02  0.43400707316E+02  0.00000000000E+00 0. -1.
         11    1    4    4    0    0 -0.39862350164E+01  0.27186556500E+00 -0.91299026281E+00  0.40984792268E+01  0.51100000000E-03 0. -1.
        -11    1    4    4    0    0 -0.45796807804E+01 -0.24230368899E+02 -0.88801571031E+01  0.26209567785E+02  0.51100000000E-03 0.  1.
         12    1    4    4    0    0  0.13819763900E+01 -0.13328317418E+02 -0.11223641359E+02  0.17479245673E+02  0.00000000000E+00 0. -1.
</event>
<event>
 8    1  0.6469014E-010  0.9118800E+02  0.7816164E-02  0.1184000E+00
        -11   -1    0    0    0    0  0.00000000000E+00  0.00000000000E+00  0.45593999997E+02  0.45594000000E+02  0.51100000000E-03 0. -1.
         11   -1    0    0    0    0 -0.00000000000E+00 -0.00000000000E+00 -0.45593999997E+02  0.45594000000E+02  0.51100000000E-03 0.  1.
         23    2    1    2    0    0  0.00000000000E+00  0.22204460493E-15  0.00000000000E+00  0.91188000000E+02  0.91188000000E+02 0.  0.
    9900012    2    3    3    0    0 -0.34407506172E+02  0.16690579193E+01 -0.26400020235E+02  0.47787270701E+02  0.19999998433E+02 0.  0.
         12    1    3    3    0    0  0.34407506172E+02 -0.16690579193E+01  0.26400020235E+02  0.43400729299E+02  0.00000000000E+00 0. -1.
         11    1    4    4    0    0 -0.17892175699E+01  0.27399265699E+00 -0.33131881213E+01  0.37753923342E+01  0.51100000000E-03 0. -1.
        -11    1    4    4    0    0 -0.17056105888E+02  0.65878502375E+01 -0.20387836475E+02  0.27385660394E+02  0.51100000000E-03 0.  1.
        -12    1    4    4    0    0 -0.15562182714E+02 -0.51927849752E+01 -0.26989956387E+01  0.16626217973E+02  0.00000000000E+00 0.  1.
</event>
<event>
 8    1  0.6469014E-010  0.9118800E+02  0.7816164E-02  0.1184000E+00
        -11   -1    0    0    0    0  0.00000000000E+00  0.00000000000E+00  0.45593999997E+02  0.45594000000E+02  0.51100000000E-03 0. -1.
         11   -1    0    0    0    0 -0.00000000000E+00 -0.00000000000E+00 -0.45593999997E+02  0.45594000000E+02  0.51100000000E-03 0.  1.
         23    2    1    2    0    0  0.00000000000E+00  0.00000000000E+00  0.00000000000E+00  0.91188000000E+02  0.91188000000E+02 0.  0.
    9900012    2    3    3    0    0 -0.15117634166E+02  0.33234497289E+02  0.23463773875E+02  0.47787270084E+02  0.19999995619E+02 0.  0.
        -12    1    3    3    0    0  0.15117634166E+02 -0.33234497289E+02 -0.23463773875E+02  0.43400729916E+02  0.00000000000E+00 0.  1.
         11    1    4    4    0    0 -0.14970305847E+02  0.20608791866E+02  0.13128016771E+02  0.28656189278E+02  0.51100000000E-03 0. -1.
        -11    1    4    4    0    0  0.85707419904E+00  0.13016063528E+02  0.11609731556E+02  0.17462484159E+02  0.51100000000E-03 0.  1.
        -12    1    4    4    0    0 -0.10044025179E+01 -0.39035810441E+00 -0.12739744517E+01  0.16685966473E+01  0.00000000000E+00 0.  1.
</event>
<event>
 8    1  0.6469014E-010  0.9118800E+02  0.7816164E-02  0.1184000E+00
        -11   -1    0    0    0    0  0.00000000000E+00  0.00000000000E+00  0.45593999997E+02  0.45594000000E+02  0.51100000000E-03 0. -1.
         11   -1    0    0    0    0 -0.00000000000E+00 -0.00000000000E+00 -0.45593999997E+02  0.45594000000E+02  0.51100000000E-03 0.  1.
         23    2    1    2    0    0  0.00000000000E+00  0.00000000000E+00  0.00000000000E+00  0.91188000000E+02  0.91188000000E+02 0.  0.
    9900012    2    3    3    0    0 -0.16774834494E+01  0.24723031778E+02 -0.35631171594E+02  0.47787278345E+02  0.20000033287E+02 0.  0.
         12    1    3    3    0    0  0.16774834494E+01 -0.24723031778E+02  0.35631171594E+02  0.43400721655E+02  0.00000000000E+00 0. -1.
         11    1    4    4    0    0 -0.32021102005E+01  0.63033508087E+01 -0.13486187005E+01  0.71975352597E+01  0.51100000000E-03 0. -1.
        -11    1    4    4    0    0  0.80190827969E+00  0.17411633689E+02 -0.35040434017E+02  0.39136173305E+02  0.51100000000E-03 0.  1.
        -12    1    4    4    0    0  0.72271847148E+00  0.10080472807E+01  0.75788112396E+00  0.14535697806E+01  0.00000000000E+00 0.  1.
</event>
<event>
 8    1  0.6469014E-010  0.9118800E+02  0.7816164E-02  0.1184000E+00
        -11   -1    0    0    0    0  0.00000000000E+00  0.00000000000E+00  0.45593999997E+02  0.45594000000E+02  0.51100000000E-03 0. -1.
         11   -1    0    0    0    0 -0.00000000000E+00 -0.00000000000E+00 -0.45593999997E+02  0.45594000000E+02  0.51100000000E-03 0.  1.
         23    2    1    2    0    0  0.88817841970E-15  0.00000000000E+00  0.71054273576E-14  0.91188000000E+02  0.91188000000E+02 0.  0.
    9900012    2    3    3    0    0  0.64673818514E+00 -0.24073032124E+02  0.36106705603E+02  0.47787270336E+02  0.19999996769E+02 0.  0.
        -12    1    3    3    0    0 -0.64673818514E+00  0.24073032124E+02 -0.36106705603E+02  0.43400729664E+02  0.00000000000E+00 0.  1.
         11    1    4    4    0    0  0.22855805868E+01 -0.17116710512E+02  0.22825096071E+02  0.28621507093E+02  0.51100000000E-03 0. -1.
        -11    1    4    4    0    0 -0.64340476412E+01 -0.49784888988E+01  0.55228872232E+01  0.98328329746E+01  0.51100000000E-03 0.  1.
        -12    1    4    4    0    0  0.47952052395E+01 -0.19778327130E+01  0.77587223082E+01  0.93329302679E+01  0.00000000000E+00 0.  1.
</event>
<event>
 8    1  0.6469014E-010  0.9118800E+02  0.7816164E-02  0.1184000E+00
        -11   -1    0    0    0    0  0.00000000000E+00  0.00000000000E+00  0.45593999997E+02  0.45594000000E+02  0.51100000000E-03 0. -1.
         11   -1    0    0    0    0 -0.00000000000E+00 -0.00000000000E+00 -0.45593999997E+02  0.45594000000E+02  0.51100000000E-03 0.  1.
         23    2    1    2    0    0  0.00000000000E+00 -0.17763568394E-14  0.00000000000E+00  0.91188000000E+02  0.91188000000E+02 0.  0.
    9900012    2    3    3    0    0 -0.18520605834E+02 -0.98190013496E+01  0.38002603409E+02  0.47787268511E+02  0.19999988447E+02 0.  0.
        -12    1    3    3    0    0  0.18520605834E+02  0.98190013496E+01 -0.38002603409E+02  0.43400731489E+02  0.00000000000E+00 0.  1.
         11    1    4    4    0    0  0.12994741241E+01 -0.41390390033E+01  0.62662621589E+01  0.76214380910E+01  0.51100000000E-03 0. -1.
        -11    1    4    4    0    0 -0.12591086257E+02  0.30481869515E+01  0.13623514391E+02  0.18799655354E+02  0.51100000000E-03 0.  1.
        -12    1    4    4    0    0 -0.72289937015E+01 -0.87281492978E+01  0.18112826859E+02  0.21366175065E+02  0.00000000000E+00 0.  1.
</event>
<event>
 8    1  0.6469014E-010  0.9118800E+02  0.7816164E-02  0.1184000E+00
        -11   -1    0    0    0    0  0.00000000000E+00  0.00000000000E+00  0.45593999997E+02  0.45594000000E+02  0.51100000000E-03 0. -1.
         11   -1    0    0    0    0 -0.00000000000E+00 -0.00000000000E+00 -0.45593999997E+02  0.45594000000E+02  0.51100000000E-03 0.  1.
         23    2    1    2    0    0  0.00000000000E+00  0.00000000000E+00  0.00000000000E+00  0.91188000000E+02  0.91188000000E+02 0.  0.
    9900012    2    3    3    0    0  0.43265260164E+01  0.13011118076E+02 -0.41177804701E+02  0.47787313128E+02  0.20000191875E+02 0.  0.
         12    1    3    3    0    0 -0.43265260164E+01 -0.13011118076E+02  0.41177804701E+02  0.43400686872E+02  0.00000000000E+00 0. -1.
         11    1    4    4    0    0 -0.26693507595E+01  0.55018084455E+01 -0.12788854211E+02  0.14175687706E+02  0.51100000000E-03 0. -1.
        -11    1    4    4    0    0  0.80495751723E+01 -0.13885683074E+01 -0.18746410192E+02  0.20448757364E+02  0.51100000000E-03 0.  1.
        -12    1    4    4    0    0 -0.10536983964E+01  0.88978779375E+01 -0.96425402979E+01  0.13162868057E+02  0.00000000000E+00 0.  1.
</event>
<event>
 8    1  0.6469014E-010  0.9118800E+02  0.7816164E-02  0.1184000E+00
        -11   -1    0    0    0    0  0.00000000000E+00  0.00000000000E+00  0.45593999997E+02  0.45594000000E+02  0.51100000000E-03 0. -1.
         11   -1    0    0    0    0 -0.00000000000E+00 -0.00000000000E+00 -0.45593999997E+02  0.45594000000E+02  0.51100000000E-03 0.  1.
         23    2    1    2    0    0  0.88817841970E-15  0.17763568394E-14  0.00000000000E+00  0.91188000000E+02  0.91188000000E+02 0.  0.
    9900012    2    3    3    0    0  0.78727195433E+01 -0.12655106834E+02 -0.40761405380E+02  0.47787267165E+02  0.19999982314E+02 0.  0.
         12    1    3    3    0    0 -0.78727195433E+01  0.12655106834E+02  0.40761405380E+02  0.43400732835E+02  0.00000000000E+00 0. -1.
         11    1    4    4    0    0 -0.45304545912E+01 -0.17586073826E-01 -0.43119911749E+01  0.62544860881E+01  0.51100000000E-03 0. -1.
        -11    1    4    4    0    0  0.10290130124E+02 -0.13280885809E+02 -0.26776746651E+02  0.31611119362E+02  0.51100000000E-03 0.  1.
        -12    1    4    4    0    0  0.21130440103E+01  0.64336504876E+00 -0.96726675544E+01  0.99216617153E+01  0.00000000000E+00 0.  1.
</event>
<event>
 8    1  0.6469014E-010  0.9118800E+02  0.7816164E-02  0.1184000E+00
        -11   -1    0    0    0    0  0.00000000000E+00  0.00000000000E+00  0.45593999997E+02  0.45594000000E+02  0.51100000000E-03 0. -1.
         11   -1    0    0    0    0 -0.00000000000E+00 -0.00000000000E+00 -0.45593999997E+02  0.45594000000E+02  0.51100000000E-03 0.  1.
         23    2    1    2    0    0  0.17763568394E-14  0.00000000000E+00  0.00000000000E+00  0.91188000000E+02  0.91188000000E+02 0.  0.
    9900012    2    3    3    0    0 -0.12880524189E+02 -0.16475623522E+02  0.38029843114E+02  0.47787273726E+02  0.20000012226E+02 0.  0.
        -12    1    3    3    0    0  0.12880524189E+02  0.16475623522E+02 -0.38029843114E+02  0.43400726274E+02  0.00000000000E+00 0.  1.
         11    1    4    4    0    0 -0.94478308995E+01 -0.93637466874E+01  0.24327360566E+02  0.27726552853E+02  0.51100000000E-03 0. -1.
        -11    1    4    4    0    0 -0.17806997546E+01  0.31191463690E+01  0.11252439759E+01  0.37637932932E+01  0.51100000000E-03 0.  1.
        -12    1    4    4    0    0 -0.16519935351E+01 -0.10231023204E+02  0.12577238572E+02  0.16296927580E+02  0.00000000000E+00 0.  1.
</event>
<event>
 8    1  0.6469014E-010  0.9118800E+02  0.7816164E-02  0.1184000E+00
        -11   -1    0    0    0    0  0.00000000000E+00  0.00000000000E+00  0.45593999997E+02  0.45594000000E+02  0.51100000000E-03 0. -1.
         11   -1    0    0    0    0 -0.00000000000E+00 -0.00000000000E+00 -0.45593999997E+02  0.45594000000E+02  0.51100000000E-03 0.  1.
         23    2    1    2    0    0  0.71054273576E-14  0.00000000000E+00  0.17763568394E-14  0.91188000000E+02  0.91188000000E+02 0.  0.
    9900012    2    3    3    0    0 -0.40447365096E+02  0.11125309908E+02  0.11129282561E+02  0.47787276572E+02  0.20000025203E+02 0.  0.
        -12    1    3    3    0    0  0.40447365096E+02 -0.11125309908E+02 -0.11129282561E+02  0.43400723428E+02  0.00000000000E+00 0.  1.
         11    1    4    4    0    0 -0.72121916085E+01  0.45447136041E+00 -0.29117431741E+00  0.72323602482E+01  0.51100000000E-03 0. -1.
        -11    1    4    4    0    0 -0.54052890553E+01  0.73698687919E+01 -0.21921739248E+01  0.93988160190E+01  0.51100000000E-03 0.  1.
        -12    1    4    4    0    0 -0.27829884432E+02  0.33009697561E+01  0.13612630804E+02  0.31156100305E+02  0.00000000000E+00 0.  1.
</event>
<event>
 8    1  0.6469014E-010  0.9118800E+02  0.7816164E-02  0.1184000E+00
        -11   -1    0    0    0    0  0.00000000000E+00  0.00000000000E+00  0.45593999997E+02  0.45594000000E+02  0.51100000000E-03 0. -1.
         11   -1    0    0    0    0 -0.00000000000E+00 -0.00000000000E+00 -0.45593999997E+02  0.45594000000E+02  0.51100000000E-03 0.  1.
         23    2    1    2    0    0  0.00000000000E+00  0.00000000000E+00  0.00000000000E+00  0.91188000000E+02  0.91188000000E+02 0.  0.
    9900012    2    3    3    0    0  0.35427492941E+02 -0.69923179912E+01 -0.24075371249E+02  0.47787271115E+02  0.20000000320E+02 0.  0.
         12    1    3    3    0    0 -0.35427492941E+02  0.69923179912E+01  0.24075371249E+02  0.43400728885E+02  0.00000000000E+00 0. -1.
         11    1    4    4    0    0  0.41220625551E+01 -0.21279324810E+01 -0.11100667002E+02  0.12030972716E+02  0.51100000000E-03 0. -1.
        -11    1    4    4    0    0  0.27943040011E+02 -0.13060082801E+01 -0.13032175018E+02  0.30860277521E+02  0.51100000000E-03 0.  1.
        -12    1    4    4    0    0  0.33623903750E+01 -0.35583772301E+01  0.57470770626E-01  0.48960208778E+01  0.00000000000E+00 0.  1.
</event>
<event>
 8    1  0.6469014E-010  0.9118800E+02  0.7816164E-02  0.1184000E+00
        -11   -1    0    0    0    0  0.00000000000E+00  0.00000000000E+00  0.45593999997E+02  0.45594000000E+02  0.51100000000E-03 0. -1.
         11   -1    0    0    0    0 -0.00000000000E+00 -0.00000000000E+00 -0.45593999997E+02  0.45594000000E+02  0.51100000000E-03 0.  1.
         23    2    1    2    0    0 -0.35527136788E-14  0.00000000000E+00  0.00000000000E+00  0.91188000000E+02  0.91188000000E+02 0.  0.
    9900012    2    3    3    0    0  0.21381360598E+02 -0.25102876170E+02  0.28218901425E+02  0.47787269929E+02  0.19999994916E+02 0.  0.
        -12    1    3    3    0    0 -0.21381360598E+02  0.25102876170E+02 -0.28218901425E+02  0.43400730071E+02  0.00000000000E+00 0.  1.
         11    1    4    4    0    0  0.17702111677E+02 -0.14357712092E+02  0.19866098921E+02  0.30235253280E+02  0.51100000000E-03 0. -1.
        -11    1    4    4    0    0 -0.14063148342E+01 -0.67510958603E+00 -0.17949970745E+01  0.23781314355E+01  0.51100000000E-03 0.  1.
        -12    1    4    4    0    0  0.50855637553E+01 -0.10070054492E+02  0.10147799578E+02  0.15173885213E+02  0.00000000000E+00 0.  1.
</event>
<event>
 8    1  0.6469014E-010  0.9118800E+02  0.7816164E-02  0.1184000E+00
        -11   -1    0    0    0    0  0.00000000000E+00  0.00000000000E+00  0.45593999997E+02  0.45594000000E+02  0.51100000000E-03 0. -1.
         11   -1    0    0    0    0 -0.00000000000E+00 -0.00000000000E+00 -0.45593999997E+02  0.45594000000E+02  0.51100000000E-03 0.  1.
         23    2    1    2    0    0  0.00000000000E+00  0.00000000000E+00  0.71054273576E-14  0.91188000000E+02  0.91188000000E+02 0.  0.
    9900012    2    3    3    0    0  0.19849687286E+02  0.45901013988E+01  0.38321589669E+02  0.47787270156E+02  0.19999995951E+02 0.  0.
        -12    1    3    3    0    0 -0.19849687286E+02 -0.45901013988E+01 -0.38321589669E+02  0.43400729844E+02  0.00000000000E+00 0.  1.
         11    1    4    4    0    0  0.88962748720E+01  0.10016732179E+02  0.15319491494E+02  0.20351055256E+02  0.51100000000E-03 0. -1.
        -11    1    4    4    0    0  0.17700928606E+01 -0.51274205413E+01  0.58481953194E+01  0.79765317587E+01  0.51100000000E-03 0.  1.
         12    1    4    4    0    0  0.91833195532E+01 -0.29921023878E+00  0.17153902856E+02  0.19459683141E+02  0.00000000000E+00 0. -1.
</event>
<event>
 8    1  0.6469014E-010  0.9118800E+02  0.7816164E-02  0.1184000E+00
        -11   -1    0    0    0    0  0.00000000000E+00  0.00000000000E+00  0.45593999997E+02  0.45594000000E+02  0.51100000000E-03 0. -1.
         11   -1    0    0    0    0 -0.00000000000E+00 -0.00000000000E+00 -0.45593999997E+02  0.45594000000E+02  0.51100000000E-03 0.  1.
         23    2    1    2    0    0  0.00000000000E+00  0.35527136788E-14 -0.35527136788E-14  0.91188000000E+02  0.91188000000E+02 0.  0.
    9900012    2    3    3    0    0 -0.65246876095E+01 -0.28775899783E+02  0.31827649901E+02  0.47787271263E+02  0.20000000994E+02 0.  0.
        -12    1    3    3    0    0  0.65246876095E+01  0.28775899783E+02 -0.31827649901E+02  0.43400728737E+02  0.00000000000E+00 0.  1.
         11    1    4    4    0    0  0.32598109370E+01 -0.11118881776E+02  0.37122754454E+01  0.12167041075E+02  0.51100000000E-03 0.  1.
        -11    1    4    4    0    0 -0.54537306543E+01 -0.12377333586E+02  0.24267043156E+02  0.27781845665E+02  0.51100000000E-03 0. -1.
        -12    1    4    4    0    0 -0.43307678922E+01 -0.52796844217E+01  0.38483312990E+01  0.78383845220E+01  0.00000000000E+00 0.  1.
</event>
<event>
 8    1  0.6469014E-010  0.9118800E+02  0.7816164E-02  0.1184000E+00
        -11   -1    0    0    0    0  0.00000000000E+00  0.00000000000E+00  0.45593999997E+02  0.45594000000E+02  0.51100000000E-03 0. -1.
         11   -1    0    0    0    0 -0.00000000000E+00 -0.00000000000E+00 -0.45593999997E+02  0.45594000000E+02  0.51100000000E-03 0.  1.
         23    2    1    2    0    0  0.00000000000E+00  0.00000000000E+00  0.00000000000E+00  0.91188000000E+02  0.91188000000E+02 0.  0.
    9900012    2    3    3    0    0  0.85488547954E+01 -0.93319405480E+01 -0.41514520044E+02  0.47787269508E+02  0.19999992996E+02 0.  0.
         12    1    3    3    0    0 -0.85488547954E+01  0.93319405480E+01  0.41514520044E+02  0.43400730492E+02  0.00000000000E+00 0. -1.
         11    1    4    4    0    0  0.40679958245E+01  0.14746500964E+01 -0.29466790891E+02  0.29782796186E+02  0.51100000000E-03 0. -1.
        -11    1    4    4    0    0  0.61139324611E+01 -0.75076138400E+01 -0.91201614963E+01  0.13301194747E+02  0.51100000000E-03 0.  1.
         12    1    4    4    0    0 -0.16330734901E+01 -0.32989768044E+01 -0.29275676567E+01  0.47032785761E+01  0.00000000000E+00 0. -1.
</event>
<event>
 8    1  0.6469014E-010  0.9118800E+02  0.7816164E-02  0.1184000E+00
        -11   -1    0    0    0    0  0.00000000000E+00  0.00000000000E+00  0.45593999997E+02  0.45594000000E+02  0.51100000000E-03 0. -1.
         11   -1    0    0    0    0 -0.00000000000E+00 -0.00000000000E+00 -0.45593999997E+02  0.45594000000E+02  0.51100000000E-03 0.  1.
         23    2    1    2    0    0  0.00000000000E+00  0.22204460493E-15 -0.71054273576E-14  0.91188000000E+02  0.91188000000E+02 0.  0.
    9900012    2    3    3    0    0  0.94107308486E+01 -0.13196537685E+01  0.42347610394E+02  0.47787269047E+02  0.19999990894E+02 0.  0.
        -12    1    3    3    0    0 -0.94107308486E+01  0.13196537685E+01 -0.42347610394E+02  0.43400730953E+02  0.00000000000E+00 0.  1.
         11    1    4    4    0    0  0.29898326531E+00 -0.55670677389E-02  0.10970592786E+01  0.11370845646E+01  0.51100000000E-03 0. -1.
        -11    1    4    4    0    0 -0.61465867036E+01 -0.20758140311E+01  0.13250238858E+02  0.14753249203E+02  0.51100000000E-03 0.  1.
        -12    1    4    4    0    0  0.15258334287E+02  0.76172733035E+00  0.28000312257E+02  0.31896935280E+02  0.00000000000E+00 0.  1.
</event>
<event>
 8    1  0.6469014E-010  0.9118800E+02  0.7816164E-02  0.1184000E+00
        -11   -1    0    0    0    0  0.00000000000E+00  0.00000000000E+00  0.45593999997E+02  0.45594000000E+02  0.51100000000E-03 0. -1.
         11   -1    0    0    0    0 -0.00000000000E+00 -0.00000000000E+00 -0.45593999997E+02  0.45594000000E+02  0.51100000000E-03 0.  1.
         23    2    1    2    0    0  0.00000000000E+00  0.11102230246E-15  0.00000000000E+00  0.91188000000E+02  0.91188000000E+02 0.  0.
    9900012    2    3    3    0    0  0.17786461588E+02  0.87573974845E-01 -0.39588604071E+02  0.47787268931E+02  0.19999990363E+02 0.  0.
         12    1    3    3    0    0 -0.17786461588E+02 -0.87573974845E-01  0.39588604071E+02  0.43400731069E+02  0.00000000000E+00 0. -1.
         11    1    4    4    0    0  0.16359432023E+01  0.40243050702E+01 -0.26791192761E+01  0.51038242344E+01  0.51100000000E-03 0. -1.
        -11    1    4    4    0    0  0.18391335211E+02 -0.20609819995E+01 -0.32284225111E+02  0.37212364194E+02  0.51100000000E-03 0.  1.
        -12    1    4    4    0    0 -0.22408168250E+01 -0.18757490959E+01 -0.46252596844E+01  0.54710805022E+01  0.00000000000E+00 0.  1.
</event>
<event>
 8    1  0.6469014E-010  0.9118800E+02  0.7816164E-02  0.1184000E+00
        -11   -1    0    0    0    0  0.00000000000E+00  0.00000000000E+00  0.45593999997E+02  0.45594000000E+02  0.51100000000E-03 0. -1.
         11   -1    0    0    0    0 -0.00000000000E+00 -0.00000000000E+00 -0.45593999997E+02  0.45594000000E+02  0.51100000000E-03 0.  1.
         23    2    1    2    0    0  0.35527136788E-14  0.00000000000E+00  0.00000000000E+00  0.91188000000E+02  0.91188000000E+02 0.  0.
    9900012    2    3    3    0    0 -0.30237286409E+02 -0.65407228188E+01  0.30439263952E+02  0.47787270348E+02  0.19999996825E+02 0.  0.
        -12    1    3    3    0    0  0.30237286409E+02  0.65407228188E+01 -0.30439263952E+02  0.43400729652E+02  0.00000000000E+00 0.  1.
         11    1    4    4    0    0 -0.23007521890E+02 -0.70723336412E+00  0.21279469333E+02  0.31347441011E+02  0.51100000000E-03 0. -1.
        -11    1    4    4    0    0  0.18445845752E+00 -0.60655038999E+01  0.28630634852E+01  0.67098059036E+01  0.51100000000E-03 0.  1.
        -12    1    4    4    0    0 -0.74142229767E+01  0.23201444527E+00  0.62967311337E+01  0.97300234338E+01  0.00000000000E+00 0.  1.
</event>
<event>
 8    1  0.6469014E-010  0.9118800E+02  0.7816164E-02  0.1184000E+00
        -11   -1    0    0    0    0  0.00000000000E+00  0.00000000000E+00  0.45593999997E+02  0.45594000000E+02  0.51100000000E-03 0. -1.
         11   -1    0    0    0    0 -0.00000000000E+00 -0.00000000000E+00 -0.45593999997E+02  0.45594000000E+02  0.51100000000E-03 0.  1.
         23    2    1    2    0    0 -0.71054273576E-14  0.35527136788E-14 -0.17763568394E-14  0.91188000000E+02  0.91188000000E+02 0.  0.
    9900012    2    3    3    0    0 -0.27352185990E+02  0.29912026337E+02 -0.15516183915E+02  0.47787270038E+02  0.19999995409E+02 0.  0.
         12    1    3    3    0    0  0.27352185990E+02 -0.29912026337E+02  0.15516183915E+02  0.43400729962E+02  0.00000000000E+00 0. -1.
         11    1    4    4    0    0 -0.60207930075E+00 -0.12396665892E+01  0.17135241072E+01  0.21989629064E+01  0.51100000000E-03 0. -1.
        -11    1    4    4    0    0 -0.94125765536E+01  0.12950518895E+02 -0.11755315794E+02  0.19862023731E+02  0.51100000000E-03 0.  1.
         12    1    4    4    0    0 -0.17337530136E+02  0.18201174031E+02 -0.54743922281E+01  0.25726283400E+02  0.00000000000E+00 0. -1.
</event>
<event>
 8    1  0.6469014E-010  0.9118800E+02  0.7816164E-02  0.1184000E+00
        -11   -1    0    0    0    0  0.00000000000E+00  0.00000000000E+00  0.45593999997E+02  0.45594000000E+02  0.51100000000E-03 0. -1.
         11   -1    0    0    0    0 -0.00000000000E+00 -0.00000000000E+00 -0.45593999997E+02  0.45594000000E+02  0.51100000000E-03 0.  1.
         23    2    1    2    0    0  0.00000000000E+00 -0.44408920985E-15  0.00000000000E+00  0.91188000000E+02  0.91188000000E+02 0.  0.
    9900012    2    3    3    0    0 -0.39676787609E+02 -0.33146444237E+00  0.17585956987E+02  0.47787271587E+02  0.20000002476E+02 0.  0.
        -12    1    3    3    0    0  0.39676787609E+02  0.33146444237E+00 -0.17585956987E+02  0.43400728413E+02  0.00000000000E+00 0.  1.
         11    1    4    4    0    0 -0.21529933341E+02  0.46439056564E+01  0.70067518977E+01  0.23112733760E+02  0.51100000000E-03 0. -1.
        -11    1    4    4    0    0  0.15332435877E+01 -0.47604456770E+00 -0.45401201332E+00  0.16684068745E+01  0.51100000000E-03 0.  1.
        -12    1    4    4    0    0 -0.19680097855E+02 -0.44993255311E+01  0.11033217102E+02  0.23006130953E+02  0.00000000000E+00 0.  1.
</event>
<event>
 8    1  0.6469014E-010  0.9118800E+02  0.7816164E-02  0.1184000E+00
        -11   -1    0    0    0    0  0.00000000000E+00  0.00000000000E+00  0.45593999997E+02  0.45594000000E+02  0.51100000000E-03 0. -1.
         11   -1    0    0    0    0 -0.00000000000E+00 -0.00000000000E+00 -0.45593999997E+02  0.45594000000E+02  0.51100000000E-03 0.  1.
         23    2    1    2    0    0  0.00000000000E+00  0.88817841970E-15  0.00000000000E+00  0.91188000000E+02  0.91188000000E+02 0.  0.
    9900012    2    3    3    0    0 -0.24665086889E+02 -0.58578600395E+01  0.35227011862E+02  0.47787269589E+02  0.19999993366E+02 0.  0.
        -12    1    3    3    0    0  0.24665086889E+02  0.58578600395E+01 -0.35227011862E+02  0.43400730411E+02  0.00000000000E+00 0.  1.
         11    1    4    4    0    0 -0.12296111413E+02  0.31289622299E+01  0.17345265373E+02  0.21490532604E+02  0.51100000000E-03 0. -1.
        -11    1    4    4    0    0 -0.13585383540E+02 -0.10350654631E+02  0.14298294675E+02  0.22274198708E+02  0.51100000000E-03 0.  1.
        -12    1    4    4    0    0  0.12164080638E+01  0.13638323613E+01  0.35834518138E+01  0.40225382769E+01  0.00000000000E+00 0.  1.
</event>
<event>
 8    1  0.6469014E-010  0.9118800E+02  0.7816164E-02  0.1184000E+00
        -11   -1    0    0    0    0  0.00000000000E+00  0.00000000000E+00  0.45593999997E+02  0.45594000000E+02  0.51100000000E-03 0. -1.
         11   -1    0    0    0    0 -0.00000000000E+00 -0.00000000000E+00 -0.45593999997E+02  0.45594000000E+02  0.51100000000E-03 0.  1.
         23    2    1    2    0    0  0.35527136788E-14  0.00000000000E+00  0.00000000000E+00  0.91188000000E+02  0.91188000000E+02 0.  0.
    9900012    2    3    3    0    0 -0.26531025143E+02 -0.68849847030E+01 -0.33650041733E+02  0.47787267078E+02  0.19999981916E+02 0.  0.
         12    1    3    3    0    0  0.26531025143E+02  0.68849847030E+01  0.33650041733E+02  0.43400732922E+02  0.00000000000E+00 0. -1.
         11    1    4    4    0    0 -0.14886666754E+02 -0.71843708311E+01 -0.99270665585E+01  0.19281459540E+02  0.51100000000E-03 0. -1.
        -11    1    4    4    0    0 -0.39473414894E+01 -0.50311200284E+01 -0.85542318484E+01  0.10680288215E+02  0.51100000000E-03 0.  1.
         12    1    4    4    0    0 -0.76970168998E+01  0.53305061565E+01 -0.15168743326E+02  0.17825519323E+02  0.00000000000E+00 0. -1.
</event>
<event>
 8    1  0.6469014E-010  0.9118800E+02  0.7816164E-02  0.1184000E+00
        -11   -1    0    0    0    0  0.00000000000E+00  0.00000000000E+00  0.45593999997E+02  0.45594000000E+02  0.51100000000E-03 0.  1.
         11   -1    0    0    0    0 -0.00000000000E+00 -0.00000000000E+00 -0.45593999997E+02  0.45594000000E+02  0.51100000000E-03 0. -1.
         23    2    1    2    0    0  0.00000000000E+00 -0.27755575616E-15  0.00000000000E+00  0.91188000000E+02  0.91188000000E+02 0.  0.
    9900012    2    3    3    0    0 -0.33378331311E+02  0.12516585410E+00 -0.27739768256E+02  0.47787269470E+02  0.19999992823E+02 0.  0.
         12    1    3    3    0    0  0.33378331311E+02 -0.12516585410E+00  0.27739768256E+02  0.43400730530E+02  0.00000000000E+00 0. -1.
         11    1    4    4    0    0  0.19473519884E+00 -0.33979287534E+01 -0.72787127241E+01  0.80351416162E+01  0.51100000000E-03 0. -1.
        -11    1    4    4    0    0 -0.22589854138E+02  0.37186625116E+01 -0.11754022168E+02  0.25734937308E+02  0.51100000000E-03 0.  1.
         12    1    4    4    0    0 -0.10983212372E+02 -0.19556790410E+00 -0.87070333632E+01  0.14017190546E+02  0.00000000000E+00 0. -1.
</event>
<event>
 8    1  0.6469014E-010  0.9118800E+02  0.7816164E-02  0.1184000E+00
        -11   -1    0    0    0    0  0.00000000000E+00  0.00000000000E+00  0.45593999997E+02  0.45594000000E+02  0.51100000000E-03 0. -1.
         11   -1    0    0    0    0 -0.00000000000E+00 -0.00000000000E+00 -0.45593999997E+02  0.45594000000E+02  0.51100000000E-03 0.  1.
         23    2    1    2    0    0  0.00000000000E+00  0.00000000000E+00  0.44408920985E-15  0.91188000000E+02  0.91188000000E+02 0.  0.
    9900012    2    3    3    0    0 -0.38120777181E+02 -0.20606573799E+02 -0.24079105634E+01  0.47787279155E+02  0.20000036977E+02 0.  0.
         12    1    3    3    0    0  0.38120777181E+02  0.20606573799E+02  0.24079105634E+01  0.43400720845E+02  0.00000000000E+00 0. -1.
         11    1    4    4    0    0 -0.32783986873E+01  0.33272204383E+01  0.20883393803E+00  0.46756716815E+01  0.51100000000E-03 0. -1.
        -11    1    4    4    0    0 -0.47406303547E+01 -0.42834364656E+01 -0.32284229672E+01  0.71584997892E+01  0.51100000000E-03 0.  1.
         12    1    4    4    0    0 -0.30101748139E+02 -0.19650357771E+02  0.61167846584E+00  0.35953107684E+02  0.00000000000E+00 0. -1.
</event>
<event>
 8    1  0.6469014E-010  0.9118800E+02  0.7816164E-02  0.1184000E+00
        -11   -1    0    0    0    0  0.00000000000E+00  0.00000000000E+00  0.45593999997E+02  0.45594000000E+02  0.51100000000E-03 0. -1.
         11   -1    0    0    0    0 -0.00000000000E+00 -0.00000000000E+00 -0.45593999997E+02  0.45594000000E+02  0.51100000000E-03 0.  1.
         23    2    1    2    0    0  0.88817841970E-15  0.00000000000E+00  0.71054273576E-14  0.91188000000E+02  0.91188000000E+02 0.  0.
    9900012    2    3    3    0    0  0.59040517014E+01  0.45547460265E+01  0.42755346530E+02  0.47787271956E+02  0.20000004158E+02 0.  0.
        -12    1    3    3    0    0 -0.59040517014E+01 -0.45547460265E+01 -0.42755346530E+02  0.43400728044E+02  0.00000000000E+00 0.  1.
         11    1    4    4    0    0 -0.14465158484E+01 -0.50165857938E+01  0.12337620795E+02  0.13396843966E+02  0.51100000000E-03 0. -1.
        -11    1    4    4    0    0  0.88645111939E+01  0.78268004286E+01  0.29706350949E+02  0.31973514831E+02  0.51100000000E-03 0.  1.
         12    1    4    4    0    0 -0.15139436441E+01  0.17445313917E+01  0.71137478588E+00  0.24169131594E+01  0.00000000000E+00 0. -1.
</event>
<event>
 8    1  0.6469014E-010  0.9118800E+02  0.7816164E-02  0.1184000E+00
        -11   -1    0    0    0    0  0.00000000000E+00  0.00000000000E+00  0.45593999997E+02  0.45594000000E+02  0.51100000000E-03 0.  1.
         11   -1    0    0    0    0 -0.00000000000E+00 -0.00000000000E+00 -0.45593999997E+02  0.45594000000E+02  0.51100000000E-03 0. -1.
         23    2    1    2    0    0 -0.44408920985E-15  0.00000000000E+00  0.00000000000E+00  0.91188000000E+02  0.91188000000E+02 0.  0.
    9900012    2    3    3    0    0 -0.35193206129E+01 -0.23791008544E+02 -0.36127903786E+02  0.47787272620E+02  0.20000007184E+02 0.  0.
         12    1    3    3    0    0  0.35193206129E+01  0.23791008544E+02  0.36127903786E+02  0.43400727380E+02  0.00000000000E+00 0. -1.
         11    1    4    4    0    0 -0.20157222321E+01  0.16534422098E+01 -0.31053240808E+01  0.40546325562E+01  0.51100000000E-03 0. -1.
        -11    1    4    4    0    0  0.30109775148E+01 -0.18951451454E+02 -0.16081883336E+02  0.25036982041E+02  0.51100000000E-03 0.  1.
        -12    1    4    4    0    0 -0.45145758955E+01 -0.64929992994E+01 -0.16940696370E+02  0.18695658023E+02  0.00000000000E+00 0.  1.
</event>
<event>
 8    1  0.6469014E-010  0.9118800E+02  0.7816164E-02  0.1184000E+00
        -11   -1    0    0    0    0  0.00000000000E+00  0.00000000000E+00  0.45593999997E+02  0.45594000000E+02  0.51100000000E-03 0. -1.
         11   -1    0    0    0    0 -0.00000000000E+00 -0.00000000000E+00 -0.45593999997E+02  0.45594000000E+02  0.51100000000E-03 0.  1.
         23    2    1    2    0    0  0.00000000000E+00 -0.17763568394E-14  0.00000000000E+00  0.91188000000E+02  0.91188000000E+02 0.  0.
    9900012    2    3    3    0    0 -0.28601547285E+02 -0.15848904850E+02  0.28537469354E+02  0.47787269024E+02  0.19999990790E+02 0.  0.
        -12    1    3    3    0    0  0.28601547285E+02  0.15848904850E+02 -0.28537469354E+02  0.43400730976E+02  0.00000000000E+00 0.  1.
         11    1    4    4    0    0 -0.13940828398E+02 -0.60200402249E+01  0.30530705366E+01  0.15488990306E+02  0.51100000000E-03 0. -1.
        -11    1    4    4    0    0 -0.65422041514E+01 -0.40759259473E+00  0.46588571089E+01  0.80418602763E+01  0.51100000000E-03 0.  1.
         12    1    4    4    0    0 -0.81185147361E+01 -0.94212720304E+01  0.20825541709E+02  0.24256418442E+02  0.00000000000E+00 0. -1.
</event>
<event>
 8    1  0.6469014E-010  0.9118800E+02  0.7816164E-02  0.1184000E+00
        -11   -1    0    0    0    0  0.00000000000E+00  0.00000000000E+00  0.45593999997E+02  0.45594000000E+02  0.51100000000E-03 0. -1.
         11   -1    0    0    0    0 -0.00000000000E+00 -0.00000000000E+00 -0.45593999997E+02  0.45594000000E+02  0.51100000000E-03 0.  1.
         23    2    1    2    0    0 -0.17763568394E-14  0.00000000000E+00  0.71054273576E-14  0.91188000000E+02  0.91188000000E+02 0.  0.
    9900012    2    3    3    0    0 -0.92493750920E+01  0.32121217662E+02  0.27682122996E+02  0.47787268471E+02  0.19999988266E+02 0.  0.
        -12    1    3    3    0    0  0.92493750920E+01 -0.32121217662E+02 -0.27682122996E+02  0.43400731529E+02  0.00000000000E+00 0.  1.
         11    1    4    4    0    0 -0.14681884346E+01  0.29675165507E+01  0.29378618153E+01  0.44263714333E+01  0.51100000000E-03 0. -1.
        -11    1    4    4    0    0 -0.13305168587E+02  0.23264646732E+02  0.15023864583E+02  0.30724384549E+02  0.51100000000E-03 0.  1.
        -12    1    4    4    0    0  0.55239819293E+01  0.58890543792E+01  0.97203965984E+01  0.12636512488E+02  0.00000000000E+00 0.  1.
</event>
<event>
 8    1  0.6469014E-010  0.9118800E+02  0.7816164E-02  0.1184000E+00
        -11   -1    0    0    0    0  0.00000000000E+00  0.00000000000E+00  0.45593999997E+02  0.45594000000E+02  0.51100000000E-03 0. -1.
         11   -1    0    0    0    0 -0.00000000000E+00 -0.00000000000E+00 -0.45593999997E+02  0.45594000000E+02  0.51100000000E-03 0.  1.
         23    2    1    2    0    0  0.00000000000E+00  0.66613381478E-15  0.00000000000E+00  0.91188000000E+02  0.91188000000E+02 0.  0.
    9900012    2    3    3    0    0 -0.28707679591E+02  0.13321446898E+01  0.32522562141E+02  0.47787279670E+02  0.20000039326E+02 0.  0.
        -12    1    3    3    0    0  0.28707679591E+02 -0.13321446898E+01 -0.32522562141E+02  0.43400720330E+02  0.00000000000E+00 0.  1.
         11    1    4    4    0    0 -0.20567140383E+02  0.56905193246E+01  0.17256620667E+02  0.27444129260E+02  0.51100000000E-03 0. -1.
        -11    1    4    4    0    0 -0.98118644465E+01 -0.12687374670E+01  0.11932242315E+02  0.15500347919E+02  0.51100000000E-03 0.  1.
         12    1    4    4    0    0  0.16713252390E+01 -0.30896371678E+01  0.33336991587E+01  0.48428024907E+01  0.00000000000E+00 0. -1.
</event>
<event>
 8    1  0.6469014E-010  0.9118800E+02  0.7816164E-02  0.1184000E+00
        -11   -1    0    0    0    0  0.00000000000E+00  0.00000000000E+00  0.45593999997E+02  0.45594000000E+02  0.51100000000E-03 0.  1.
         11   -1    0    0    0    0 -0.00000000000E+00 -0.00000000000E+00 -0.45593999997E+02  0.45594000000E+02  0.51100000000E-03 0. -1.
         23    2    1    2    0    0  0.00000000000E+00  0.00000000000E+00  0.88817841970E-15  0.91188000000E+02  0.91188000000E+02 0.  0.
    9900012    2    3    3    0    0 -0.88709529605E+01  0.42097233635E+02 -0.57229461841E+01  0.47787274209E+02  0.20000014430E+02 0.  0.
        -12    1    3    3    0    0  0.88709529605E+01 -0.42097233635E+02  0.57229461841E+01  0.43400725791E+02  0.00000000000E+00 0.  1.
         11    1    4    4    0    0 -0.65392484594E+01  0.24094722588E+02 -0.52366833928E+01  0.25509611527E+02  0.51100000000E-03 0. -1.
        -11    1    4    4    0    0 -0.46491665027E+01  0.49615337906E+01  0.44681580364E+01  0.81360926264E+01  0.51100000000E-03 0.  1.
        -12    1    4    4    0    0  0.23174620017E+01  0.13040977256E+02 -0.49544208277E+01  0.14141570056E+02  0.00000000000E+00 0.  1.
</event>
<event>
 8    1  0.6469014E-010  0.9118800E+02  0.7816164E-02  0.1184000E+00
        -11   -1    0    0    0    0  0.00000000000E+00  0.00000000000E+00  0.45593999997E+02  0.45594000000E+02  0.51100000000E-03 0. -1.
         11   -1    0    0    0    0 -0.00000000000E+00 -0.00000000000E+00 -0.45593999997E+02  0.45594000000E+02  0.51100000000E-03 0.  1.
         23    2    1    2    0    0 -0.17763568394E-14  0.00000000000E+00  0.00000000000E+00  0.91188000000E+02  0.91188000000E+02 0.  0.
    9900012    2    3    3    0    0  0.11325458084E+02 -0.35584564580E+02 -0.22115625247E+02  0.47787215247E+02  0.19999745594E+02 0.  0.
         12    1    3    3    0    0 -0.11325458084E+02  0.35584564580E+02  0.22115625247E+02  0.43400784753E+02  0.00000000000E+00 0. -1.
         11    1    4    4    0    0  0.38238785049E+01 -0.20399785571E+01 -0.35577136282E+01  0.56072173005E+01  0.51100000000E-03 0. -1.
        -11    1    4    4    0    0 -0.20195937622E+00 -0.25211352067E+02 -0.74255251859E+01  0.26282912418E+02  0.51100000000E-03 0.  1.
        -12    1    4    4    0    0  0.77035389549E+01 -0.83332339562E+01 -0.11132386433E+02  0.15897085528E+02  0.00000000000E+00 0.  1.
</event>
<event>
 8    1  0.6469014E-010  0.9118800E+02  0.7816164E-02  0.1184000E+00
        -11   -1    0    0    0    0  0.00000000000E+00  0.00000000000E+00  0.45593999997E+02  0.45594000000E+02  0.51100000000E-03 0. -1.
         11   -1    0    0    0    0 -0.00000000000E+00 -0.00000000000E+00 -0.45593999997E+02  0.45594000000E+02  0.51100000000E-03 0.  1.
         23    2    1    2    0    0 -0.71054273576E-14  0.00000000000E+00  0.00000000000E+00  0.91188000000E+02  0.91188000000E+02 0.  0.
    9900012    2    3    3    0    0 -0.34616454964E+02 -0.17113730694E+02  0.19810216556E+02  0.47787269447E+02  0.19999992719E+02 0.  0.
        -12    1    3    3    0    0  0.34616454964E+02  0.17113730694E+02 -0.19810216556E+02  0.43400730553E+02  0.00000000000E+00 0.  1.
         11    1    4    4    0    0 -0.90052587423E+01 -0.11254626276E+02  0.11328300872E+02  0.18332803892E+02  0.51100000000E-03 0. -1.
        -11    1    4    4    0    0 -0.20164927662E+02 -0.23231322483E+00  0.76935776955E+01  0.21584008317E+02  0.51100000000E-03 0.  1.
        -12    1    4    4    0    0 -0.54462685599E+01 -0.56267911929E+01  0.78833798842E+00  0.78704572382E+01  0.00000000000E+00 0.  1.
</event>
<event>
 8    1  0.6469014E-010  0.9118800E+02  0.7816164E-02  0.1184000E+00
        -11   -1    0    0    0    0  0.00000000000E+00  0.00000000000E+00  0.45593999997E+02  0.45594000000E+02  0.51100000000E-03 0. -1.
         11   -1    0    0    0    0 -0.00000000000E+00 -0.00000000000E+00 -0.45593999997E+02  0.45594000000E+02  0.51100000000E-03 0.  1.
         23    2    1    2    0    0  0.00000000000E+00  0.00000000000E+00  0.00000000000E+00  0.91188000000E+02  0.91188000000E+02 0.  0.
    9900012    2    3    3    0    0 -0.51139350316E+01  0.28770173344E+02  0.32089685222E+02  0.47787273009E+02  0.20000008957E+02 0.  0.
        -12    1    3    3    0    0  0.51139350316E+01 -0.28770173344E+02 -0.32089685222E+02  0.43400726991E+02  0.00000000000E+00 0.  1.
         11    1    4    4    0    0 -0.20091694986E+01  0.30077037213E+02  0.24797293164E+02  0.39032943498E+02  0.51100000000E-03 0. -1.
        -11    1    4    4    0    0 -0.29685354325E+01 -0.46212081745E+00  0.25655671248E+01  0.39506826242E+01  0.51100000000E-03 0.  1.
         12    1    4    4    0    0 -0.13623010048E+00 -0.84474305228E+00  0.47268249332E+01  0.48036468869E+01  0.00000000000E+00 0. -1.
</event>
<event>
 8    1  0.6469014E-010  0.9118800E+02  0.7816164E-02  0.1184000E+00
        -11   -1    0    0    0    0  0.00000000000E+00  0.00000000000E+00  0.45593999997E+02  0.45594000000E+02  0.51100000000E-03 0. -1.
         11   -1    0    0    0    0 -0.00000000000E+00 -0.00000000000E+00 -0.45593999997E+02  0.45594000000E+02  0.51100000000E-03 0.  1.
         23    2    1    2    0    0  0.35527136788E-14 -0.17763568394E-14 -0.35527136788E-14  0.91188000000E+02  0.91188000000E+02 0.  0.
    9900012    2    3    3    0    0 -0.29861697896E+02  0.89245410790E+01  0.30203576497E+02  0.47787257289E+02  0.19999937281E+02 0.  0.
        -12    1    3    3    0    0  0.29861697896E+02 -0.89245410790E+01 -0.30203576497E+02  0.43400742711E+02  0.00000000000E+00 0.  1.
         11    1    4    4    0    0 -0.15751610254E+02  0.10965936186E+00  0.14474090987E+02  0.21392161203E+02  0.51100000000E-03 0. -1.
        -11    1    4    4    0    0  0.16057571516E+01  0.17822559164E+01 -0.79854607571E+00  0.25283528784E+01  0.51100000000E-03 0.  1.
        -12    1    4    4    0    0 -0.15715844793E+02  0.70326258008E+01  0.16528031585E+02  0.23866743207E+02  0.00000000000E+00 0.  1.
</event>
<event>
 8    1  0.6469014E-010  0.9118800E+02  0.7816164E-02  0.1184000E+00
        -11   -1    0    0    0    0  0.00000000000E+00  0.00000000000E+00  0.45593999997E+02  0.45594000000E+02  0.51100000000E-03 0. -1.
         11   -1    0    0    0    0 -0.00000000000E+00 -0.00000000000E+00 -0.45593999997E+02  0.45594000000E+02  0.51100000000E-03 0.  1.
         23    2    1    2    0    0  0.00000000000E+00  0.88817841970E-15  0.00000000000E+00  0.91188000000E+02  0.91188000000E+02 0.  0.
    9900012    2    3    3    0    0 -0.30445596526E+01  0.77918392681E+01  0.42586881668E+02  0.47787255849E+02  0.19999930718E+02 0.  0.
        -12    1    3    3    0    0  0.30445596526E+01 -0.77918392681E+01 -0.42586881668E+02  0.43400744151E+02  0.00000000000E+00 0.  1.
         11    1    4    4    0    0 -0.64834207483E+01  0.11749117064E+02  0.34833586520E+02  0.37329013468E+02  0.51100000000E-03 0. -1.
        -11    1    4    4    0    0  0.19572362914E+01 -0.56869276944E+00  0.19980134435E+00  0.20479517095E+01  0.51100000000E-03 0.  1.
         12    1    4    4    0    0  0.14816248043E+01 -0.33885850262E+01  0.75534938037E+01  0.84102906717E+01  0.00000000000E+00 0. -1.
</event>
<event>
 8    1  0.6469014E-010  0.9118800E+02  0.7816164E-02  0.1184000E+00
        -11   -1    0    0    0    0  0.00000000000E+00  0.00000000000E+00  0.45593999997E+02  0.45594000000E+02  0.51100000000E-03 0. -1.
         11   -1    0    0    0    0 -0.00000000000E+00 -0.00000000000E+00 -0.45593999997E+02  0.45594000000E+02  0.51100000000E-03 0.  1.
         23    2    1    2    0    0  0.00000000000E+00  0.00000000000E+00  0.00000000000E+00  0.91188000000E+02  0.91188000000E+02 0.  0.
    9900012    2    3    3    0    0 -0.15352324907E+02 -0.18542273538E+02  0.36112515298E+02  0.47787267874E+02  0.19999985543E+02 0.  0.
        -12    1    3    3    0    0  0.15352324907E+02  0.18542273538E+02 -0.36112515298E+02  0.43400732126E+02  0.00000000000E+00 0.  1.
         11    1    4    4    0    0 -0.79037370186E+01 -0.11049076191E+01  0.19207732071E+01  0.82084864427E+01  0.51100000000E-03 0. -1.
        -11    1    4    4    0    0 -0.73489469974E+01 -0.16229481514E+02  0.27420674016E+02  0.32700098715E+02  0.51100000000E-03 0.  1.
         12    1    4    4    0    0 -0.99640890793E-01 -0.12078844044E+01  0.67710680744E+01  0.68786827162E+01  0.00000000000E+00 0. -1.
</event>
<event>
 8    1  0.6469014E-010  0.9118800E+02  0.7816164E-02  0.1184000E+00
        -11   -1    0    0    0    0  0.00000000000E+00  0.00000000000E+00  0.45593999997E+02  0.45594000000E+02  0.51100000000E-03 0. -1.
         11   -1    0    0    0    0 -0.00000000000E+00 -0.00000000000E+00 -0.45593999997E+02  0.45594000000E+02  0.51100000000E-03 0.  1.
         23    2    1    2    0    0  0.00000000000E+00 -0.17763568394E-14  0.00000000000E+00  0.91188000000E+02  0.91188000000E+02 0.  0.
    9900012    2    3    3    0    0 -0.28895573202E+02 -0.10048763069E+02  0.30784597714E+02  0.47787271362E+02  0.20000001447E+02 0.  0.
        -12    1    3    3    0    0  0.28895573202E+02  0.10048763069E+02 -0.30784597714E+02  0.43400728638E+02  0.00000000000E+00 0.  1.
         11    1    4    4    0    0 -0.27994599054E+02 -0.14424579053E+02  0.27449469057E+02  0.41776062630E+02  0.51100000000E-03 0. -1.
        -11    1    4    4    0    0 -0.14193072655E+01  0.42039286158E+01  0.28001714874E+01  0.52467522850E+01  0.51100000000E-03 0.  1.
         12    1    4    4    0    0  0.51833311667E+00  0.17188736803E+00  0.53495716890E+00  0.76445644721E+00  0.00000000000E+00 0. -1.
</event>
<event>
 8    1  0.6469014E-010  0.9118800E+02  0.7816164E-02  0.1184000E+00
        -11   -1    0    0    0    0  0.00000000000E+00  0.00000000000E+00  0.45593999997E+02  0.45594000000E+02  0.51100000000E-03 0. -1.
         11   -1    0    0    0    0 -0.00000000000E+00 -0.00000000000E+00 -0.45593999997E+02  0.45594000000E+02  0.51100000000E-03 0.  1.
         23    2    1    2    0    0  0.00000000000E+00  0.00000000000E+00  0.00000000000E+00  0.91188000000E+02  0.91188000000E+02 0.  0.
    9900012    2    3    3    0    0 -0.46764299803E+01 -0.10478206353E+02 -0.41856439733E+02  0.47787270134E+02  0.19999995849E+02 0.  0.
         12    1    3    3    0    0  0.46764299803E+01  0.10478206353E+02  0.41856439733E+02  0.43400729866E+02  0.00000000000E+00 0. -1.
         11    1    4    4    0    0 -0.50689676362E+00  0.12492139578E+01 -0.15407327596E+01  0.20472756382E+01  0.51100000000E-03 0. -1.
        -11    1    4    4    0    0 -0.95480154314E+01 -0.36953499818E+01 -0.29539837418E+02  0.31263752255E+02  0.51100000000E-03 0.  1.
        -12    1    4    4    0    0  0.53784822148E+01 -0.80320703294E+01 -0.10775869556E+02  0.14476242240E+02  0.00000000000E+00 0.  1.
</event>
<event>
 8    1  0.6469014E-010  0.9118800E+02  0.7816164E-02  0.1184000E+00
        -11   -1    0    0    0    0  0.00000000000E+00  0.00000000000E+00  0.45593999997E+02  0.45594000000E+02  0.51100000000E-03 0. -1.
         11   -1    0    0    0    0 -0.00000000000E+00 -0.00000000000E+00 -0.45593999997E+02  0.45594000000E+02  0.51100000000E-03 0.  1.
         23    2    1    2    0    0  0.00000000000E+00  0.00000000000E+00  0.17763568394E-14  0.91188000000E+02  0.91188000000E+02 0.  0.
    9900012    2    3    3    0    0 -0.39481265849E+02 -0.17488934703E+02  0.43577606001E+01  0.47787271118E+02  0.20000000335E+02 0.  0.
        -12    1    3    3    0    0  0.39481265849E+02  0.17488934703E+02 -0.43577606001E+01  0.43400728882E+02  0.00000000000E+00 0.  1.
         11    1    4    4    0    0 -0.11731734476E+02 -0.60263345584E+01 -0.58711093319E+01  0.14436766503E+02  0.51100000000E-03 0. -1.
        -11    1    4    4    0    0 -0.10058103916E+02 -0.37395766562E+01 -0.13890985737E+01  0.10820327308E+02  0.51100000000E-03 0.  1.
         12    1    4    4    0    0 -0.17691427457E+02 -0.77230234881E+01  0.11617968506E+02  0.22530177306E+02  0.00000000000E+00 0. -1.
</event>
<event>
 8    1  0.6469014E-010  0.9118800E+02  0.7816164E-02  0.1184000E+00
        -11   -1    0    0    0    0  0.00000000000E+00  0.00000000000E+00  0.45593999997E+02  0.45594000000E+02  0.51100000000E-03 0. -1.
         11   -1    0    0    0    0 -0.00000000000E+00 -0.00000000000E+00 -0.45593999997E+02  0.45594000000E+02  0.51100000000E-03 0.  1.
         23    2    1    2    0    0  0.00000000000E+00  0.00000000000E+00  0.35527136788E-14  0.91188000000E+02  0.91188000000E+02 0.  0.
    9900012    2    3    3    0    0 -0.92713013958E+01  0.33110456217E+02 -0.26483295081E+02  0.47787259697E+02  0.19999948263E+02 0.  0.
         12    1    3    3    0    0  0.92713013958E+01 -0.33110456217E+02  0.26483295081E+02  0.43400740303E+02  0.00000000000E+00 0. -1.
         11    1    4    4    0    0 -0.89341874964E+01  0.72060101364E+01 -0.31360610612E+01  0.11898788491E+02  0.51100000000E-03 0. -1.
        -11    1    4    4    0    0  0.34692825830E+01  0.16311281133E+02 -0.11969346094E+02  0.20527032421E+02  0.51100000000E-03 0.  1.
         12    1    4    4    0    0 -0.38063964823E+01  0.95931649481E+01 -0.11377887926E+02  0.15361438786E+02  0.00000000000E+00 0. -1.
</event>
<event>
 8    1 -0.6469014E-010  0.9118800E+02  0.7816164E-02  0.1184000E+00
        -11   -1    0    0    0    0  0.00000000000E+00  0.00000000000E+00  0.45593999997E+02  0.45594000000E+02  0.51100000000E-03 0. -1.
         11   -1    0    0    0    0 -0.00000000000E+00 -0.00000000000E+00 -0.45593999997E+02  0.45594000000E+02  0.51100000000E-03 0.  1.
         23    2    1    2    0    0 -0.35527136788E-14 -0.35527136788E-14 -0.35527136788E-14  0.91188000000E+02  0.91188000000E+02 0.  0.
    9900012    2    3    3    0    0  0.23761545603E+02  0.27886395041E+02 -0.23267170617E+02  0.47787270670E+02  0.19999998295E+02 0.  0.
         12    1    3    3    0    0 -0.23761545603E+02 -0.27886395041E+02  0.23267170617E+02  0.43400729330E+02  0.00000000000E+00 0. -1.
         11    1    4    4    0    0  0.18404140199E+01  0.50753362824E+01 -0.29232971833E+00  0.54066273285E+01  0.51100000000E-03 0. -1.
        -11    1    4    4    0    0  0.97844571524E+01  0.17081221258E+02 -0.21053109284E+02  0.28822510860E+02  0.51100000000E-03 0.  1.
        -12    1    4    4    0    0  0.12136674431E+02  0.57298374997E+01 -0.19217316147E+01  0.13558132482E+02  0.00000000000E+00 0.  1.
</event>
<event>
 8    1  0.6469014E-010  0.9118800E+02  0.7816164E-02  0.1184000E+00
        -11   -1    0    0    0    0  0.00000000000E+00  0.00000000000E+00  0.45593999997E+02  0.45594000000E+02  0.51100000000E-03 0.  1.
         11   -1    0    0    0    0 -0.00000000000E+00 -0.00000000000E+00 -0.45593999997E+02  0.45594000000E+02  0.51100000000E-03 0. -1.
         23    2    1    2    0    0 -0.71054273576E-14 -0.26645352591E-14  0.00000000000E+00  0.91188000000E+02  0.91188000000E+02 0.  0.
    9900012    2    3    3    0    0  0.36291568809E+02 -0.69779332986E+01 -0.22756401826E+02  0.47787270238E+02  0.19999996325E+02 0.  0.
         12    1    3    3    0    0 -0.36291568809E+02  0.69779332986E+01  0.22756401826E+02  0.43400729762E+02  0.00000000000E+00 0. -1.
         11    1    4    4    0    0  0.22254959801E+02  0.37497735977E+01 -0.91658792922E+01  0.24358928163E+02  0.51100000000E-03 0. -1.
        -11    1    4    4    0    0  0.93483698751E+01 -0.10194376961E+02 -0.75332353696E+01  0.15750142106E+02  0.51100000000E-03 0.  1.
         12    1    4    4    0    0  0.46882391331E+01 -0.53332993506E+00 -0.60572871642E+01  0.76781999699E+01  0.00000000000E+00 0. -1.
</event>
<event>
 8    1  0.6469014E-010  0.9118800E+02  0.7816164E-02  0.1184000E+00
        -11   -1    0    0    0    0  0.00000000000E+00  0.00000000000E+00  0.45593999997E+02  0.45594000000E+02  0.51100000000E-03 0. -1.
         11   -1    0    0    0    0 -0.00000000000E+00 -0.00000000000E+00 -0.45593999997E+02  0.45594000000E+02  0.51100000000E-03 0.  1.
         23    2    1    2    0    0 -0.44408920985E-15 -0.35527136788E-14  0.71054273576E-14  0.91188000000E+02  0.91188000000E+02 0.  0.
    9900012    2    3    3    0    0 -0.13109831185E+01 -0.19373820233E+02 -0.38814424058E+02  0.47787273023E+02  0.20000009021E+02 0.  0.
         12    1    3    3    0    0  0.13109831185E+01  0.19373820233E+02  0.38814424058E+02  0.43400726977E+02  0.00000000000E+00 0. -1.
         11    1    4    4    0    0 -0.83109621889E+01 -0.97018342369E+01 -0.27529276231E+02  0.30348949408E+02  0.51100000000E-03 0. -1.
        -11    1    4    4    0    0  0.67526214570E+01 -0.56166951786E+01 -0.54795881975E+01  0.10352345065E+02  0.51100000000E-03 0.  1.
        -12    1    4    4    0    0  0.24735761338E+00 -0.40552908173E+01 -0.58055596297E+01  0.70859785503E+01  0.00000000000E+00 0.  1.
</event>
<event>
 8    1  0.6469014E-010  0.9118800E+02  0.7816164E-02  0.1184000E+00
        -11   -1    0    0    0    0  0.00000000000E+00  0.00000000000E+00  0.45593999997E+02  0.45594000000E+02  0.51100000000E-03 0. -1.
         11   -1    0    0    0    0 -0.00000000000E+00 -0.00000000000E+00 -0.45593999997E+02  0.45594000000E+02  0.51100000000E-03 0.  1.
         23    2    1    2    0    0  0.00000000000E+00  0.00000000000E+00 -0.17763568394E-14  0.91188000000E+02  0.91188000000E+02 0.  0.
    9900012    2    3    3    0    0 -0.38032618735E+01  0.42273077758E+02 -0.90634155237E+01  0.47787269534E+02  0.19999993113E+02 0.  0.
         12    1    3    3    0    0  0.38032618735E+01 -0.42273077758E+02  0.90634155237E+01  0.43400730466E+02  0.00000000000E+00 0. -1.
         11    1    4    4    0    0 -0.45355504180E-01  0.25531889062E+02  0.85732110180E+00  0.25546319029E+02  0.51100000000E-03 0.  1.
        -11    1    4    4    0    0 -0.55367495582E+01  0.45325191444E+01 -0.58710586031E+01  0.92557363212E+01  0.51100000000E-03 0. -1.
         12    1    4    4    0    0  0.17788431889E+01  0.12208669552E+02 -0.40496780223E+01  0.12985214184E+02  0.00000000000E+00 0. -1.
</event>
<event>
 8    1  0.6469014E-010  0.9118800E+02  0.7816164E-02  0.1184000E+00
        -11   -1    0    0    0    0  0.00000000000E+00  0.00000000000E+00  0.45593999997E+02  0.45594000000E+02  0.51100000000E-03 0. -1.
         11   -1    0    0    0    0 -0.00000000000E+00 -0.00000000000E+00 -0.45593999997E+02  0.45594000000E+02  0.51100000000E-03 0.  1.
         23    2    1    2    0    0  0.00000000000E+00 -0.35527136788E-14  0.71054273576E-14  0.91188000000E+02  0.91188000000E+02 0.  0.
    9900012    2    3    3    0    0 -0.13159249845E+02  0.22388272722E+02 -0.34773875307E+02  0.47787274017E+02  0.20000013554E+02 0.  0.
         12    1    3    3    0    0  0.13159249845E+02 -0.22388272722E+02  0.34773875307E+02  0.43400725983E+02  0.00000000000E+00 0. -1.
         11    1    4    4    0    0 -0.99143450051E+01  0.20035420934E+02 -0.17355897571E+02  0.28300874715E+02  0.51100000000E-03 0. -1.
        -11    1    4    4    0    0 -0.22817492652E+01  0.50480910309E+01 -0.87324554158E+01  0.10341439968E+02  0.51100000000E-03 0.  1.
         12    1    4    4    0    0 -0.96315557494E+00 -0.26952392430E+01 -0.86855223206E+01  0.91449593339E+01  0.00000000000E+00 0. -1.
</event>
<event>
 8    1  0.6469014E-010  0.9118800E+02  0.7816164E-02  0.1184000E+00
        -11   -1    0    0    0    0  0.00000000000E+00  0.00000000000E+00  0.45593999997E+02  0.45594000000E+02  0.51100000000E-03 0. -1.
         11   -1    0    0    0    0 -0.00000000000E+00 -0.00000000000E+00 -0.45593999997E+02  0.45594000000E+02  0.51100000000E-03 0.  1.
         23    2    1    2    0    0  0.88817841970E-15  0.00000000000E+00  0.00000000000E+00  0.91188000000E+02  0.91188000000E+02 0.  0.
    9900012    2    3    3    0    0  0.63507129078E+01 -0.22340726184E+02 -0.36663101453E+02  0.47787278704E+02  0.20000034923E+02 0.  0.
         12    1    3    3    0    0 -0.63507129078E+01  0.22340726184E+02  0.36663101453E+02  0.43400721296E+02  0.00000000000E+00 0. -1.
         11    1    4    4    0    0  0.20225824760E+01 -0.73003251009E+01 -0.24104199445E+02  0.25266539486E+02  0.51100000000E-03 0. -1.
        -11    1    4    4    0    0  0.65567661601E+01 -0.14728354136E+02 -0.12252865004E+02  0.20249649358E+02  0.51100000000E-03 0.  1.
         12    1    4    4    0    0 -0.22286357283E+01 -0.31204694755E+00 -0.30603700382E+00  0.22710898606E+01  0.00000000000E+00 0. -1.
</event>
<event>
 8    1  0.6469014E-010  0.9118800E+02  0.7816164E-02  0.1184000E+00
        -11   -1    0    0    0    0  0.00000000000E+00  0.00000000000E+00  0.45593999997E+02  0.45594000000E+02  0.51100000000E-03 0. -1.
         11   -1    0    0    0    0 -0.00000000000E+00 -0.00000000000E+00 -0.45593999997E+02  0.45594000000E+02  0.51100000000E-03 0.  1.
         23    2    1    2    0    0  0.17763568394E-14  0.00000000000E+00  0.00000000000E+00  0.91188000000E+02  0.91188000000E+02 0.  0.
    9900012    2    3    3    0    0 -0.11068132045E+02  0.71626035394E+01 -0.41349927523E+02  0.47787274861E+02  0.20000017401E+02 0.  0.
         12    1    3    3    0    0  0.11068132045E+02 -0.71626035394E+01  0.41349927523E+02  0.43400725139E+02  0.00000000000E+00 0. -1.
         11    1    4    4    0    0 -0.11814232928E+00  0.10012491943E+02 -0.88632415248E+01  0.13372397059E+02  0.51100000000E-03 0. -1.
        -11    1    4    4    0    0 -0.64707831865E+01 -0.18217321366E+01 -0.20687049503E+02  0.21751867976E+02  0.51100000000E-03 0.  1.
         12    1    4    4    0    0 -0.44792065289E+01 -0.10281562667E+01 -0.11799636495E+02  0.12663009826E+02  0.00000000000E+00 0. -1.
</event>
<event>
 8    1  0.6469014E-010  0.9118800E+02  0.7816164E-02  0.1184000E+00
        -11   -1    0    0    0    0  0.00000000000E+00  0.00000000000E+00  0.45593999997E+02  0.45594000000E+02  0.51100000000E-03 0. -1.
         11   -1    0    0    0    0 -0.00000000000E+00 -0.00000000000E+00 -0.45593999997E+02  0.45594000000E+02  0.51100000000E-03 0.  1.
         23    2    1    2    0    0  0.00000000000E+00  0.35527136788E-14  0.00000000000E+00  0.91188000000E+02  0.91188000000E+02 0.  0.
    9900012    2    3    3    0    0  0.61583143473E+01  0.27473200464E+02  0.33029105456E+02  0.47787269747E+02  0.19999994084E+02 0.  0.
        -12    1    3    3    0    0 -0.61583143473E+01 -0.27473200464E+02 -0.33029105456E+02  0.43400730253E+02  0.00000000000E+00 0.  1.
         11    1    4    4    0    0  0.45284818664E+01  0.26218733002E+01  0.16023245058E+02  0.16856030080E+02  0.51100000000E-03 0. -1.
        -11    1    4    4    0    0  0.32009982917E+01  0.20003585447E+02  0.15809002297E+02  0.25696582937E+02  0.51100000000E-03 0.  1.
         12    1    4    4    0    0 -0.15711658108E+01  0.48477417168E+01  0.11968581008E+01  0.52346567291E+01  0.00000000000E+00 0. -1.
</event>
<event>
 8    1  0.6469014E-010  0.9118800E+02  0.7816164E-02  0.1184000E+00
        -11   -1    0    0    0    0  0.00000000000E+00  0.00000000000E+00  0.45593999997E+02  0.45594000000E+02  0.51100000000E-03 0. -1.
         11   -1    0    0    0    0 -0.00000000000E+00 -0.00000000000E+00 -0.45593999997E+02  0.45594000000E+02  0.51100000000E-03 0.  1.
         23    2    1    2    0    0  0.35527136788E-14  0.00000000000E+00  0.35527136788E-14  0.91188000000E+02  0.91188000000E+02 0.  0.
    9900012    2    3    3    0    0 -0.24438442014E+02 -0.22031606170E+02 -0.28301838253E+02  0.47787272276E+02  0.20000005615E+02 0.  0.
         12    1    3    3    0    0  0.24438442014E+02  0.22031606170E+02  0.28301838253E+02  0.43400727724E+02  0.00000000000E+00 0. -1.
         11    1    4    4    0    0 -0.17290138585E+02 -0.20261701133E+02 -0.19218705223E+02  0.32845761611E+02  0.51100000000E-03 0. -1.
        -11    1    4    4    0    0 -0.84039629202E+00 -0.11582539480E+01 -0.84524300370E+01  0.85727120521E+01  0.51100000000E-03 0.  1.
         12    1    4    4    0    0 -0.63079071372E+01 -0.61165108854E+00 -0.63070299265E+00  0.63687986128E+01  0.00000000000E+00 0. -1.
</event>
<event>
 8    1  0.6469014E-010  0.9118800E+02  0.7816164E-02  0.1184000E+00
        -11   -1    0    0    0    0  0.00000000000E+00  0.00000000000E+00  0.45593999997E+02  0.45594000000E+02  0.51100000000E-03 0.  1.
         11   -1    0    0    0    0 -0.00000000000E+00 -0.00000000000E+00 -0.45593999997E+02  0.45594000000E+02  0.51100000000E-03 0. -1.
         23    2    1    2    0    0  0.00000000000E+00  0.00000000000E+00  0.00000000000E+00  0.91188000000E+02  0.91188000000E+02 0.  0.
    9900012    2    3    3    0    0 -0.36804848440E+02  0.22536051510E+02 -0.45991956976E+01  0.47787273192E+02  0.20000009793E+02 0.  0.
         12    1    3    3    0    0  0.36804848440E+02 -0.22536051510E+02  0.45991956976E+01  0.43400726808E+02  0.00000000000E+00 0. -1.
         11    1    4    4    0    0 -0.12325251602E+01  0.40301362444E+01  0.73368108065E+00  0.42777803366E+01  0.51100000000E-03 0. -1.
        -11    1    4    4    0    0 -0.45908794709E+01  0.86532060063E+01  0.24143374145E+01  0.10088764737E+02  0.51100000000E-03 0.  1.
        -12    1    4    4    0    0 -0.30981443809E+02  0.98527092594E+01 -0.77472141927E+01  0.33420728119E+02  0.00000000000E+00 0.  1.
</event>
<event>
 8    1  0.6469014E-010  0.9118800E+02  0.7816164E-02  0.1184000E+00
        -11   -1    0    0    0    0  0.00000000000E+00  0.00000000000E+00  0.45593999997E+02  0.45594000000E+02  0.51100000000E-03 0. -1.
         11   -1    0    0    0    0 -0.00000000000E+00 -0.00000000000E+00 -0.45593999997E+02  0.45594000000E+02  0.51100000000E-03 0.  1.
         23    2    1    2    0    0 -0.88817841970E-15  0.00000000000E+00  0.00000000000E+00  0.91188000000E+02  0.91188000000E+02 0.  0.
    9900012    2    3    3    0    0  0.53316189263E+01  0.13692562239E+02 -0.40837620455E+02  0.47787266533E+02  0.19999979431E+02 0.  0.
         12    1    3    3    0    0 -0.53316189263E+01 -0.13692562239E+02  0.40837620455E+02  0.43400733467E+02  0.00000000000E+00 0. -1.
         11    1    4    4    0    0  0.28994904199E+01  0.46395073536E+00 -0.80983950248E+01  0.86143077040E+01  0.51100000000E-03 0. -1.
        -11    1    4    4    0    0 -0.32418336094E+01 -0.10763459753E+01 -0.16302376609E+02  0.16656394843E+02  0.51100000000E-03 0.  1.
        -12    1    4    4    0    0  0.56739621159E+01  0.14304957479E+02 -0.16436848821E+02  0.22516563986E+02  0.00000000000E+00 0.  1.
</event>
<event>
 8    1  0.6469014E-010  0.9118800E+02  0.7816164E-02  0.1184000E+00
        -11   -1    0    0    0    0  0.00000000000E+00  0.00000000000E+00  0.45593999997E+02  0.45594000000E+02  0.51100000000E-03 0. -1.
         11   -1    0    0    0    0 -0.00000000000E+00 -0.00000000000E+00 -0.45593999997E+02  0.45594000000E+02  0.51100000000E-03 0.  1.
         23    2    1    2    0    0  0.00000000000E+00  0.00000000000E+00  0.00000000000E+00  0.91188000000E+02  0.91188000000E+02 0.  0.
    9900012    2    3    3    0    0 -0.35737460392E+02  0.17286904306E+02 -0.17539121837E+02  0.47787263479E+02  0.19999965505E+02 0.  0.
         12    1    3    3    0    0  0.35737460392E+02 -0.17286904306E+02  0.17539121837E+02  0.43400736521E+02  0.00000000000E+00 0. -1.
         11    1    4    4    0    0 -0.29857855522E+01 -0.23563163594E+01  0.18834929276E+01  0.42443713338E+01  0.51100000000E-03 0. -1.
        -11    1    4    4    0    0 -0.25443620450E+02  0.13354428932E+02 -0.11094719501E+02  0.30802782257E+02  0.51100000000E-03 0.  1.
        -12    1    4    4    0    0 -0.73080543897E+01  0.62887917338E+01 -0.83278952634E+01  0.12740109888E+02  0.00000000000E+00 0.  1.
</event>
<event>
 8    1  0.6469014E-010  0.9118800E+02  0.7816164E-02  0.1184000E+00
        -11   -1    0    0    0    0  0.00000000000E+00  0.00000000000E+00  0.45593999997E+02  0.45594000000E+02  0.51100000000E-03 0.  1.
         11   -1    0    0    0    0 -0.00000000000E+00 -0.00000000000E+00 -0.45593999997E+02  0.45594000000E+02  0.51100000000E-03 0. -1.
         23    2    1    2    0    0  0.00000000000E+00  0.71054273576E-14  0.00000000000E+00  0.91188000000E+02  0.91188000000E+02 0.  0.
    9900012    2    3    3    0    0 -0.48831865356E+01 -0.36017564928E+02  0.23717348279E+02  0.47787273008E+02  0.20000008953E+02 0.  0.
        -12    1    3    3    0    0  0.48831865356E+01  0.36017564928E+02 -0.23717348279E+02  0.43400726992E+02  0.00000000000E+00 0.  1.
         11    1    4    4    0    0 -0.29358272412E+01 -0.15525193218E+01 -0.14788108079E+01  0.36354201272E+01  0.51100000000E-03 0. -1.
        -11    1    4    4    0    0  0.27730261542E+01 -0.27571734336E+02  0.21202464331E+02  0.34891756939E+02  0.51100000000E-03 0.  1.
        -12    1    4    4    0    0 -0.47203854486E+01 -0.68933112700E+01  0.39936947556E+01  0.92600959417E+01  0.00000000000E+00 0.  1.
</event>
<event>
 8    1  0.6469014E-010  0.9118800E+02  0.7816164E-02  0.1184000E+00
        -11   -1    0    0    0    0  0.00000000000E+00  0.00000000000E+00  0.45593999997E+02  0.45594000000E+02  0.51100000000E-03 0.  1.
         11   -1    0    0    0    0 -0.00000000000E+00 -0.00000000000E+00 -0.45593999997E+02  0.45594000000E+02  0.51100000000E-03 0. -1.
         23    2    1    2    0    0  0.00000000000E+00  0.00000000000E+00  0.35527136788E-14  0.91188000000E+02  0.91188000000E+02 0.  0.
    9900012    2    3    3    0    0  0.88985775361E+01  0.32192003338E+02 -0.27714864135E+02  0.47787268956E+02  0.19999990480E+02 0.  0.
         12    1    3    3    0    0 -0.88985775361E+01 -0.32192003338E+02  0.27714864135E+02  0.43400731044E+02  0.00000000000E+00 0. -1.
         11    1    4    4    0    0 -0.21404381525E+01 -0.93806479155E+00 -0.22963902699E+01  0.32764080287E+01  0.51100000000E-03 0. -1.
        -11    1    4    4    0    0  0.10048820179E+02  0.28786491847E+02 -0.25931984517E+02  0.40026350334E+02  0.51100000000E-03 0.  1.
        -12    1    4    4    0    0  0.99019550988E+00  0.43435762829E+01  0.51351065166E+00  0.44845105934E+01  0.00000000000E+00 0.  1.
</event>
<event>
 8    1  0.6469014E-010  0.9118800E+02  0.7816164E-02  0.1184000E+00
        -11   -1    0    0    0    0  0.00000000000E+00  0.00000000000E+00  0.45593999997E+02  0.45594000000E+02  0.51100000000E-03 0. -1.
         11   -1    0    0    0    0 -0.00000000000E+00 -0.00000000000E+00 -0.45593999997E+02  0.45594000000E+02  0.51100000000E-03 0.  1.
         23    2    1    2    0    0  0.00000000000E+00  0.00000000000E+00  0.00000000000E+00  0.91188000000E+02  0.91188000000E+02 0.  0.
    9900012    2    3    3    0    0  0.42826858983E+01  0.26350117722E+02 -0.34219193053E+02  0.47787271024E+02  0.19999999907E+02 0.  0.
         12    1    3    3    0    0 -0.42826858983E+01 -0.26350117722E+02  0.34219193053E+02  0.43400728976E+02  0.00000000000E+00 0. -1.
         11    1    4    4    0    0 -0.34533379204E+01  0.47170231544E+00 -0.33883872546E+01  0.48609890265E+01  0.51100000000E-03 0. -1.
        -11    1    4    4    0    0  0.20279460413E+01  0.21324913000E+02 -0.17235171467E+02  0.27493919607E+02  0.51100000000E-03 0.  1.
        -12    1    4    4    0    0  0.57080777774E+01  0.45535024063E+01 -0.13595634332E+02  0.15432362391E+02  0.00000000000E+00 0.  1.
</event>
<event>
 8    1  0.6469014E-010  0.9118800E+02  0.7816164E-02  0.1184000E+00
        -11   -1    0    0    0    0  0.00000000000E+00  0.00000000000E+00  0.45593999997E+02  0.45594000000E+02  0.51100000000E-03 0. -1.
         11   -1    0    0    0    0 -0.00000000000E+00 -0.00000000000E+00 -0.45593999997E+02  0.45594000000E+02  0.51100000000E-03 0.  1.
         23    2    1    2    0    0  0.00000000000E+00  0.00000000000E+00 -0.17763568394E-14  0.91188000000E+02  0.91188000000E+02 0.  0.
    9900012    2    3    3    0    0  0.19985264642E+02 -0.35746113520E+02 -0.14367596207E+02  0.47787271258E+02  0.20000000974E+02 0.  0.
         12    1    3    3    0    0 -0.19985264642E+02  0.35746113520E+02  0.14367596207E+02  0.43400728742E+02  0.00000000000E+00 0. -1.
         11    1    4    4    0    0  0.90005030732E+00  0.22149022464E+01 -0.21925044701E+00  0.24008235122E+01  0.51100000000E-03 0. -1.
        -11    1    4    4    0    0  0.19204635945E+02 -0.34082381045E+02 -0.11848249819E+02  0.40875515452E+02  0.51100000000E-03 0.  1.
         12    1    4    4    0    0 -0.11942161007E+00 -0.38786347212E+01 -0.23000959412E+01  0.45109322939E+01  0.00000000000E+00 0. -1.
</event>
<event>
 8    1  0.6469014E-010  0.9118800E+02  0.7816164E-02  0.1184000E+00
        -11   -1    0    0    0    0  0.00000000000E+00  0.00000000000E+00  0.45593999997E+02  0.45594000000E+02  0.51100000000E-03 0. -1.
         11   -1    0    0    0    0 -0.00000000000E+00 -0.00000000000E+00 -0.45593999997E+02  0.45594000000E+02  0.51100000000E-03 0.  1.
         23    2    1    2    0    0  0.88817841970E-15  0.35527136788E-14  0.00000000000E+00  0.91188000000E+02  0.91188000000E+02 0.  0.
    9900012    2    3    3    0    0 -0.58653724293E+01 -0.27894143987E+02  0.32728236653E+02  0.47787270318E+02  0.19999996686E+02 0.  0.
        -12    1    3    3    0    0  0.58653724293E+01  0.27894143987E+02 -0.32728236653E+02  0.43400729682E+02  0.00000000000E+00 0.  1.
         11    1    4    4    0    0 -0.77075609960E+01 -0.16221513350E+02  0.29008810891E+02  0.34118251735E+02  0.51100000000E-03 0. -1.
        -11    1    4    4    0    0 -0.12024067594E+01 -0.51221924234E+01 -0.53050206120E+00  0.52881064603E+01  0.51100000000E-03 0.  1.
         12    1    4    4    0    0  0.30445953260E+01 -0.65504382145E+01  0.42499278235E+01  0.83809121225E+01  0.00000000000E+00 0. -1.
</event>
<event>
 8    1  0.6469014E-010  0.9118800E+02  0.7816164E-02  0.1184000E+00
        -11   -1    0    0    0    0  0.00000000000E+00  0.00000000000E+00  0.45593999997E+02  0.45594000000E+02  0.51100000000E-03 0. -1.
         11   -1    0    0    0    0 -0.00000000000E+00 -0.00000000000E+00 -0.45593999997E+02  0.45594000000E+02  0.51100000000E-03 0.  1.
         23    2    1    2    0    0 -0.17763568394E-14  0.00000000000E+00  0.00000000000E+00  0.91188000000E+02  0.91188000000E+02 0.  0.
    9900012    2    3    3    0    0 -0.84940118316E+01 -0.21684422316E+02 -0.36623228309E+02  0.47787271205E+02  0.20000000733E+02 0.  0.
         12    1    3    3    0    0  0.84940118316E+01  0.21684422316E+02  0.36623228309E+02  0.43400728795E+02  0.00000000000E+00 0. -1.
         11    1    4    4    0    0 -0.91367651640E+01 -0.10750127487E+02 -0.79472113408E+01  0.16192710922E+02  0.51100000000E-03 0. -1.
        -11    1    4    4    0    0  0.22016599278E+01 -0.59715690012E+01 -0.23134855317E+02  0.23994342532E+02  0.51100000000E-03 0.  1.
        -12    1    4    4    0    0 -0.15589065954E+01 -0.49627258273E+01 -0.55411616513E+01  0.76002177505E+01  0.00000000000E+00 0.  1.
</event>
<event>
 8    1  0.7155020E-010  0.9118800E+02  0.7816164E-02  0.1184000E+00
        -11   -1    0    0    0    0  0.00000000000E+00  0.00000000000E+00  0.45593999997E+02  0.45594000000E+02  0.51100000000E-03 0. -1.
         11   -1    0    0    0    0 -0.00000000000E+00 -0.00000000000E+00 -0.45593999997E+02  0.45594000000E+02  0.51100000000E-03 0.  1.
         23    2    1    2    0    0  0.00000000000E+00  0.00000000000E+00 -0.71054273576E-14  0.91188000000E+02  0.91188000000E+02 0.  0.
    9900012    2    3    3    0    0  0.62541480868E+01 -0.19671688587E+02 -0.38177659376E+02  0.47787269872E+02  0.19999994656E+02 0.  0.
         12    1    3    3    0    0 -0.62541480868E+01  0.19671688587E+02  0.38177659376E+02  0.43400730128E+02  0.00000000000E+00 0. -1.
         11    1    4    4    0    0  0.70635374495E+01 -0.14008214097E+01 -0.25050192244E+01  0.76243677442E+01  0.51100000000E-03 0. -1.
        -11    1    4    4    0    0  0.17952051105E+00 -0.11091592154E+02 -0.19359621653E+02  0.22312565853E+02  0.51100000000E-03 0.  1.
         12    1    4    4    0    0 -0.98890987371E+00 -0.71792750229E+01 -0.16313018499E+02  0.17850336275E+02  0.00000000000E+00 0. -1.
</event>
<event>
 8    1  0.6469014E-010  0.9118800E+02  0.7816164E-02  0.1184000E+00
        -11   -1    0    0    0    0  0.00000000000E+00  0.00000000000E+00  0.45593999997E+02  0.45594000000E+02  0.51100000000E-03 0. -1.
         11   -1    0    0    0    0 -0.00000000000E+00 -0.00000000000E+00 -0.45593999997E+02  0.45594000000E+02  0.51100000000E-03 0.  1.
         23    2    1    2    0    0  0.00000000000E+00  0.13322676296E-14  0.00000000000E+00  0.91188000000E+02  0.91188000000E+02 0.  0.
    9900012    2    3    3    0    0  0.65148924029E+01 -0.37628392538E+01 -0.42743654341E+02  0.47787276864E+02  0.20000026533E+02 0.  0.
         12    1    3    3    0    0 -0.65148924029E+01  0.37628392538E+01  0.42743654341E+02  0.43400723136E+02  0.00000000000E+00 0. -1.
         11    1    4    4    0    0  0.61146018532E+01 -0.95197724835E+01 -0.14762784624E+02  0.18599845002E+02  0.51100000000E-03 0. -1.
        -11    1    4    4    0    0  0.63361422168E+00  0.70922688184E+00 -0.17762290916E+02  0.17787733093E+02  0.51100000000E-03 0.  1.
         12    1    4    4    0    0 -0.23332367199E+00  0.50477063478E+01 -0.10218578801E+02  0.11399698769E+02  0.00000000000E+00 0. -1.
</event>
<event>
 8    1  0.6469014E-010  0.9118800E+02  0.7816164E-02  0.1184000E+00
        -11   -1    0    0    0    0  0.00000000000E+00  0.00000000000E+00  0.45593999997E+02  0.45594000000E+02  0.51100000000E-03 0. -1.
         11   -1    0    0    0    0 -0.00000000000E+00 -0.00000000000E+00 -0.45593999997E+02  0.45594000000E+02  0.51100000000E-03 0.  1.
         23    2    1    2    0    0  0.00000000000E+00  0.71054273576E-14 -0.35527136788E-14  0.91188000000E+02  0.91188000000E+02 0.  0.
    9900012    2    3    3    0    0 -0.33534382647E+02 -0.21075946311E+02 -0.17744664836E+02  0.47787268871E+02  0.19999990089E+02 0.  0.
         12    1    3    3    0    0  0.33534382647E+02  0.21075946311E+02  0.17744664836E+02  0.43400731129E+02  0.00000000000E+00 0. -1.
         11    1    4    4    0    0  0.83203890001E+00 -0.67200390670E+00 -0.14826036770E+00  0.10797496837E+01  0.51100000000E-03 0. -1.
        -11    1    4    4    0    0 -0.51560068872E-01 -0.24900829115E+01 -0.56854659470E+01  0.62070681196E+01  0.51100000000E-03 0.  1.
        -12    1    4    4    0    0 -0.34314861478E+02 -0.17913859493E+02 -0.11910938522E+02  0.40500451067E+02  0.00000000000E+00 0.  1.
</event>
<event>
 8    1  0.6469014E-010  0.9118800E+02  0.7816164E-02  0.1184000E+00
        -11   -1    0    0    0    0  0.00000000000E+00  0.00000000000E+00  0.45593999997E+02  0.45594000000E+02  0.51100000000E-03 0. -1.
         11   -1    0    0    0    0 -0.00000000000E+00 -0.00000000000E+00 -0.45593999997E+02  0.45594000000E+02  0.51100000000E-03 0.  1.
         23    2    1    2    0    0 -0.71054273576E-14  0.00000000000E+00  0.00000000000E+00  0.91188000000E+02  0.91188000000E+02 0.  0.
    9900012    2    3    3    0    0  0.41918087611E+02 -0.58628395233E+01  0.95981379782E+01  0.47787271793E+02  0.20000003415E+02 0.  0.
        -12    1    3    3    0    0 -0.41918087611E+02  0.58628395233E+01 -0.95981379782E+01  0.43400728207E+02  0.00000000000E+00 0.  1.
         11    1    4    4    0    0  0.34953681583E+02 -0.30951725699E+01  0.51973998775E+01  0.35473270433E+02  0.51100000000E-03 0. -1.
        -11    1    4    4    0    0  0.51186703853E+01 -0.57446748778E+01  0.42901233705E+01  0.88094968506E+01  0.51100000000E-03 0.  1.
        -12    1    4    4    0    0  0.18457356425E+01  0.29770079243E+01  0.11061473023E+00  0.35045045102E+01  0.00000000000E+00 0.  1.
</event>
<event>
 8    1  0.6469014E-010  0.9118800E+02  0.7816164E-02  0.1184000E+00
        -11   -1    0    0    0    0  0.00000000000E+00  0.00000000000E+00  0.45593999997E+02  0.45594000000E+02  0.51100000000E-03 0. -1.
         11   -1    0    0    0    0 -0.00000000000E+00 -0.00000000000E+00 -0.45593999997E+02  0.45594000000E+02  0.51100000000E-03 0.  1.
         23    2    1    2    0    0  0.00000000000E+00  0.00000000000E+00  0.00000000000E+00  0.91188000000E+02  0.91188000000E+02 0.  0.
    9900012    2    3    3    0    0 -0.20968889406E+02  0.11669983872E+02  0.36162698347E+02  0.47787267308E+02  0.19999982963E+02 0.  0.
        -12    1    3    3    0    0  0.20968889406E+02 -0.11669983872E+02 -0.36162698347E+02  0.43400732692E+02  0.00000000000E+00 0.  1.
         11    1    4    4    0    0 -0.13601203396E+02  0.79774070390E+01  0.10156427386E+02  0.18755926381E+02  0.51100000000E-03 0.  1.
        -11    1    4    4    0    0 -0.73695461517E+01  0.28179737844E+01  0.26746238270E+02  0.27885703301E+02  0.51100000000E-03 0. -1.
         12    1    4    4    0    0  0.18601421970E-02  0.87460304870E+00 -0.73996730885E+00  0.11456376264E+01  0.00000000000E+00 0. -1.
</event>
<event>
 8    1  0.6469014E-010  0.9118800E+02  0.7816164E-02  0.1184000E+00
        -11   -1    0    0    0    0  0.00000000000E+00  0.00000000000E+00  0.45593999997E+02  0.45594000000E+02  0.51100000000E-03 0. -1.
         11   -1    0    0    0    0 -0.00000000000E+00 -0.00000000000E+00 -0.45593999997E+02  0.45594000000E+02  0.51100000000E-03 0.  1.
         23    2    1    2    0    0  0.00000000000E+00 -0.17763568394E-14  0.35527136788E-14  0.91188000000E+02  0.91188000000E+02 0.  0.
    9900012    2    3    3    0    0 -0.29807481090E+02  0.14943210416E+02 -0.27781968231E+02  0.47787271604E+02  0.20000002553E+02 0.  0.
         12    1    3    3    0    0  0.29807481090E+02 -0.14943210416E+02  0.27781968231E+02  0.43400728396E+02  0.00000000000E+00 0. -1.
         11    1    4    4    0    0 -0.16772593457E+01  0.90215579286E+00 -0.28936419717E+01  0.34641374264E+01  0.51100000000E-03 0. -1.
        -11    1    4    4    0    0 -0.84301953665E+01  0.13510596958E+02 -0.16418520050E+02  0.22872958378E+02  0.51100000000E-03 0.  1.
        -12    1    4    4    0    0 -0.19700026378E+02  0.53045766558E+00 -0.84698062098E+01  0.21450175800E+02  0.00000000000E+00 0.  1.
</event>
<event>
 8    1  0.6469014E-010  0.9118800E+02  0.7816164E-02  0.1184000E+00
        -11   -1    0    0    0    0  0.00000000000E+00  0.00000000000E+00  0.45593999997E+02  0.45594000000E+02  0.51100000000E-03 0. -1.
         11   -1    0    0    0    0 -0.00000000000E+00 -0.00000000000E+00 -0.45593999997E+02  0.45594000000E+02  0.51100000000E-03 0.  1.
         23    2    1    2    0    0 -0.35527136788E-14 -0.88817841970E-15  0.71054273576E-14  0.91188000000E+02  0.91188000000E+02 0.  0.
    9900012    2    3    3    0    0 -0.24836424874E+02 -0.34007617796E+01  0.35428947365E+02  0.47787268525E+02  0.19999988512E+02 0.  0.
        -12    1    3    3    0    0  0.24836424874E+02  0.34007617796E+01 -0.35428947365E+02  0.43400731475E+02  0.00000000000E+00 0.  1.
         11    1    4    4    0    0  0.15026726639E+01  0.18019936687E+01  0.19852629903E+00  0.23547015245E+01  0.51100000000E-03 0. -1.
        -11    1    4    4    0    0 -0.85461484686E+01 -0.58782500948E+01  0.90190032964E+01  0.13745286412E+02  0.51100000000E-03 0.  1.
         12    1    4    4    0    0 -0.17792949070E+02  0.67549464647E+00  0.26211417769E+02  0.31687280588E+02  0.00000000000E+00 0. -1.
</event>
