<event>
 7    1  0.3196678E-013  0.7246157E+02  0.7816164E-02  0.1226708E+00
        -11   -1    0    0    0    0  0.00000000000E+00  0.00000000000E+00  0.45593999997E+02  0.45594000000E+02  0.51100000000E-03 0.  1.
         11   -1    0    0    0    0 -0.00000000000E+00 -0.00000000000E+00 -0.45593999997E+02  0.45594000000E+02  0.51100000000E-03 0. -1.
    9900012    2    1    2    0    0 -0.70705659688E+00 -0.18705539264E+02  0.53092285128E+00  0.72461574626E+02  0.70000005643E+02 0.  0.
         12    1    1    2    0    0  0.70705659688E+00  0.18705539264E+02 -0.53092285128E+00  0.18726425374E+02  0.00000000000E+00 0. -1.
         11    1    3    3    0    0  0.64728676130E+01  0.22690067446E+02 -0.39314963285E+01  0.23920573560E+02  0.51100000000E-03 0. -1.
        -11    1    3    3    0    0 -0.17264184859E+01 -0.60618802047E+01 -0.84384258491E+01  0.10532518382E+02  0.51100000000E-03 0.  1.
        -12    1    3    3    0    0 -0.54535057240E+01 -0.35333726505E+02  0.12900845029E+02  0.38008482683E+02  0.00000000000E+00 0.  1.
</event>
<event>
 7    1  0.3196678E-013  0.7246162E+02  0.7816164E-02  0.1226708E+00
        -11   -1    0    0    0    0  0.00000000000E+00  0.00000000000E+00  0.45593999997E+02  0.45594000000E+02  0.51100000000E-03 0.  1.
         11   -1    0    0    0    0 -0.00000000000E+00 -0.00000000000E+00 -0.45593999997E+02  0.45594000000E+02  0.51100000000E-03 0. -1.
    9900012    2    1    2    0    0  0.86564186746E+01  0.16457929300E+02  0.22091377805E+01  0.72461619921E+02  0.70000064648E+02 0.  0.
         12    1    1    2    0    0 -0.86564186746E+01 -0.16457929300E+02 -0.22091377805E+01  0.18726380079E+02  0.00000000000E+00 0. -1.
         11    1    3    3    0    0  0.55665649524E+01 -0.15370028415E+02 -0.21273317460E+02  0.26828687162E+02  0.51100000000E-03 0. -1.
        -11    1    3    3    0    0 -0.20109989897E+01  0.14072373651E+02 -0.17908197413E+01  0.14327695303E+02  0.51100000000E-03 0.  1.
        -12    1    3    3    0    0  0.51008527119E+01  0.17755584065E+02  0.25273274981E+02  0.31305237456E+02  0.00000000000E+00 0.  1.
</event>
<event>
 7    1  0.3196678E-013  0.7246159E+02  0.7816164E-02  0.1226708E+00
        -11   -1    0    0    0    0  0.00000000000E+00  0.00000000000E+00  0.45593999997E+02  0.45594000000E+02  0.51100000000E-03 0.  1.
         11   -1    0    0    0    0 -0.00000000000E+00 -0.00000000000E+00 -0.45593999997E+02  0.45594000000E+02  0.51100000000E-03 0. -1.
    9900012    2    1    2    0    0  0.14649283079E+02 -0.73063011581E+01  0.90936676614E+01  0.72461592900E+02  0.70000029448E+02 0.  0.
         12    1    1    2    0    0 -0.14649283079E+02  0.73063011581E+01 -0.90936676614E+01  0.18726407100E+02  0.00000000000E+00 0. -1.
         11    1    3    3    0    0  0.10055553819E+02  0.22811776498E+02 -0.10353663896E+01  0.24951218275E+02  0.51100000000E-03 0. -1.
        -11    1    3    3    0    0  0.66342900553E+01  0.64078963509E+01  0.52235451228E+01  0.10600017174E+02  0.51100000000E-03 0.  1.
        -12    1    3    3    0    0 -0.20405607947E+01 -0.36525974007E+02  0.49054889282E+01  0.36910357450E+02  0.00000000000E+00 0.  1.
</event>
<event>
 7    1  0.3196678E-013  0.7246158E+02  0.7816164E-02  0.1226708E+00
        -11   -1    0    0    0    0  0.00000000000E+00  0.00000000000E+00  0.45593999997E+02  0.45594000000E+02  0.51100000000E-03 0.  1.
         11   -1    0    0    0    0 -0.00000000000E+00 -0.00000000000E+00 -0.45593999997E+02  0.45594000000E+02  0.51100000000E-03 0. -1.
    9900012    2    1    2    0    0  0.82214705751E+01  0.40530218213E+01  0.16329709010E+02  0.72461575871E+02  0.70000007264E+02 0.  0.
         12    1    1    2    0    0 -0.82214705751E+01 -0.40530218213E+01 -0.16329709010E+02  0.18726424129E+02  0.00000000000E+00 0. -1.
         11    1    3    3    0    0 -0.15047268156E+02 -0.93159680073E+01 -0.64035878069E+01  0.18820559926E+02  0.51100000000E-03 0. -1.
        -11    1    3    3    0    0 -0.46649392144E+01 -0.47366697353E+01  0.19017515552E+02  0.20146056589E+02  0.51100000000E-03 0.  1.
        -12    1    3    3    0    0  0.27933677946E+02  0.18105659564E+02  0.37157812653E+01  0.33494959356E+02  0.00000000000E+00 0.  1.
</event>
<event>
 7    1  0.3196678E-013  0.7246160E+02  0.7816164E-02  0.1226708E+00
        -11   -1    0    0    0    0  0.00000000000E+00  0.00000000000E+00  0.45593999997E+02  0.45594000000E+02  0.51100000000E-03 0. -1.
         11   -1    0    0    0    0 -0.00000000000E+00 -0.00000000000E+00 -0.45593999997E+02  0.45594000000E+02  0.51100000000E-03 0.  1.
    9900012    2    1    2    0    0 -0.21132282584E+01  0.43930377049E+01 -0.18080747042E+02  0.72461603455E+02  0.70000043198E+02 0.  0.
         12    1    1    2    0    0  0.21132282584E+01 -0.43930377049E+01  0.18080747042E+02  0.18726396545E+02  0.00000000000E+00 0. -1.
         11    1    3    3    0    0  0.25471431866E+02 -0.91669677044E+01 -0.40996571138E+00  0.27073884286E+02  0.51100000000E-03 0. -1.
        -11    1    3    3    0    0  0.58699339807E+01  0.49535387580E+00 -0.24017639668E+01  0.63616012775E+01  0.51100000000E-03 0.  1.
        -12    1    3    3    0    0 -0.33454594105E+02  0.13064651534E+02 -0.15269017364E+02  0.39026117892E+02  0.00000000000E+00 0.  1.
</event>
<event>
 7    1  0.3196678E-013  0.7246146E+02  0.7816164E-02  0.1226708E+00
        -11   -1    0    0    0    0  0.00000000000E+00  0.00000000000E+00  0.45593999997E+02  0.45594000000E+02  0.51100000000E-03 0. -1.
         11   -1    0    0    0    0 -0.00000000000E+00 -0.00000000000E+00 -0.45593999997E+02  0.45594000000E+02  0.51100000000E-03 0.  1.
    9900012    2    1    2    0    0 -0.75796568631E+01 -0.30987550947E+01 -0.16841313905E+02  0.72461459066E+02  0.69999855105E+02 0.  0.
         12    1    1    2    0    0  0.75796568631E+01  0.30987550947E+01  0.16841313905E+02  0.18726540934E+02  0.00000000000E+00 0. -1.
         11    1    3    3    0    0 -0.15665733925E+01  0.18347505421E+02 -0.19635252762E+02  0.26918920087E+02  0.51100000000E-03 0. -1.
        -11    1    3    3    0    0  0.10828828053E+02 -0.35631011872E+00 -0.10821418751E+02  0.15313183142E+02  0.51100000000E-03 0.  1.
         12    1    3    3    0    0 -0.16841911524E+02 -0.21089950397E+02  0.13615357608E+02  0.30229355837E+02  0.00000000000E+00 0. -1.
</event>
<event>
 7    1  0.3196678E-013  0.7246159E+02  0.7816164E-02  0.1226708E+00
        -11   -1    0    0    0    0  0.00000000000E+00  0.00000000000E+00  0.45593999997E+02  0.45594000000E+02  0.51100000000E-03 0.  1.
         11   -1    0    0    0    0 -0.00000000000E+00 -0.00000000000E+00 -0.45593999997E+02  0.45594000000E+02  0.51100000000E-03 0. -1.
    9900012    2    1    2    0    0  0.14809908917E+02 -0.65145772696E+00  0.11442059622E+02  0.72461587432E+02  0.70000022324E+02 0.  0.
         12    1    1    2    0    0 -0.14809908917E+02  0.65145772696E+00 -0.11442059622E+02  0.18726412568E+02  0.00000000000E+00 0. -1.
         11    1    3    3    0    0 -0.18167333418E+02 -0.12456883438E+02  0.85200401173E+01  0.23618150486E+02  0.51100000000E-03 0. -1.
        -11    1    3    3    0    0  0.10386214084E+02  0.14108924884E+02  0.15052906036E+02  0.23098164099E+02  0.51100000000E-03 0.  1.
         12    1    3    3    0    0  0.22591028251E+02 -0.23034991730E+01 -0.12130886531E+02  0.25745272846E+02  0.00000000000E+00 0. -1.
</event>
<event>
 7    1  0.3196678E-013  0.7246158E+02  0.7816164E-02  0.1226708E+00
        -11   -1    0    0    0    0  0.00000000000E+00  0.00000000000E+00  0.45593999997E+02  0.45594000000E+02  0.51100000000E-03 0. -1.
         11   -1    0    0    0    0 -0.00000000000E+00 -0.00000000000E+00 -0.45593999997E+02  0.45594000000E+02  0.51100000000E-03 0.  1.
    9900012    2    1    2    0    0  0.11502486717E+02  0.65386386064E+01 -0.13252080439E+02  0.72461584661E+02  0.70000018715E+02 0.  0.
         12    1    1    2    0    0 -0.11502486717E+02 -0.65386386064E+01  0.13252080439E+02  0.18726415339E+02  0.00000000000E+00 0. -1.
         11    1    3    3    0    0 -0.11913899759E+02 -0.11068992185E+02  0.18043197155E+02  0.24290338806E+02  0.51100000000E-03 0. -1.
        -11    1    3    3    0    0  0.86716580292E+01  0.51194158031E+01  0.14261362004E+01  0.10170542555E+02  0.51100000000E-03 0.  1.
        -12    1    3    3    0    0  0.14744728447E+02  0.12488214988E+02 -0.32721413795E+02  0.38000703300E+02  0.00000000000E+00 0.  1.
</event>
<event>
 7    1  0.3196678E-013  0.7246195E+02  0.7816164E-02  0.1226707E+00
        -11   -1    0    0    0    0  0.00000000000E+00  0.00000000000E+00  0.45593999997E+02  0.45594000000E+02  0.51100000000E-03 0.  1.
         11   -1    0    0    0    0 -0.00000000000E+00 -0.00000000000E+00 -0.45593999997E+02  0.45594000000E+02  0.51100000000E-03 0. -1.
    9900012    2    1    2    0    0 -0.10084074118E+02 -0.57376486936E+01  0.14698842318E+02  0.72461945188E+02  0.70000488367E+02 0.  0.
         12    1    1    2    0    0  0.10084074118E+02  0.57376486936E+01 -0.14698842318E+02  0.18726054812E+02  0.00000000000E+00 0. -1.
         11    1    3    3    0    0  0.81511952618E+01 -0.77715542392E+01  0.15290480477E+02  0.18990466897E+02  0.51100000000E-03 0. -1.
        -11    1    3    3    0    0 -0.23992544753E+02 -0.17902659136E+02  0.80400792940E+01  0.30996617286E+02  0.51100000000E-03 0.  1.
         12    1    3    3    0    0  0.57572753727E+01  0.19936564681E+02 -0.86317174535E+01  0.22474861005E+02  0.00000000000E+00 0. -1.
</event>
<event>
 7    1  0.3196678E-013  0.7246159E+02  0.7816164E-02  0.1226708E+00
        -11   -1    0    0    0    0  0.00000000000E+00  0.00000000000E+00  0.45593999997E+02  0.45594000000E+02  0.51100000000E-03 0.  1.
         11   -1    0    0    0    0 -0.00000000000E+00 -0.00000000000E+00 -0.45593999997E+02  0.45594000000E+02  0.51100000000E-03 0. -1.
    9900012    2    1    2    0    0 -0.16103208914E+01  0.18654472448E+02 -0.30968945146E+00  0.72461591288E+02  0.70000027349E+02 0.  0.
         12    1    1    2    0    0  0.16103208914E+01 -0.18654472448E+02  0.30968945146E+00  0.18726408712E+02  0.00000000000E+00 0. -1.
         11    1    3    3    0    0  0.26854806095E+01  0.38395383873E+01 -0.25066428246E+00  0.46921950061E+01  0.51100000000E-03 0. -1.
        -11    1    3    3    0    0  0.17324539655E+02 -0.18640123712E+01 -0.25209745251E+02  0.30645480454E+02  0.51100000000E-03 0.  1.
         12    1    3    3    0    0 -0.21620341156E+02  0.16678946432E+02  0.25150720082E+02  0.37123915828E+02  0.00000000000E+00 0. -1.
</event>
<event>
 7    1  0.3196678E-013  0.7246162E+02  0.7816164E-02  0.1226708E+00
        -11   -1    0    0    0    0  0.00000000000E+00  0.00000000000E+00  0.45593999997E+02  0.45594000000E+02  0.51100000000E-03 0. -1.
         11   -1    0    0    0    0 -0.00000000000E+00 -0.00000000000E+00 -0.45593999997E+02  0.45594000000E+02  0.51100000000E-03 0.  1.
    9900012    2    1    2    0    0 -0.12649053826E+02 -0.11654939821E+02 -0.74054905229E+01  0.72461615544E+02  0.70000058945E+02 0.  0.
         12    1    1    2    0    0  0.12649053826E+02  0.11654939821E+02  0.74054905229E+01  0.18726384456E+02  0.00000000000E+00 0. -1.
         11    1    3    3    0    0  0.27482470859E+01  0.16607401366E+02  0.88006032523E-01  0.16833490057E+02  0.51100000000E-03 0. -1.
        -11    1    3    3    0    0  0.98639144054E+01 -0.11449984551E+02  0.12226131952E+02  0.19439065214E+02  0.51100000000E-03 0.  1.
        -12    1    3    3    0    0 -0.25261215317E+02 -0.16812356636E+02 -0.19719628507E+02  0.36189060273E+02  0.00000000000E+00 0.  1.
</event>
<event>
 7    1  0.3196678E-013  0.7246157E+02  0.7816164E-02  0.1226708E+00
        -11   -1    0    0    0    0  0.00000000000E+00  0.00000000000E+00  0.45593999997E+02  0.45594000000E+02  0.51100000000E-03 0.  1.
         11   -1    0    0    0    0 -0.00000000000E+00 -0.00000000000E+00 -0.45593999997E+02  0.45594000000E+02  0.51100000000E-03 0. -1.
    9900012    2    1    2    0    0  0.25005487506E+01  0.94950585362E+01  0.15945850294E+02  0.72461574226E+02  0.70000005122E+02 0.  0.
         12    1    1    2    0    0 -0.25005487506E+01 -0.94950585362E+01 -0.15945850294E+02  0.18726425774E+02  0.00000000000E+00 0. -1.
         11    1    3    3    0    0 -0.86609816214E+01 -0.32064109469E+01 -0.12088921484E+02  0.15213010771E+02  0.51100000000E-03 0. -1.
        -11    1    3    3    0    0  0.10264857021E+02 -0.25616993940E+01 -0.11038850777E+02  0.15290056252E+02  0.51100000000E-03 0.  1.
        -12    1    3    3    0    0  0.89667335087E+00  0.15263168877E+02  0.39073622554E+02  0.41958507204E+02  0.00000000000E+00 0.  1.
</event>
<event>
 7    1  0.3196678E-013  0.7246157E+02  0.7816164E-02  0.1226708E+00
        -11   -1    0    0    0    0  0.00000000000E+00  0.00000000000E+00  0.45593999997E+02  0.45594000000E+02  0.51100000000E-03 0.  1.
         11   -1    0    0    0    0 -0.00000000000E+00 -0.00000000000E+00 -0.45593999997E+02  0.45594000000E+02  0.51100000000E-03 0. -1.
    9900012    2    1    2    0    0 -0.79654460955E+01  0.16729510604E+02 -0.27118619873E+01  0.72461573433E+02  0.70000004088E+02 0.  0.
         12    1    1    2    0    0  0.79654460955E+01 -0.16729510604E+02  0.27118619873E+01  0.18726426567E+02  0.00000000000E+00 0. -1.
         11    1    3    3    0    0 -0.72577233676E+01  0.10148604695E+02  0.10167804695E+02  0.16095122811E+02  0.51100000000E-03 0. -1.
        -11    1    3    3    0    0  0.96321596520E+01  0.21132341175E+02  0.11687163406E+02  0.25998925590E+02  0.51100000000E-03 0.  1.
         12    1    3    3    0    0 -0.10339882380E+02 -0.14551435266E+02 -0.24566830088E+02  0.30367525031E+02  0.00000000000E+00 0. -1.
</event>
<event>
 7    1  0.3196678E-013  0.7246157E+02  0.7816164E-02  0.1226708E+00
        -11   -1    0    0    0    0  0.00000000000E+00  0.00000000000E+00  0.45593999997E+02  0.45594000000E+02  0.51100000000E-03 0.  1.
         11   -1    0    0    0    0 -0.00000000000E+00 -0.00000000000E+00 -0.45593999997E+02  0.45594000000E+02  0.51100000000E-03 0. -1.
    9900012    2    1    2    0    0 -0.59250688894E+01  0.14098353145E+02  0.10807829602E+02  0.72461569922E+02  0.69999999515E+02 0.  0.
         12    1    1    2    0    0  0.59250688894E+01 -0.14098353145E+02 -0.10807829602E+02  0.18726430078E+02  0.00000000000E+00 0. -1.
         11    1    3    3    0    0  0.75551231198E+01 -0.35612142478E+01  0.43066244146E+01  0.93972946311E+01  0.51100000000E-03 0. -1.
        -11    1    3    3    0    0  0.15553764152E+02  0.26402353964E+02  0.10690671961E+02  0.32454496474E+02  0.51100000000E-03 0.  1.
         12    1    3    3    0    0 -0.29033956161E+02 -0.87427865710E+01 -0.41894667729E+01  0.30609778817E+02  0.00000000000E+00 0. -1.
</event>
<event>
 7    1  0.3196678E-013  0.7246158E+02  0.7816164E-02  0.1226708E+00
        -11   -1    0    0    0    0  0.00000000000E+00  0.00000000000E+00  0.45593999997E+02  0.45594000000E+02  0.51100000000E-03 0.  1.
         11   -1    0    0    0    0 -0.00000000000E+00 -0.00000000000E+00 -0.45593999997E+02  0.45594000000E+02  0.51100000000E-03 0. -1.
    9900012    2    1    2    0    0  0.10586171680E+02  0.34494589052E+01  0.15056987665E+02  0.72461583495E+02  0.70000017197E+02 0.  0.
         12    1    1    2    0    0 -0.10586171680E+02 -0.34494589052E+01 -0.15056987665E+02  0.18726416505E+02  0.00000000000E+00 0. -1.
         11    1    3    3    0    0 -0.22171586258E+02 -0.62626922242E+01  0.63172039381E+01  0.23889487582E+02  0.51100000000E-03 0. -1.
        -11    1    3    3    0    0  0.19971222747E+02 -0.71026852723E+01  0.15648070183E+02  0.26346915888E+02  0.51100000000E-03 0.  1.
         12    1    3    3    0    0  0.12786535191E+02  0.16814836402E+02 -0.69082864561E+01  0.22225180025E+02  0.00000000000E+00 0. -1.
</event>
<event>
 7    1  0.3196678E-013  0.7246158E+02  0.7816164E-02  0.1226708E+00
        -11   -1    0    0    0    0  0.00000000000E+00  0.00000000000E+00  0.45593999997E+02  0.45594000000E+02  0.51100000000E-03 0. -1.
         11   -1    0    0    0    0 -0.00000000000E+00 -0.00000000000E+00 -0.45593999997E+02  0.45594000000E+02  0.51100000000E-03 0.  1.
    9900012    2    1    2    0    0  0.17608457993E+02 -0.83590667717E+00  0.63184110953E+01  0.72461578782E+02  0.70000011056E+02 0.  0.
         12    1    1    2    0    0 -0.17608457993E+02  0.83590667717E+00 -0.63184110953E+01  0.18726421218E+02  0.00000000000E+00 0. -1.
         11    1    3    3    0    0 -0.57110231828E+01 -0.15813815860E+02  0.23935257469E+01  0.16982977466E+02  0.51100000000E-03 0. -1.
        -11    1    3    3    0    0  0.17304556356E+02 -0.15582902231E+02 -0.32590923428E+01  0.23513744827E+02  0.51100000000E-03 0.  1.
         12    1    3    3    0    0  0.60149248201E+01  0.30560811414E+02  0.71839776913E+01  0.31964856489E+02  0.00000000000E+00 0. -1.
</event>
<event>
 7    1  0.3196678E-013  0.7246154E+02  0.7816164E-02  0.1226708E+00
        -11   -1    0    0    0    0  0.00000000000E+00  0.00000000000E+00  0.45593999997E+02  0.45594000000E+02  0.51100000000E-03 0. -1.
         11   -1    0    0    0    0 -0.00000000000E+00 -0.00000000000E+00 -0.45593999997E+02  0.45594000000E+02  0.51100000000E-03 0.  1.
    9900012    2    1    2    0    0  0.67707588464E+01 -0.33461966000E+01 -0.17135935193E+02  0.72461535252E+02  0.69999954350E+02 0.  0.
         12    1    1    2    0    0 -0.67707588464E+01  0.33461966000E+01  0.17135935193E+02  0.18726464748E+02  0.00000000000E+00 0. -1.
         11    1    3    3    0    0 -0.73100955396E+01 -0.87039470094E+00  0.15313428463E+01  0.75193147898E+01  0.51100000000E-03 0. -1.
        -11    1    3    3    0    0  0.17600993026E+01 -0.23809039767E+02 -0.29567731594E+02  0.38002882470E+02  0.51100000000E-03 0.  1.
         12    1    3    3    0    0  0.12320755083E+02  0.21333237868E+02  0.10900453555E+02  0.26939337992E+02  0.00000000000E+00 0. -1.
</event>
<event>
 7    1  0.3196678E-013  0.7246169E+02  0.7816164E-02  0.1226708E+00
        -11   -1    0    0    0    0  0.00000000000E+00  0.00000000000E+00  0.45593999997E+02  0.45594000000E+02  0.51100000000E-03 0.  1.
         11   -1    0    0    0    0 -0.00000000000E+00 -0.00000000000E+00 -0.45593999997E+02  0.45594000000E+02  0.51100000000E-03 0. -1.
    9900012    2    1    2    0    0  0.85521952970E+01  0.19270450982E+01  0.16547545631E+02  0.72461686598E+02  0.70000151507E+02 0.  0.
         12    1    1    2    0    0 -0.85521952970E+01 -0.19270450982E+01 -0.16547545631E+02  0.18726313402E+02  0.00000000000E+00 0. -1.
         11    1    3    3    0    0  0.69194294876E+01  0.23050861947E-01  0.77333107941E+01  0.10377048322E+02  0.51100000000E-03 0. -1.
        -11    1    3    3    0    0  0.83997686216E+01  0.52446555154E+01  0.34197952269E+02  0.35602843482E+02  0.51100000000E-03 0.  1.
         12    1    3    3    0    0 -0.67670028122E+01 -0.33406612791E+01 -0.25383717432E+02  0.26481794794E+02  0.00000000000E+00 0. -1.
</event>
<event>
 7    1  0.3196678E-013  0.7246158E+02  0.7816164E-02  0.1226708E+00
        -11   -1    0    0    0    0  0.00000000000E+00  0.00000000000E+00  0.45593999997E+02  0.45594000000E+02  0.51100000000E-03 0.  1.
         11   -1    0    0    0    0 -0.00000000000E+00 -0.00000000000E+00 -0.45593999997E+02  0.45594000000E+02  0.51100000000E-03 0. -1.
    9900012    2    1    2    0    0  0.36289550801E+01  0.12671455041E+02  0.13302019127E+02  0.72461580142E+02  0.70000012829E+02 0.  0.
         12    1    1    2    0    0 -0.36289550801E+01 -0.12671455041E+02 -0.13302019127E+02  0.18726419858E+02  0.00000000000E+00 0. -1.
         11    1    3    3    0    0  0.23660330641E+02 -0.29000486338E+01 -0.69556178167E+01  0.24831474938E+02  0.51100000000E-03 0. -1.
        -11    1    3    3    0    0  0.81335140357E+01  0.12309571153E+02  0.68408331132E+01  0.16262736255E+02  0.51100000000E-03 0.  1.
        -12    1    3    3    0    0 -0.28164889597E+02  0.32619325215E+01  0.13416803831E+02  0.31367368950E+02  0.00000000000E+00 0.  1.
</event>
<event>
 7    1  0.3196678E-013  0.7246148E+02  0.7816164E-02  0.1226708E+00
        -11   -1    0    0    0    0  0.00000000000E+00  0.00000000000E+00  0.45593999997E+02  0.45594000000E+02  0.51100000000E-03 0.  1.
         11   -1    0    0    0    0 -0.00000000000E+00 -0.00000000000E+00 -0.45593999997E+02  0.45594000000E+02  0.51100000000E-03 0. -1.
    9900012    2    1    2    0    0  0.71617462587E+01  0.79962189178E+01 -0.15344456795E+02  0.72461481883E+02  0.69999884827E+02 0.  0.
         12    1    1    2    0    0 -0.71617462587E+01 -0.79962189178E+01  0.15344456795E+02  0.18726518117E+02  0.00000000000E+00 0. -1.
         11    1    3    3    0    0  0.30773491018E+02 -0.10667693622E+02 -0.18768593417E+02  0.37590790571E+02  0.51100000000E-03 0. -1.
        -11    1    3    3    0    0 -0.39126309943E+01 -0.22732189845E+01  0.41129467191E+01  0.61149437303E+01  0.51100000000E-03 0.  1.
        -12    1    3    3    0    0 -0.19699113765E+02  0.20937131525E+02 -0.68881009798E+00  0.28755747581E+02  0.00000000000E+00 0.  1.
</event>
<event>
 7    1  0.3196678E-013  0.7246172E+02  0.7816164E-02  0.1226708E+00
        -11   -1    0    0    0    0  0.00000000000E+00  0.00000000000E+00  0.45593999997E+02  0.45594000000E+02  0.51100000000E-03 0. -1.
         11   -1    0    0    0    0 -0.00000000000E+00 -0.00000000000E+00 -0.45593999997E+02  0.45594000000E+02  0.51100000000E-03 0.  1.
    9900012    2    1    2    0    0  0.17205560696E+01  0.13854617694E+02 -0.12480493944E+02  0.72461722374E+02  0.70000198112E+02 0.  0.
         12    1    1    2    0    0 -0.17205560696E+01 -0.13854617694E+02  0.12480493944E+02  0.18726277626E+02  0.00000000000E+00 0. -1.
         11    1    3    3    0    0 -0.14016943289E+02 -0.52036886241E+01  0.64527040465E+01  0.16284669608E+02  0.51100000000E-03 0. -1.
        -11    1    3    3    0    0  0.91201757478E+01 -0.15065276329E+02 -0.27095107112E+01  0.17818013500E+02  0.51100000000E-03 0.  1.
        -12    1    3    3    0    0  0.66173236112E+01  0.34123582647E+02 -0.16223687279E+02  0.38359039266E+02  0.00000000000E+00 0.  1.
</event>
<event>
 7    1  0.3196678E-013  0.7246178E+02  0.7816164E-02  0.1226707E+00
        -11   -1    0    0    0    0  0.00000000000E+00  0.00000000000E+00  0.45593999997E+02  0.45594000000E+02  0.51100000000E-03 0.  1.
         11   -1    0    0    0    0 -0.00000000000E+00 -0.00000000000E+00 -0.45593999997E+02  0.45594000000E+02  0.51100000000E-03 0. -1.
    9900012    2    1    2    0    0 -0.29328548024E+00  0.12790689695E+02  0.13674186250E+02  0.72461784984E+02  0.70000279672E+02 0.  0.
         12    1    1    2    0    0  0.29328548024E+00 -0.12790689695E+02 -0.13674186250E+02  0.18726215016E+02  0.00000000000E+00 0. -1.
         11    1    3    3    0    0 -0.95080801777E+01  0.31101426433E+01 -0.12212915752E+02  0.15787079760E+02  0.51100000000E-03 0. -1.
        -11    1    3    3    0    0 -0.51539901306E+01 -0.13807064312E+02  0.25126907076E+02  0.29130054902E+02  0.51100000000E-03 0.  1.
         12    1    3    3    0    0  0.14368784828E+02  0.23487611364E+02  0.76019492562E+00  0.27544650321E+02  0.00000000000E+00 0. -1.
</event>
<event>
 7    1  0.3196678E-013  0.7246157E+02  0.7816164E-02  0.1226708E+00
        -11   -1    0    0    0    0  0.00000000000E+00  0.00000000000E+00  0.45593999997E+02  0.45594000000E+02  0.51100000000E-03 0.  1.
         11   -1    0    0    0    0 -0.00000000000E+00 -0.00000000000E+00 -0.45593999997E+02  0.45594000000E+02  0.51100000000E-03 0. -1.
    9900012    2    1    2    0    0 -0.10752878746E+01 -0.20213384617E+01  0.18585938025E+02  0.72461570937E+02  0.70000000837E+02 0.  0.
         12    1    1    2    0    0  0.10752878746E+01  0.20213384617E+01 -0.18585938025E+02  0.18726429063E+02  0.00000000000E+00 0. -1.
         11    1    3    3    0    0  0.13158155708E+02  0.40985203301E+01  0.64620510451E+01  0.15221466241E+02  0.51100000000E-03 0. -1.
        -11    1    3    3    0    0  0.77157523642E+01 -0.64212058852E+00 -0.17984303360E+02  0.19580100128E+02  0.51100000000E-03 0.  1.
        -12    1    3    3    0    0 -0.21949195947E+02 -0.54777382033E+01  0.30108190340E+02  0.37660004569E+02  0.00000000000E+00 0.  1.
</event>
<event>
 7    1  0.3196678E-013  0.7246158E+02  0.7816164E-02  0.1226708E+00
        -11   -1    0    0    0    0  0.00000000000E+00  0.00000000000E+00  0.45593999997E+02  0.45594000000E+02  0.51100000000E-03 0. -1.
         11   -1    0    0    0    0 -0.00000000000E+00 -0.00000000000E+00 -0.45593999997E+02  0.45594000000E+02  0.51100000000E-03 0.  1.
    9900012    2    1    2    0    0  0.27960697317E+01 -0.16717194094E+02 -0.79621721643E+01  0.72461580964E+02  0.70000013900E+02 0.  0.
         12    1    1    2    0    0 -0.27960697317E+01  0.16717194094E+02  0.79621721643E+01  0.18726419036E+02  0.00000000000E+00 0. -1.
         11    1    3    3    0    0  0.11917521120E+02 -0.20218104579E+02  0.15302977494E+01  0.23518947125E+02  0.51100000000E-03 0. -1.
        -11    1    3    3    0    0 -0.42733162219E+01 -0.12161533224E+02  0.14805260032E+02  0.19630584474E+02  0.51100000000E-03 0.  1.
        -12    1    3    3    0    0 -0.48481351663E+01  0.15662443709E+02 -0.24297729946E+02  0.29312049366E+02  0.00000000000E+00 0.  1.
</event>
<event>
 7    1  0.3196678E-013  0.7246148E+02  0.7816164E-02  0.1226708E+00
        -11   -1    0    0    0    0  0.00000000000E+00  0.00000000000E+00  0.45593999997E+02  0.45594000000E+02  0.51100000000E-03 0. -1.
         11   -1    0    0    0    0 -0.00000000000E+00 -0.00000000000E+00 -0.45593999997E+02  0.45594000000E+02  0.51100000000E-03 0.  1.
    9900012    2    1    2    0    0  0.49481721192E+01 -0.40289913648E+01 -0.17605836386E+02  0.72461477269E+02  0.69999878817E+02 0.  0.
         12    1    1    2    0    0 -0.49481721192E+01  0.40289913648E+01  0.17605836386E+02  0.18726522731E+02  0.00000000000E+00 0. -1.
         11    1    3    3    0    0  0.15066412759E+02  0.26622859842E+02  0.14922968232E+01  0.30626792350E+02  0.51100000000E-03 0. -1.
        -11    1    3    3    0    0 -0.48978114897E+01 -0.33588026222E+01  0.26936229184E+01  0.65211745208E+01  0.51100000000E-03 0.  1.
        -12    1    3    3    0    0 -0.52204291500E+01 -0.27293048584E+02 -0.21791756128E+02  0.35313510398E+02  0.00000000000E+00 0.  1.
</event>
<event>
 7    1  0.3196678E-013  0.7246157E+02  0.7816164E-02  0.1226708E+00
        -11   -1    0    0    0    0  0.00000000000E+00  0.00000000000E+00  0.45593999997E+02  0.45594000000E+02  0.51100000000E-03 0. -1.
         11   -1    0    0    0    0 -0.00000000000E+00 -0.00000000000E+00 -0.45593999997E+02  0.45594000000E+02  0.51100000000E-03 0.  1.
    9900012    2    1    2    0    0 -0.16949058369E+02  0.36856117190E+01 -0.70586722246E+01  0.72461570364E+02  0.70000000091E+02 0.  0.
         12    1    1    2    0    0  0.16949058369E+02 -0.36856117190E+01  0.70586722246E+01  0.18726429636E+02  0.00000000000E+00 0. -1.
         11    1    3    3    0    0  0.55168280689E+01  0.19823683443E+02  0.77305504063E+01  0.21981247167E+02  0.51100000000E-03 0. -1.
        -11    1    3    3    0    0 -0.21260903505E+02 -0.46950848991E+01  0.93832935748E+01  0.23708986453E+02  0.51100000000E-03 0.  1.
         12    1    3    3    0    0 -0.12049829325E+01 -0.11442986825E+02 -0.24172516206E+02  0.26771336744E+02  0.00000000000E+00 0. -1.
</event>
<event>
 7    1  0.3196678E-013  0.7246152E+02  0.7816164E-02  0.1226708E+00
        -11   -1    0    0    0    0  0.00000000000E+00  0.00000000000E+00  0.45593999997E+02  0.45594000000E+02  0.51100000000E-03 0.  1.
         11   -1    0    0    0    0 -0.00000000000E+00 -0.00000000000E+00 -0.45593999997E+02  0.45594000000E+02  0.51100000000E-03 0. -1.
    9900012    2    1    2    0    0  0.13933757149E+02 -0.67579286795E+01  0.10529094035E+02  0.72461521166E+02  0.69999936001E+02 0.  0.
         12    1    1    2    0    0 -0.13933757149E+02  0.67579286795E+01 -0.10529094035E+02  0.18726478834E+02  0.00000000000E+00 0. -1.
         11    1    3    3    0    0 -0.13785288679E+02 -0.15411332011E+02  0.38718285397E+01  0.21036501487E+02  0.51100000000E-03 0. -1.
        -11    1    3    3    0    0 -0.72524003590E+01 -0.90910372716E+01  0.31749236949E+01  0.12055057460E+02  0.51100000000E-03 0.  1.
        -12    1    3    3    0    0  0.34971446186E+02  0.17744440604E+02  0.34823418005E+01  0.39369962219E+02  0.00000000000E+00 0.  1.
</event>
<event>
 7    1  0.3196678E-013  0.7246166E+02  0.7816164E-02  0.1226708E+00
        -11   -1    0    0    0    0  0.00000000000E+00  0.00000000000E+00  0.45593999997E+02  0.45594000000E+02  0.51100000000E-03 0. -1.
         11   -1    0    0    0    0 -0.00000000000E+00 -0.00000000000E+00 -0.45593999997E+02  0.45594000000E+02  0.51100000000E-03 0.  1.
    9900012    2    1    2    0    0 -0.10729604291E+02  0.13756393197E+02  0.68053642170E+01  0.72461661753E+02  0.70000119141E+02 0.  0.
         12    1    1    2    0    0  0.10729604291E+02 -0.13756393197E+02 -0.68053642170E+01  0.18726338247E+02  0.00000000000E+00 0. -1.
         11    1    3    3    0    0  0.10469131699E+02  0.91034888837E+01  0.13283382292E+01  0.13937026623E+02  0.51100000000E-03 0. -1.
        -11    1    3    3    0    0 -0.20595872020E+02  0.24816044851E+01 -0.22415157099E+02  0.30541571229E+02  0.51100000000E-03 0.  1.
        -12    1    3    3    0    0 -0.60286397000E+00  0.21712998280E+01  0.27892183087E+02  0.27983063901E+02  0.00000000000E+00 0.  1.
</event>
<event>
 7    1  0.3196678E-013  0.7246155E+02  0.7816164E-02  0.1226708E+00
        -11   -1    0    0    0    0  0.00000000000E+00  0.00000000000E+00  0.45593999997E+02  0.45594000000E+02  0.51100000000E-03 0.  1.
         11   -1    0    0    0    0 -0.00000000000E+00 -0.00000000000E+00 -0.45593999997E+02  0.45594000000E+02  0.51100000000E-03 0. -1.
    9900012    2    1    2    0    0 -0.33563380924E+01 -0.46249715190E+01  0.17833244578E+02  0.72461548678E+02  0.69999971841E+02 0.  0.
         12    1    1    2    0    0  0.33563380924E+01  0.46249715190E+01 -0.17833244578E+02  0.18726451322E+02  0.00000000000E+00 0. -1.
         11    1    3    3    0    0 -0.17236432103E+02  0.41101322317E+01 -0.13082097937E+02  0.22025645627E+02  0.51100000000E-03 0. -1.
        -11    1    3    3    0    0  0.88364549059E+01 -0.10636634251E+02 -0.45543773403E+01  0.14558958641E+02  0.51100000000E-03 0.  1.
        -12    1    3    3    0    0  0.50436391042E+01  0.19015304999E+01  0.35469719855E+02  0.35876944411E+02  0.00000000000E+00 0.  1.
</event>
<event>
 7    1  0.3196678E-013  0.7246157E+02  0.7816164E-02  0.1226708E+00
        -11   -1    0    0    0    0  0.00000000000E+00  0.00000000000E+00  0.45593999997E+02  0.45594000000E+02  0.51100000000E-03 0.  1.
         11   -1    0    0    0    0 -0.00000000000E+00 -0.00000000000E+00 -0.45593999997E+02  0.45594000000E+02  0.51100000000E-03 0. -1.
    9900012    2    1    2    0    0  0.54054381276E+01  0.98148245781E+01  0.15004326090E+02  0.72461565629E+02  0.69999993922E+02 0.  0.
         12    1    1    2    0    0 -0.54054381276E+01 -0.98148245781E+01 -0.15004326090E+02  0.18726434371E+02  0.00000000000E+00 0. -1.
         11    1    3    3    0    0  0.36153145516E+01 -0.12050924056E+02  0.22238038866E+02  0.25550452888E+02  0.51100000000E-03 0. -1.
        -11    1    3    3    0    0 -0.65547065794E+01  0.92610841027E+01  0.15744269212E+02  0.19406541948E+02  0.51100000000E-03 0.  1.
        -12    1    3    3    0    0  0.83448301553E+01  0.12604664532E+02 -0.22977981988E+02  0.27504570793E+02  0.00000000000E+00 0.  1.
</event>
<event>
 7    1  0.3606207E-013  0.7246139E+02  0.7816164E-02  0.1226708E+00
        -11   -1    0    0    0    0  0.00000000000E+00  0.00000000000E+00  0.45593999997E+02  0.45594000000E+02  0.51100000000E-03 0. -1.
         11   -1    0    0    0    0 -0.00000000000E+00 -0.00000000000E+00 -0.45593999997E+02  0.45594000000E+02  0.51100000000E-03 0.  1.
    9900012    2    1    2    0    0 -0.65686208541E+01 -0.68809465294E+01 -0.16130457050E+02  0.72461391933E+02  0.69999767650E+02 0.  0.
         12    1    1    2    0    0  0.65686208541E+01  0.68809465294E+01  0.16130457050E+02  0.18726608067E+02  0.00000000000E+00 0. -1.
         11    1    3    3    0    0 -0.50644016974E+01 -0.12725520570E+02  0.44971966176E+00  0.13703623111E+02  0.51100000000E-03 0. -1.
        -11    1    3    3    0    0 -0.75072532458E+01 -0.16733183280E+02 -0.27432127943E+02  0.32998180521E+02  0.51100000000E-03 0.  1.
         12    1    3    3    0    0  0.60030340891E+01  0.22577757320E+02  0.10851951231E+02  0.25759588301E+02  0.00000000000E+00 0. -1.
</event>
<event>
 7    1  0.3196678E-013  0.7246160E+02  0.7816164E-02  0.1226708E+00
        -11   -1    0    0    0    0  0.00000000000E+00  0.00000000000E+00  0.45593999997E+02  0.45594000000E+02  0.51100000000E-03 0.  1.
         11   -1    0    0    0    0 -0.00000000000E+00 -0.00000000000E+00 -0.45593999997E+02  0.45594000000E+02  0.51100000000E-03 0. -1.
    9900012    2    1    2    0    0  0.46574954107E+01  0.78954554990E+01  0.16329344874E+02  0.72461601920E+02  0.70000041199E+02 0.  0.
         12    1    1    2    0    0 -0.46574954107E+01 -0.78954554990E+01 -0.16329344874E+02  0.18726398080E+02  0.00000000000E+00 0. -1.
         11    1    3    3    0    0  0.13671214619E+02 -0.20009016385E+01 -0.12264467914E+01  0.13871189153E+02  0.51100000000E-03 0. -1.
        -11    1    3    3    0    0  0.18402534955E+02  0.26842912911E+01 -0.81663348581E+01  0.20311271201E+02  0.51100000000E-03 0.  1.
        -12    1    3    3    0    0 -0.27416254164E+02  0.72120658464E+01  0.25722126523E+02  0.38279141566E+02  0.00000000000E+00 0.  1.
</event>
<event>
 7    1  0.3196678E-013  0.7246156E+02  0.7816164E-02  0.1226708E+00
        -11   -1    0    0    0    0  0.00000000000E+00  0.00000000000E+00  0.45593999997E+02  0.45594000000E+02  0.51100000000E-03 0.  1.
         11   -1    0    0    0    0 -0.00000000000E+00 -0.00000000000E+00 -0.45593999997E+02  0.45594000000E+02  0.51100000000E-03 0. -1.
    9900012    2    1    2    0    0 -0.17725932441E+02  0.49232721139E+01  0.34974481343E+01  0.72461563268E+02  0.69999990847E+02 0.  0.
         12    1    1    2    0    0  0.17725932441E+02 -0.49232721139E+01 -0.34974481343E+01  0.18726436732E+02  0.00000000000E+00 0. -1.
         11    1    3    3    0    0  0.95917811260E+01 -0.16498313793E+02  0.77705919216E+01  0.20605308109E+02  0.51100000000E-03 0. -1.
        -11    1    3    3    0    0 -0.14625449332E+02  0.27018708479E+02  0.96493164433E+01  0.32202852111E+02  0.51100000000E-03 0.  1.
         12    1    3    3    0    0 -0.12692264235E+02 -0.55971225720E+01 -0.13922460231E+02  0.19653403048E+02  0.00000000000E+00 0. -1.
</event>
<event>
 7    1  0.3196678E-013  0.7246102E+02  0.7816164E-02  0.1226709E+00
        -11   -1    0    0    0    0  0.00000000000E+00  0.00000000000E+00  0.45593999997E+02  0.45594000000E+02  0.51100000000E-03 0.  1.
         11   -1    0    0    0    0 -0.00000000000E+00 -0.00000000000E+00 -0.45593999997E+02  0.45594000000E+02  0.51100000000E-03 0. -1.
    9900012    2    1    2    0    0 -0.80379397025E+00 -0.15366279908E+02  0.10673848928E+02  0.72461022297E+02  0.69999286128E+02 0.  0.
         12    1    1    2    0    0  0.80379397025E+00  0.15366279908E+02 -0.10673848928E+02  0.18726977703E+02  0.00000000000E+00 0. -1.
         11    1    3    3    0    0  0.50815052916E+01 -0.86132411519E+01 -0.16720393186E+02  0.19482842907E+02  0.51100000000E-03 0. -1.
        -11    1    3    3    0    0 -0.19966341902E+02 -0.18273235238E+02  0.14766406193E+02  0.30832007511E+02  0.51100000000E-03 0.  1.
         12    1    3    3    0    0  0.14081042641E+02  0.11520196482E+02  0.12627835922E+02  0.22146171879E+02  0.00000000000E+00 0. -1.
</event>
<event>
 7    1  0.3196678E-013  0.7246158E+02  0.7816164E-02  0.1226708E+00
        -11   -1    0    0    0    0  0.00000000000E+00  0.00000000000E+00  0.45593999997E+02  0.45594000000E+02  0.51100000000E-03 0. -1.
         11   -1    0    0    0    0 -0.00000000000E+00 -0.00000000000E+00 -0.45593999997E+02  0.45594000000E+02  0.51100000000E-03 0.  1.
    9900012    2    1    2    0    0 -0.12943109246E+02  0.16080821434E+01 -0.13437588840E+02  0.72461580188E+02  0.70000012888E+02 0.  0.
         12    1    1    2    0    0  0.12943109246E+02 -0.16080821434E+01  0.13437588840E+02  0.18726419812E+02  0.00000000000E+00 0. -1.
         11    1    3    3    0    0 -0.98430794865E+01  0.25731463840E+02  0.15238755801E+02  0.31483553227E+02  0.51100000000E-03 0. -1.
        -11    1    3    3    0    0 -0.88604861839E+01 -0.73047056877E+01 -0.10704580377E+02  0.15698884735E+02  0.51100000000E-03 0.  1.
        -12    1    3    3    0    0  0.57604564245E+01 -0.16818676009E+02 -0.17971764264E+02  0.25279142226E+02  0.00000000000E+00 0.  1.
</event>
<event>
 7    1  0.3196678E-013  0.7246142E+02  0.7816164E-02  0.1226708E+00
        -11   -1    0    0    0    0  0.00000000000E+00  0.00000000000E+00  0.45593999997E+02  0.45594000000E+02  0.51100000000E-03 0.  1.
         11   -1    0    0    0    0 -0.00000000000E+00 -0.00000000000E+00 -0.45593999997E+02  0.45594000000E+02  0.51100000000E-03 0. -1.
    9900012    2    1    2    0    0  0.13870791413E+02 -0.12362195043E+02  0.23370735030E+01  0.72461424412E+02  0.69999809961E+02 0.  0.
         12    1    1    2    0    0 -0.13870791413E+02  0.12362195043E+02 -0.23370735030E+01  0.18726575588E+02  0.00000000000E+00 0. -1.
         11    1    3    3    0    0  0.19726551989E+01 -0.55341252046E-01 -0.93839409546E+00  0.21851807540E+01  0.51100000000E-03 0. -1.
        -11    1    3    3    0    0 -0.19165993830E+02  0.13811243651E+02  0.15058959248E+02  0.28015317677E+02  0.51100000000E-03 0.  1.
         12    1    3    3    0    0  0.31064130043E+02 -0.26118097442E+02 -0.11783491649E+02  0.42260925981E+02  0.00000000000E+00 0. -1.
</event>
<event>
 7    1  0.3196678E-013  0.7246158E+02  0.7816164E-02  0.1226708E+00
        -11   -1    0    0    0    0  0.00000000000E+00  0.00000000000E+00  0.45593999997E+02  0.45594000000E+02  0.51100000000E-03 0.  1.
         11   -1    0    0    0    0 -0.00000000000E+00 -0.00000000000E+00 -0.45593999997E+02  0.45594000000E+02  0.51100000000E-03 0. -1.
    9900012    2    1    2    0    0  0.13811404289E+02 -0.11692550784E+02  0.48174819056E+01  0.72461581117E+02  0.70000014099E+02 0.  0.
         12    1    1    2    0    0 -0.13811404289E+02  0.11692550784E+02 -0.48174819056E+01  0.18726418883E+02  0.00000000000E+00 0. -1.
         11    1    3    3    0    0 -0.70425448161E+01 -0.13112902458E+02  0.18078058584E+02  0.23417127296E+02  0.51100000000E-03 0. -1.
        -11    1    3    3    0    0  0.11687794140E+02 -0.20172984604E+02 -0.32506561845E+01  0.23539766473E+02  0.51100000000E-03 0.  1.
         12    1    3    3    0    0  0.91661549650E+01  0.21593336278E+02 -0.10009920494E+02  0.25504687349E+02  0.00000000000E+00 0. -1.
</event>
<event>
 7    1  0.3196678E-013  0.7246187E+02  0.7816164E-02  0.1226707E+00
        -11   -1    0    0    0    0  0.00000000000E+00  0.00000000000E+00  0.45593999997E+02  0.45594000000E+02  0.51100000000E-03 0.  1.
         11   -1    0    0    0    0 -0.00000000000E+00 -0.00000000000E+00 -0.45593999997E+02  0.45594000000E+02  0.51100000000E-03 0. -1.
    9900012    2    1    2    0    0 -0.13699983605E+02 -0.22706184275E+01  0.12562752524E+02  0.72461868264E+02  0.70000388160E+02 0.  0.
         12    1    1    2    0    0  0.13699983605E+02  0.22706184275E+01 -0.12562752524E+02  0.18726131736E+02  0.00000000000E+00 0. -1.
         11    1    3    3    0    0 -0.25921557890E+02  0.59882299561E+01 -0.34491109642E+01  0.26826897475E+02  0.51100000000E-03 0. -1.
        -11    1    3    3    0    0 -0.10735069298E+02 -0.12982367363E+02  0.14366022035E+02  0.22139696578E+02  0.51100000000E-03 0.  1.
        -12    1    3    3    0    0  0.22956643583E+02  0.47235189798E+01  0.16458414524E+01  0.23495274210E+02  0.00000000000E+00 0.  1.
</event>
<event>
 7    1  0.3196678E-013  0.7246158E+02  0.7816164E-02  0.1226708E+00
        -11   -1    0    0    0    0  0.00000000000E+00  0.00000000000E+00  0.45593999997E+02  0.45594000000E+02  0.51100000000E-03 0.  1.
         11   -1    0    0    0    0 -0.00000000000E+00 -0.00000000000E+00 -0.45593999997E+02  0.45594000000E+02  0.51100000000E-03 0. -1.
    9900012    2    1    2    0    0 -0.15322407374E+02  0.10621569784E+01  0.10713281210E+02  0.72461581777E+02  0.70000014958E+02 0.  0.
         12    1    1    2    0    0  0.15322407374E+02 -0.10621569784E+01 -0.10713281210E+02  0.18726418223E+02  0.00000000000E+00 0. -1.
         11    1    3    3    0    0 -0.12753379522E+01  0.60255068798E+01 -0.77091841155E+00  0.62070553010E+01  0.51100000000E-03 0. -1.
        -11    1    3    3    0    0  0.52286359488E+01  0.20073930266E+02 -0.14529613402E+02  0.25326092792E+02  0.51100000000E-03 0.  1.
         12    1    3    3    0    0 -0.19275705371E+02 -0.25037280168E+02  0.26013813024E+02  0.40928433684E+02  0.00000000000E+00 0. -1.
</event>
<event>
 7    1  0.3196678E-013  0.7246163E+02  0.7816164E-02  0.1226708E+00
        -11   -1    0    0    0    0  0.00000000000E+00  0.00000000000E+00  0.45593999997E+02  0.45594000000E+02  0.51100000000E-03 0. -1.
         11   -1    0    0    0    0 -0.00000000000E+00 -0.00000000000E+00 -0.45593999997E+02  0.45594000000E+02  0.51100000000E-03 0.  1.
    9900012    2    1    2    0    0  0.27531961234E+01  0.57922983427E+01 -0.17593923639E+02  0.72461629343E+02  0.70000076921E+02 0.  0.
         12    1    1    2    0    0 -0.27531961234E+01 -0.57922983427E+01  0.17593923639E+02  0.18726370657E+02  0.00000000000E+00 0. -1.
         11    1    3    3    0    0  0.93801851961E+01  0.24822455863E+02 -0.22146139184E+02  0.34562894416E+02  0.51100000000E-03 0. -1.
        -11    1    3    3    0    0 -0.16600206147E+02 -0.91007686058E+01 -0.64876075653E+01  0.20011993542E+02  0.51100000000E-03 0.  1.
         12    1    3    3    0    0  0.99732170749E+01 -0.99293889146E+01  0.11039823110E+02  0.17886741384E+02  0.00000000000E+00 0. -1.
</event>
<event>
 7    1  0.3196678E-013  0.7246138E+02  0.7816164E-02  0.1226709E+00
        -11   -1    0    0    0    0  0.00000000000E+00  0.00000000000E+00  0.45593999997E+02  0.45594000000E+02  0.51100000000E-03 0. -1.
         11   -1    0    0    0    0 -0.00000000000E+00 -0.00000000000E+00 -0.45593999997E+02  0.45594000000E+02  0.51100000000E-03 0.  1.
    9900012    2    1    2    0    0 -0.73664261953E+01  0.15579042748E+02 -0.73290806583E+01  0.72461381749E+02  0.69999754384E+02 0.  0.
         12    1    1    2    0    0  0.73664261953E+01 -0.15579042748E+02  0.73290806583E+01  0.18726618251E+02  0.00000000000E+00 0. -1.
         11    1    3    3    0    0 -0.11082943885E+02  0.65619258925E+01  0.35713432747E+01  0.13365814963E+02  0.51100000000E-03 0. -1.
        -11    1    3    3    0    0 -0.11617275846E+02  0.28033091428E+02 -0.15752860121E+02  0.34190172790E+02  0.51100000000E-03 0.  1.
        -12    1    3    3    0    0  0.15333793536E+02 -0.19015974573E+02  0.48524361884E+01  0.24905393996E+02  0.00000000000E+00 0.  1.
</event>
<event>
 7    1  0.3196678E-013  0.7246158E+02  0.7816164E-02  0.1226708E+00
        -11   -1    0    0    0    0  0.00000000000E+00  0.00000000000E+00  0.45593999997E+02  0.45594000000E+02  0.51100000000E-03 0.  1.
         11   -1    0    0    0    0 -0.00000000000E+00 -0.00000000000E+00 -0.45593999997E+02  0.45594000000E+02  0.51100000000E-03 0. -1.
    9900012    2    1    2    0    0  0.12126642345E+02 -0.68671356501E+01  0.12508630388E+02  0.72461579071E+02  0.70000011434E+02 0.  0.
         12    1    1    2    0    0 -0.12126642345E+02  0.68671356501E+01 -0.12508630388E+02  0.18726420929E+02  0.00000000000E+00 0. -1.
         11    1    3    3    0    0  0.14258549102E+02 -0.82632344249E+01 -0.47728518706E+01  0.17157137900E+02  0.51100000000E-03 0. -1.
        -11    1    3    3    0    0  0.18139718602E+02  0.72553448380E+00  0.27219293843E+02  0.32717972872E+02  0.51100000000E-03 0.  1.
         12    1    3    3    0    0 -0.20271625359E+02  0.67056429095E+00 -0.99378115847E+01  0.22586468300E+02  0.00000000000E+00 0. -1.
</event>
<event>
 7    1  0.3196678E-013  0.7246159E+02  0.7816164E-02  0.1226708E+00
        -11   -1    0    0    0    0  0.00000000000E+00  0.00000000000E+00  0.45593999997E+02  0.45594000000E+02  0.51100000000E-03 0.  1.
         11   -1    0    0    0    0 -0.00000000000E+00 -0.00000000000E+00 -0.45593999997E+02  0.45594000000E+02  0.51100000000E-03 0. -1.
    9900012    2    1    2    0    0 -0.16211005944E+02  0.11502150678E+01  0.93037034607E+01  0.72461585327E+02  0.70000019583E+02 0.  0.
         12    1    1    2    0    0  0.16211005944E+02 -0.11502150678E+01 -0.93037034607E+01  0.18726414673E+02  0.00000000000E+00 0. -1.
         11    1    3    3    0    0 -0.48300993481E+00 -0.36641251188E+01 -0.17546656656E+02  0.17931655572E+02  0.51100000000E-03 0. -1.
        -11    1    3    3    0    0 -0.12519199779E+02  0.15231255585E+02 -0.54373170022E+01  0.20452039660E+02  0.51100000000E-03 0.  1.
        -12    1    3    3    0    0 -0.32087962306E+01 -0.10416915398E+02  0.32287677119E+02  0.34077890096E+02  0.00000000000E+00 0.  1.
</event>
<event>
 7    1  0.3196678E-013  0.7246153E+02  0.7816164E-02  0.1226708E+00
        -11   -1    0    0    0    0  0.00000000000E+00  0.00000000000E+00  0.45593999997E+02  0.45594000000E+02  0.51100000000E-03 0. -1.
         11   -1    0    0    0    0 -0.00000000000E+00 -0.00000000000E+00 -0.45593999997E+02  0.45594000000E+02  0.51100000000E-03 0.  1.
    9900012    2    1    2    0    0  0.14953821643E+02 -0.93652549823E+01 -0.62734172833E+01  0.72461533515E+02  0.69999952088E+02 0.  0.
         12    1    1    2    0    0 -0.14953821643E+02  0.93652549823E+01  0.62734172833E+01  0.18726466485E+02  0.00000000000E+00 0. -1.
         11    1    3    3    0    0  0.11627380288E+02 -0.15722745187E+01  0.89116034833E+01  0.14733794366E+02  0.51100000000E-03 0. -1.
        -11    1    3    3    0    0  0.28981510622E+02 -0.54267966008E+01 -0.11731460037E+02  0.31733345776E+02  0.51100000000E-03 0.  1.
        -12    1    3    3    0    0 -0.25655069266E+02 -0.23661838629E+01 -0.34535607296E+01  0.25994393373E+02  0.00000000000E+00 0.  1.
</event>
<event>
 7    1  0.3196678E-013  0.7246144E+02  0.7816164E-02  0.1226708E+00
        -11   -1    0    0    0    0  0.00000000000E+00  0.00000000000E+00  0.45593999997E+02  0.45594000000E+02  0.51100000000E-03 0.  1.
         11   -1    0    0    0    0 -0.00000000000E+00 -0.00000000000E+00 -0.45593999997E+02  0.45594000000E+02  0.51100000000E-03 0. -1.
    9900012    2    1    2    0    0  0.25058018892E+01 -0.50935516834E+01  0.17845473128E+02  0.72461435365E+02  0.69999824230E+02 0.  0.
         12    1    1    2    0    0 -0.25058018892E+01  0.50935516834E+01 -0.17845473128E+02  0.18726564635E+02  0.00000000000E+00 0. -1.
         11    1    3    3    0    0 -0.74682526085E+01  0.20483657824E+02 -0.12718925513E+01  0.21839705717E+02  0.51100000000E-03 0. -1.
        -11    1    3    3    0    0  0.65277212043E+01  0.89924575193E+01  0.93805961906E+01  0.14542043237E+02  0.51100000000E-03 0.  1.
        -12    1    3    3    0    0  0.34463332934E+01 -0.34569667027E+02  0.97367694883E+01  0.36079686412E+02  0.00000000000E+00 0.  1.
</event>
<event>
 7    1  0.3196678E-013  0.7246158E+02  0.7816164E-02  0.1226708E+00
        -11   -1    0    0    0    0  0.00000000000E+00  0.00000000000E+00  0.45593999997E+02  0.45594000000E+02  0.51100000000E-03 0.  1.
         11   -1    0    0    0    0 -0.00000000000E+00 -0.00000000000E+00 -0.45593999997E+02  0.45594000000E+02  0.51100000000E-03 0. -1.
    9900012    2    1    2    0    0  0.15542979858E+02  0.69553972429E+01  0.77921168130E+01  0.72461578609E+02  0.70000010832E+02 0.  0.
         12    1    1    2    0    0 -0.15542979858E+02 -0.69553972429E+01 -0.77921168130E+01  0.18726421391E+02  0.00000000000E+00 0. -1.
         11    1    3    3    0    0  0.85551238994E+01  0.94211439022E+01 -0.24914850021E+02  0.27976737644E+02  0.51100000000E-03 0. -1.
        -11    1    3    3    0    0 -0.20792757439E+01  0.77532769028E+01 -0.10239717153E+01  0.80922931661E+01  0.51100000000E-03 0.  1.
        -12    1    3    3    0    0  0.90671317025E+01 -0.10219023562E+02  0.33730938550E+02  0.36392547799E+02  0.00000000000E+00 0.  1.
</event>
<event>
 7    1  0.3196678E-013  0.7246158E+02  0.7816164E-02  0.1226708E+00
        -11   -1    0    0    0    0  0.00000000000E+00  0.00000000000E+00  0.45593999997E+02  0.45594000000E+02  0.51100000000E-03 0.  1.
         11   -1    0    0    0    0 -0.00000000000E+00 -0.00000000000E+00 -0.45593999997E+02  0.45594000000E+02  0.51100000000E-03 0. -1.
    9900012    2    1    2    0    0 -0.11280795770E+02 -0.71456674377E+01  0.13128664464E+02  0.72461581578E+02  0.70000014698E+02 0.  0.
         12    1    1    2    0    0  0.11280795770E+02  0.71456674377E+01 -0.13128664464E+02  0.18726418422E+02  0.00000000000E+00 0. -1.
         11    1    3    3    0    0 -0.33552964720E+02 -0.16973192476E+02  0.13755655967E+02  0.40038840839E+02  0.51100000000E-03 0. -1.
        -11    1    3    3    0    0  0.87717980697E+01 -0.67173966883E+01 -0.66907143011E+00  0.11068672752E+02  0.51100000000E-03 0.  1.
        -12    1    3    3    0    0  0.13500370881E+02  0.16544921727E+02  0.42079926943E-01  0.21354067987E+02  0.00000000000E+00 0.  1.
</event>
<event>
 7    1  0.3196678E-013  0.7246152E+02  0.7816164E-02  0.1226708E+00
        -11   -1    0    0    0    0  0.00000000000E+00  0.00000000000E+00  0.45593999997E+02  0.45594000000E+02  0.51100000000E-03 0.  1.
         11   -1    0    0    0    0 -0.00000000000E+00 -0.00000000000E+00 -0.45593999997E+02  0.45594000000E+02  0.51100000000E-03 0. -1.
    9900012    2    1    2    0    0  0.97130491540E+01  0.88826075029E+01  0.13320551295E+02  0.72461518037E+02  0.69999931925E+02 0.  0.
         12    1    1    2    0    0 -0.97130491540E+01 -0.88826075029E+01 -0.13320551295E+02  0.18726481963E+02  0.00000000000E+00 0. -1.
         11    1    3    3    0    0  0.11004853058E+02 -0.99243725716E+01 -0.15515768632E+02  0.21455513004E+02  0.51100000000E-03 0. -1.
        -11    1    3    3    0    0  0.63703119607E+01 -0.13120924622E+00 -0.71797009378E+01  0.95992810231E+01  0.51100000000E-03 0.  1.
        -12    1    3    3    0    0 -0.76621158646E+01  0.18938189321E+02  0.36016020865E+02  0.41406724010E+02  0.00000000000E+00 0.  1.
</event>
<event>
 7    1  0.3196678E-013  0.7246158E+02  0.7816164E-02  0.1226708E+00
        -11   -1    0    0    0    0  0.00000000000E+00  0.00000000000E+00  0.45593999997E+02  0.45594000000E+02  0.51100000000E-03 0.  1.
         11   -1    0    0    0    0 -0.00000000000E+00 -0.00000000000E+00 -0.45593999997E+02  0.45594000000E+02  0.51100000000E-03 0. -1.
    9900012    2    1    2    0    0  0.17667556810E+02  0.15101933449E+01  0.60212618802E+01  0.72461579034E+02  0.70000011385E+02 0.  0.
         12    1    1    2    0    0 -0.17667556810E+02 -0.15101933449E+01 -0.60212618802E+01  0.18726420966E+02  0.00000000000E+00 0. -1.
         11    1    3    3    0    0  0.40738676191E+02  0.34232641545E+01 -0.76698089931E+01  0.41595485879E+02  0.51100000000E-03 0.  1.
        -11    1    3    3    0    0 -0.91009202064E+01 -0.37793462966E+01 -0.16962736243E+01  0.99993775557E+01  0.51100000000E-03 0. -1.
        -12    1    3    3    0    0 -0.13970199175E+02  0.18662754869E+01  0.15387344498E+02  0.20866715598E+02  0.00000000000E+00 0.  1.
</event>
<event>
 7    1  0.3196678E-013  0.7246155E+02  0.7816164E-02  0.1226708E+00
        -11   -1    0    0    0    0  0.00000000000E+00  0.00000000000E+00  0.45593999997E+02  0.45594000000E+02  0.51100000000E-03 0.  1.
         11   -1    0    0    0    0 -0.00000000000E+00 -0.00000000000E+00 -0.45593999997E+02  0.45594000000E+02  0.51100000000E-03 0. -1.
    9900012    2    1    2    0    0 -0.94370771813E+01 -0.35649690321E+01  0.15776960622E+02  0.72461550353E+02  0.69999974022E+02 0.  0.
         12    1    1    2    0    0  0.94370771813E+01  0.35649690321E+01 -0.15776960622E+02  0.18726449647E+02  0.00000000000E+00 0. -1.
         11    1    3    3    0    0 -0.67996253558E+01 -0.39511253756E+01  0.10550613882E+01  0.79346992070E+01  0.51100000000E-03 0. -1.
        -11    1    3    3    0    0 -0.31232150391E+02  0.82973596217E+01  0.12922238464E+02  0.34803414228E+02  0.51100000000E-03 0.  1.
         12    1    3    3    0    0  0.28594698565E+02 -0.79112032782E+01  0.17996607700E+01  0.29723436918E+02  0.00000000000E+00 0. -1.
</event>
<event>
 7    1  0.3196678E-013  0.7246159E+02  0.7816164E-02  0.1226708E+00
        -11   -1    0    0    0    0  0.00000000000E+00  0.00000000000E+00  0.45593999997E+02  0.45594000000E+02  0.51100000000E-03 0. -1.
         11   -1    0    0    0    0 -0.00000000000E+00 -0.00000000000E+00 -0.45593999997E+02  0.45594000000E+02  0.51100000000E-03 0.  1.
    9900012    2    1    2    0    0 -0.95910303199E+01  0.25536478691E+01 -0.15879844659E+02  0.72461589601E+02  0.70000025150E+02 0.  0.
         12    1    1    2    0    0  0.95910303199E+01 -0.25536478691E+01  0.15879844659E+02  0.18726410399E+02  0.00000000000E+00 0. -1.
         11    1    3    3    0    0  0.35650576158E+01 -0.29950847963E+01 -0.19166953474E+02  0.19724408090E+02  0.51100000000E-03 0. -1.
        -11    1    3    3    0    0 -0.10518545926E+02  0.22164097728E+02 -0.14302041019E+02  0.28397806501E+02  0.51100000000E-03 0.  1.
         12    1    3    3    0    0 -0.26375420096E+01 -0.16615365062E+02  0.17589149834E+02  0.24339375010E+02  0.00000000000E+00 0. -1.
</event>
<event>
 7    1  0.3196678E-013  0.7246171E+02  0.7816164E-02  0.1226708E+00
        -11   -1    0    0    0    0  0.00000000000E+00  0.00000000000E+00  0.45593999997E+02  0.45594000000E+02  0.51100000000E-03 0. -1.
         11   -1    0    0    0    0 -0.00000000000E+00 -0.00000000000E+00 -0.45593999997E+02  0.45594000000E+02  0.51100000000E-03 0.  1.
    9900012    2    1    2    0    0  0.10957092564E+02  0.33470472301E+01 -0.14812609995E+02  0.72461707856E+02  0.70000179199E+02 0.  0.
         12    1    1    2    0    0 -0.10957092564E+02 -0.33470472301E+01  0.14812609995E+02  0.18726292144E+02  0.00000000000E+00 0. -1.
         11    1    3    3    0    0  0.42854114116E+01  0.17512695139E+02 -0.19067179686E+02  0.26241504977E+02  0.51100000000E-03 0. -1.
        -11    1    3    3    0    0  0.10037176220E+02  0.95319769786E+01 -0.11134418394E+02  0.17764536719E+02  0.51100000000E-03 0.  1.
         12    1    3    3    0    0 -0.33654950674E+01 -0.23697624887E+02  0.15388988086E+02  0.28455666160E+02  0.00000000000E+00 0. -1.
</event>
<event>
 7    1  0.3196678E-013  0.7246157E+02  0.7816164E-02  0.1226708E+00
        -11   -1    0    0    0    0  0.00000000000E+00  0.00000000000E+00  0.45593999997E+02  0.45594000000E+02  0.51100000000E-03 0.  1.
         11   -1    0    0    0    0 -0.00000000000E+00 -0.00000000000E+00 -0.45593999997E+02  0.45594000000E+02  0.51100000000E-03 0. -1.
    9900012    2    1    2    0    0  0.51366304682E+01 -0.17122930843E+02  0.55766765956E+01  0.72461573350E+02  0.70000003981E+02 0.  0.
         12    1    1    2    0    0 -0.51366304682E+01  0.17122930843E+02 -0.55766765956E+01  0.18726426650E+02  0.00000000000E+00 0. -1.
         11    1    3    3    0    0  0.23404412891E+01 -0.27119670969E+02  0.72579233247E+01  0.28171469080E+02  0.51100000000E-03 0.  1.
        -11    1    3    3    0    0 -0.17432932870E+02  0.14115010830E+02 -0.59560530727E+01  0.23208085825E+02  0.51100000000E-03 0. -1.
         12    1    3    3    0    0  0.20229122049E+02 -0.41182707048E+01  0.42748063436E+01  0.21082018446E+02  0.00000000000E+00 0. -1.
</event>
<event>
 7    1  0.3196678E-013  0.7246153E+02  0.7816164E-02  0.1226708E+00
        -11   -1    0    0    0    0  0.00000000000E+00  0.00000000000E+00  0.45593999997E+02  0.45594000000E+02  0.51100000000E-03 0.  1.
         11   -1    0    0    0    0 -0.00000000000E+00 -0.00000000000E+00 -0.45593999997E+02  0.45594000000E+02  0.51100000000E-03 0. -1.
    9900012    2    1    2    0    0 -0.10536139657E+01 -0.12596177569E+02  0.13816899655E+02  0.72461534562E+02  0.69999953452E+02 0.  0.
         12    1    1    2    0    0  0.10536139657E+01  0.12596177569E+02 -0.13816899655E+02  0.18726465438E+02  0.00000000000E+00 0. -1.
         11    1    3    3    0    0  0.29428647844E+01  0.16302844039E+02 -0.28086846435E+01  0.16802734497E+02  0.51100000000E-03 0. -1.
        -11    1    3    3    0    0  0.75607412720E+01 -0.58846092536E+01  0.26421798506E+02  0.28105246329E+02  0.51100000000E-03 0.  1.
        -12    1    3    3    0    0 -0.11557220022E+02 -0.23014412354E+02 -0.97962142082E+01  0.27553553736E+02  0.00000000000E+00 0.  1.
</event>
<event>
 7    1  0.3196678E-013  0.7246161E+02  0.7816164E-02  0.1226708E+00
        -11   -1    0    0    0    0  0.00000000000E+00  0.00000000000E+00  0.45593999997E+02  0.45594000000E+02  0.51100000000E-03 0. -1.
         11   -1    0    0    0    0 -0.00000000000E+00 -0.00000000000E+00 -0.45593999997E+02  0.45594000000E+02  0.51100000000E-03 0.  1.
    9900012    2    1    2    0    0  0.86563071810E+01 -0.14948522726E+02 -0.72310124986E+01  0.72461614138E+02  0.70000057115E+02 0.  0.
         12    1    1    2    0    0 -0.86563071810E+01  0.14948522726E+02  0.72310124986E+01  0.18726385862E+02  0.00000000000E+00 0. -1.
         11    1    3    3    0    0  0.13570153076E+01 -0.11053700007E+02 -0.10370868878E+02  0.15217775657E+02  0.51100000000E-03 0. -1.
        -11    1    3    3    0    0 -0.21941337894E+02 -0.23109558933E+01 -0.11081963072E+02  0.24689526757E+02  0.51100000000E-03 0.  1.
         12    1    3    3    0    0  0.29240629767E+02 -0.15838668251E+01  0.14221819451E+02  0.32554311724E+02  0.00000000000E+00 0. -1.
</event>
<event>
 7    1  0.3196678E-013  0.7246131E+02  0.7816164E-02  0.1226709E+00
        -11   -1    0    0    0    0  0.00000000000E+00  0.00000000000E+00  0.45593999997E+02  0.45594000000E+02  0.51100000000E-03 0. -1.
         11   -1    0    0    0    0 -0.00000000000E+00 -0.00000000000E+00 -0.45593999997E+02  0.45594000000E+02  0.51100000000E-03 0.  1.
    9900012    2    1    2    0    0 -0.17338013294E+02  0.69500157074E+01  0.13339954467E+01  0.72461308697E+02  0.69999659220E+02 0.  0.
         12    1    1    2    0    0  0.17338013294E+02 -0.69500157074E+01 -0.13339954467E+01  0.18726691303E+02  0.00000000000E+00 0. -1.
         11    1    3    3    0    0 -0.80345969737E+01  0.90744356810E+01  0.60826613619E+01  0.13560932894E+02  0.51100000000E-03 0. -1.
        -11    1    3    3    0    0 -0.30088763133E+02  0.11511528980E+02 -0.95089245084E+01  0.33589709911E+02  0.51100000000E-03 0.  1.
         12    1    3    3    0    0  0.20785346813E+02 -0.13635948953E+02  0.47602585933E+01  0.25310665892E+02  0.00000000000E+00 0. -1.
</event>
<event>
 7    1  0.3196678E-013  0.7246157E+02  0.7816164E-02  0.1226708E+00
        -11   -1    0    0    0    0  0.00000000000E+00  0.00000000000E+00  0.45593999997E+02  0.45594000000E+02  0.51100000000E-03 0.  1.
         11   -1    0    0    0    0 -0.00000000000E+00 -0.00000000000E+00 -0.45593999997E+02  0.45594000000E+02  0.51100000000E-03 0. -1.
    9900012    2    1    2    0    0  0.14197916777E+02 -0.80725351194E+01  0.91614746681E+01  0.72461567287E+02  0.69999996082E+02 0.  0.
         12    1    1    2    0    0 -0.14197916777E+02  0.80725351194E+01 -0.91614746681E+01  0.18726432713E+02  0.00000000000E+00 0. -1.
         11    1    3    3    0    0 -0.39883191666E+01  0.70593273356E+01 -0.15053120320E+02  0.17097871910E+02  0.51100000000E-03 0. -1.
        -11    1    3    3    0    0 -0.92676247663E+01  0.38005743045E+01 -0.48479479700E+01  0.11128154997E+02  0.51100000000E-03 0.  1.
        -12    1    3    3    0    0  0.27453860710E+02 -0.18932436759E+02  0.29062542959E+02  0.44235540380E+02  0.00000000000E+00 0.  1.
</event>
<event>
 7    1  0.3196678E-013  0.7246161E+02  0.7816164E-02  0.1226708E+00
        -11   -1    0    0    0    0  0.00000000000E+00  0.00000000000E+00  0.45593999997E+02  0.45594000000E+02  0.51100000000E-03 0. -1.
         11   -1    0    0    0    0 -0.00000000000E+00 -0.00000000000E+00 -0.45593999997E+02  0.45594000000E+02  0.51100000000E-03 0.  1.
    9900012    2    1    2    0    0 -0.43900694023E+01  0.97962373184E+01 -0.15344008929E+02  0.72461612602E+02  0.70000055114E+02 0.  0.
         12    1    1    2    0    0  0.43900694023E+01 -0.97962373184E+01  0.15344008929E+02  0.18726387398E+02  0.00000000000E+00 0. -1.
         11    1    3    3    0    0 -0.38406195076E+00  0.38386657042E+01 -0.10454340494E+01  0.39969726773E+01  0.51100000000E-03 0. -1.
        -11    1    3    3    0    0  0.15488679251E+02  0.24309307008E+02 -0.26396340296E+02  0.39084630911E+02  0.51100000000E-03 0.  1.
         12    1    3    3    0    0 -0.19494686702E+02 -0.18351735394E+02  0.12097765416E+02  0.29380009014E+02  0.00000000000E+00 0. -1.
</event>
<event>
 7    1  0.3196678E-013  0.7246158E+02  0.7816164E-02  0.1226708E+00
        -11   -1    0    0    0    0  0.00000000000E+00  0.00000000000E+00  0.45593999997E+02  0.45594000000E+02  0.51100000000E-03 0. -1.
         11   -1    0    0    0    0 -0.00000000000E+00 -0.00000000000E+00 -0.45593999997E+02  0.45594000000E+02  0.51100000000E-03 0.  1.
    9900012    2    1    2    0    0 -0.40688845568E+00  0.46548809974E+01 -0.18134097349E+02  0.72461575836E+02  0.70000007219E+02 0.  0.
         12    1    1    2    0    0  0.40688845568E+00 -0.46548809974E+01  0.18134097349E+02  0.18726424164E+02  0.00000000000E+00 0. -1.
         11    1    3    3    0    0  0.18501836695E+01  0.11645151411E+02 -0.21744368508E+01  0.11990033648E+02  0.51100000000E-03 0. -1.
        -11    1    3    3    0    0  0.82509208640E+01  0.11294781400E+02 -0.31373110336E+02  0.34349990311E+02  0.51100000000E-03 0.  1.
        -12    1    3    3    0    0 -0.10507992989E+02 -0.18285051814E+02  0.15413449838E+02  0.26121551876E+02  0.00000000000E+00 0.  1.
</event>
<event>
 7    1  0.3196678E-013  0.7246157E+02  0.7816164E-02  0.1226708E+00
        -11   -1    0    0    0    0  0.00000000000E+00  0.00000000000E+00  0.45593999997E+02  0.45594000000E+02  0.51100000000E-03 0.  1.
         11   -1    0    0    0    0 -0.00000000000E+00 -0.00000000000E+00 -0.45593999997E+02  0.45594000000E+02  0.51100000000E-03 0. -1.
    9900012    2    1    2    0    0  0.97101798681E+01  0.11790415567E+02  0.10834099733E+02  0.72461569231E+02  0.69999998615E+02 0.  0.
         12    1    1    2    0    0 -0.97101798681E+01 -0.11790415567E+02 -0.10834099733E+02  0.18726430769E+02  0.00000000000E+00 0. -1.
         11    1    3    3    0    0 -0.13089628004E+02  0.28020883078E+01 -0.36592819346E+01  0.13877334207E+02  0.51100000000E-03 0. -1.
        -11    1    3    3    0    0  0.28699557264E+02  0.15880523566E+02 -0.84847666096E+01  0.33879889028E+02  0.51100000000E-03 0.  1.
         12    1    3    3    0    0 -0.58997493920E+01 -0.68921963068E+01  0.22978148278E+02  0.24704345996E+02  0.00000000000E+00 0. -1.
</event>
<event>
 7    1  0.3196678E-013  0.7246160E+02  0.7816164E-02  0.1226708E+00
        -11   -1    0    0    0    0  0.00000000000E+00  0.00000000000E+00  0.45593999997E+02  0.45594000000E+02  0.51100000000E-03 0.  1.
         11   -1    0    0    0    0 -0.00000000000E+00 -0.00000000000E+00 -0.45593999997E+02  0.45594000000E+02  0.51100000000E-03 0. -1.
    9900012    2    1    2    0    0  0.15751889146E+02 -0.97643408836E+01  0.26858234252E+01  0.72461601199E+02  0.70000040260E+02 0.  0.
         12    1    1    2    0    0 -0.15751889146E+02  0.97643408836E+01 -0.26858234252E+01  0.18726398801E+02  0.00000000000E+00 0. -1.
         11    1    3    3    0    0 -0.78680836017E+01  0.65298789342E+00  0.43372424145E+01  0.90080411176E+01  0.51100000000E-03 0.  1.
        -11    1    3    3    0    0 -0.12068879046E+02 -0.22568696026E+02 -0.27233423849E+01  0.25737530490E+02  0.51100000000E-03 0. -1.
        -12    1    3    3    0    0  0.35688851794E+02  0.12151367248E+02  0.10719233956E+01  0.37716029592E+02  0.00000000000E+00 0.  1.
</event>
<event>
 7    1  0.3196678E-013  0.7246168E+02  0.7816164E-02  0.1226708E+00
        -11   -1    0    0    0    0  0.00000000000E+00  0.00000000000E+00  0.45593999997E+02  0.45594000000E+02  0.51100000000E-03 0. -1.
         11   -1    0    0    0    0 -0.00000000000E+00 -0.00000000000E+00 -0.45593999997E+02  0.45594000000E+02  0.51100000000E-03 0.  1.
    9900012    2    1    2    0    0  0.17634771527E+02  0.50587005076E+01 -0.37549414962E+01  0.72461676194E+02  0.70000137954E+02 0.  0.
         12    1    1    2    0    0 -0.17634771527E+02 -0.50587005076E+01  0.37549414962E+01  0.18726323806E+02  0.00000000000E+00 0. -1.
         11    1    3    3    0    0  0.31129270871E+02 -0.88313350944E+01  0.19240436166E+02  0.37645960855E+02  0.51100000000E-03 0. -1.
        -11    1    3    3    0    0 -0.12170296765E+02  0.95937016984E-01 -0.91475321420E+01  0.15225067219E+02  0.51100000000E-03 0.  1.
        -12    1    3    3    0    0 -0.13242025792E+01  0.13794098585E+02 -0.13847845521E+02  0.19590648121E+02  0.00000000000E+00 0.  1.
</event>
<event>
 7    1  0.3196678E-013  0.7246151E+02  0.7816164E-02  0.1226708E+00
        -11   -1    0    0    0    0  0.00000000000E+00  0.00000000000E+00  0.45593999997E+02  0.45594000000E+02  0.51100000000E-03 0. -1.
         11   -1    0    0    0    0 -0.00000000000E+00 -0.00000000000E+00 -0.45593999997E+02  0.45594000000E+02  0.51100000000E-03 0.  1.
    9900012    2    1    2    0    0 -0.75821524770E+01  0.49602191578E+01 -0.16388678052E+02  0.72461505972E+02  0.69999916208E+02 0.  0.
         12    1    1    2    0    0  0.75821524770E+01 -0.49602191578E+01  0.16388678052E+02  0.18726494028E+02  0.00000000000E+00 0. -1.
         11    1    3    3    0    0 -0.26003936243E+02 -0.31407056476E+01 -0.12237827702E+02  0.28910779291E+02  0.51100000000E-03 0. -1.
        -11    1    3    3    0    0 -0.46581868577E+01  0.16280273647E+02  0.46005324295E+01  0.17547390510E+02  0.51100000000E-03 0.  1.
         12    1    3    3    0    0  0.23079970623E+02 -0.81793488419E+01 -0.87513827802E+01  0.26003336171E+02  0.00000000000E+00 0. -1.
</event>
<event>
 7    1  0.3196678E-013  0.7246137E+02  0.7816164E-02  0.1226709E+00
        -11   -1    0    0    0    0  0.00000000000E+00  0.00000000000E+00  0.45593999997E+02  0.45594000000E+02  0.51100000000E-03 0.  1.
         11   -1    0    0    0    0 -0.00000000000E+00 -0.00000000000E+00 -0.45593999997E+02  0.45594000000E+02  0.51100000000E-03 0. -1.
    9900012    2    1    2    0    0  0.16512291935E+02  0.86315671267E+01 -0.18780566110E+01  0.72461365688E+02  0.69999733462E+02 0.  0.
         12    1    1    2    0    0 -0.16512291935E+02 -0.86315671267E+01  0.18780566110E+01  0.18726634312E+02  0.00000000000E+00 0. -1.
         11    1    3    3    0    0 -0.20281739929E+02  0.15998243149E+02  0.57435203084E+00  0.25838394666E+02  0.51100000000E-03 0. -1.
        -11    1    3    3    0    0  0.30386841156E+01 -0.34934081640E+01 -0.10700559452E+02  0.11659308496E+02  0.51100000000E-03 0.  1.
        -12    1    3    3    0    0  0.33755347748E+02 -0.38732678583E+01  0.82481508099E+01  0.34963662527E+02  0.00000000000E+00 0.  1.
</event>
<event>
 7    1  0.3196678E-013  0.7246111E+02  0.7816164E-02  0.1226709E+00
        -11   -1    0    0    0    0  0.00000000000E+00  0.00000000000E+00  0.45593999997E+02  0.45594000000E+02  0.51100000000E-03 0.  1.
         11   -1    0    0    0    0 -0.00000000000E+00 -0.00000000000E+00 -0.45593999997E+02  0.45594000000E+02  0.51100000000E-03 0. -1.
    9900012    2    1    2    0    0  0.58303035230E+01  0.14900851496E+01  0.17733686993E+02  0.72461108979E+02  0.69999399049E+02 0.  0.
         12    1    1    2    0    0 -0.58303035230E+01 -0.14900851496E+01 -0.17733686993E+02  0.18726891021E+02  0.00000000000E+00 0. -1.
         11    1    3    3    0    0 -0.56880532465E+01 -0.14994542100E+02  0.78692930647E+01  0.17863818633E+02  0.51100000000E-03 0. -1.
        -11    1    3    3    0    0 -0.18017989470E+02 -0.29522633186E+01  0.19300109241E+01  0.18359976734E+02  0.51100000000E-03 0.  1.
        -12    1    3    3    0    0  0.29536346240E+02  0.19436890569E+02  0.79343830044E+01  0.36237313612E+02  0.00000000000E+00 0.  1.
</event>
<event>
 7    1  0.3196678E-013  0.7246158E+02  0.7816164E-02  0.1226708E+00
        -11   -1    0    0    0    0  0.00000000000E+00  0.00000000000E+00  0.45593999997E+02  0.45594000000E+02  0.51100000000E-03 0.  1.
         11   -1    0    0    0    0 -0.00000000000E+00 -0.00000000000E+00 -0.45593999997E+02  0.45594000000E+02  0.51100000000E-03 0. -1.
    9900012    2    1    2    0    0  0.14931549678E+02 -0.24980401742E+01  0.11022129817E+02  0.72461582131E+02  0.70000015420E+02 0.  0.
         12    1    1    2    0    0 -0.14931549678E+02  0.24980401742E+01 -0.11022129817E+02  0.18726417869E+02  0.00000000000E+00 0. -1.
         11    1    3    3    0    0 -0.65435854237E+01  0.47203149897E+01 -0.79127918242E+01  0.11300980423E+02  0.51100000000E-03 0. -1.
        -11    1    3    3    0    0 -0.86754166194E+01 -0.74371993152E+00 -0.13717619683E+02  0.16247740239E+02  0.51100000000E-03 0.  1.
        -12    1    3    3    0    0  0.30150551721E+02 -0.64746352324E+01  0.32652541324E+02  0.44912861469E+02  0.00000000000E+00 0.  1.
</event>
<event>
 7    1  0.3196678E-013  0.7246150E+02  0.7816164E-02  0.1226708E+00
        -11   -1    0    0    0    0  0.00000000000E+00  0.00000000000E+00  0.45593999997E+02  0.45594000000E+02  0.51100000000E-03 0. -1.
         11   -1    0    0    0    0 -0.00000000000E+00 -0.00000000000E+00 -0.45593999997E+02  0.45594000000E+02  0.51100000000E-03 0.  1.
    9900012    2    1    2    0    0  0.14361027041E+02 -0.50347281508E+01 -0.10913022937E+02  0.72461503936E+02  0.69999913555E+02 0.  0.
         12    1    1    2    0    0 -0.14361027041E+02  0.50347281508E+01  0.10913022937E+02  0.18726496064E+02  0.00000000000E+00 0. -1.
         11    1    3    3    0    0 -0.92393778314E+01 -0.23669678188E+02  0.27021816300E+01  0.25552329719E+02  0.51100000000E-03 0. -1.
        -11    1    3    3    0    0  0.20741302594E+01 -0.50173997008E+01 -0.13904000826E+02  0.14926404635E+02  0.51100000000E-03 0.  1.
        -12    1    3    3    0    0  0.21526274613E+02  0.23652349738E+02  0.28879625887E+00  0.31982769582E+02  0.00000000000E+00 0.  1.
</event>
<event>
 7    1  0.3196678E-013  0.7246159E+02  0.7816164E-02  0.1226708E+00
        -11   -1    0    0    0    0  0.00000000000E+00  0.00000000000E+00  0.45593999997E+02  0.45594000000E+02  0.51100000000E-03 0.  1.
         11   -1    0    0    0    0 -0.00000000000E+00 -0.00000000000E+00 -0.45593999997E+02  0.45594000000E+02  0.51100000000E-03 0. -1.
    9900012    2    1    2    0    0  0.12945019400E+02  0.12129938969E+02 -0.59974595671E+01  0.72461589027E+02  0.70000024403E+02 0.  0.
         12    1    1    2    0    0 -0.12945019400E+02 -0.12129938969E+02  0.59974595671E+01  0.18726410973E+02  0.00000000000E+00 0. -1.
         11    1    3    3    0    0 -0.10633819983E+01 -0.15436815260E+02 -0.19734745508E+02  0.25077604096E+02  0.51100000000E-03 0. -1.
        -11    1    3    3    0    0 -0.28211903493E+01  0.16680846537E+01  0.16078250152E+02  0.16408892395E+02  0.51100000000E-03 0.  1.
        -12    1    3    3    0    0  0.16829591748E+02  0.25898669576E+02 -0.23409642111E+01  0.30975092536E+02  0.00000000000E+00 0.  1.
</event>
<event>
 7    1  0.3196678E-013  0.7246156E+02  0.7816164E-02  0.1226708E+00
        -11   -1    0    0    0    0  0.00000000000E+00  0.00000000000E+00  0.45593999997E+02  0.45594000000E+02  0.51100000000E-03 0.  1.
         11   -1    0    0    0    0 -0.00000000000E+00 -0.00000000000E+00 -0.45593999997E+02  0.45594000000E+02  0.51100000000E-03 0. -1.
    9900012    2    1    2    0    0  0.16011798287E+02  0.26099631280E+00  0.97074108145E+01  0.72461558048E+02  0.69999984047E+02 0.  0.
         12    1    1    2    0    0 -0.16011798287E+02 -0.26099631280E+00 -0.97074108145E+01  0.18726441952E+02  0.00000000000E+00 0. -1.
         11    1    3    3    0    0  0.94415161234E+01 -0.20364841796E+02 -0.17321821653E+02  0.28353386283E+02  0.51100000000E-03 0. -1.
        -11    1    3    3    0    0  0.12238108344E+02 -0.12047664847E+01  0.91988355806E+01  0.15357126503E+02  0.51100000000E-03 0.  1.
        -12    1    3    3    0    0 -0.56678261806E+01  0.21830604593E+02  0.17830396887E+02  0.28751045262E+02  0.00000000000E+00 0.  1.
</event>
<event>
 7    1  0.3196678E-013  0.7246159E+02  0.7816164E-02  0.1226708E+00
        -11   -1    0    0    0    0  0.00000000000E+00  0.00000000000E+00  0.45593999997E+02  0.45594000000E+02  0.51100000000E-03 0.  1.
         11   -1    0    0    0    0 -0.00000000000E+00 -0.00000000000E+00 -0.45593999997E+02  0.45594000000E+02  0.51100000000E-03 0. -1.
    9900012    2    1    2    0    0 -0.27291432096E+00 -0.18505791473E+02  0.28530080308E+01  0.72461589369E+02  0.70000024849E+02 0.  0.
         12    1    1    2    0    0  0.27291432096E+00  0.18505791473E+02 -0.28530080308E+01  0.18726410631E+02  0.00000000000E+00 0. -1.
         11    1    3    3    0    0 -0.21227749203E+01  0.31419981132E+01 -0.82730776732E+01  0.91006670059E+01  0.51100000000E-03 0. -1.
        -11    1    3    3    0    0  0.10062147347E+02 -0.30994532509E+02 -0.13888324434E+02  0.35423063257E+02  0.51100000000E-03 0.  1.
        -12    1    3    3    0    0 -0.82122867478E+01  0.93467429227E+01  0.25014410138E+02  0.27937859106E+02  0.00000000000E+00 0.  1.
</event>
<event>
 7    1  0.3196678E-013  0.7246166E+02  0.7816164E-02  0.1226708E+00
        -11   -1    0    0    0    0  0.00000000000E+00  0.00000000000E+00  0.45593999997E+02  0.45594000000E+02  0.51100000000E-03 0.  1.
         11   -1    0    0    0    0 -0.00000000000E+00 -0.00000000000E+00 -0.45593999997E+02  0.45594000000E+02  0.51100000000E-03 0. -1.
    9900012    2    1    2    0    0  0.13470413374E+02 -0.12978359910E+02  0.88652950606E+00  0.72461660343E+02  0.70000117304E+02 0.  0.
         12    1    1    2    0    0 -0.13470413374E+02  0.12978359910E+02 -0.88652950606E+00  0.18726339657E+02  0.00000000000E+00 0. -1.
         11    1    3    3    0    0  0.93883114463E+01 -0.16633169067E+02 -0.21645100768E+01  0.19222065684E+02  0.51100000000E-03 0. -1.
        -11    1    3    3    0    0 -0.19571990785E+02 -0.13103020780E+02  0.53725485944E+01  0.24158150913E+02  0.51100000000E-03 0.  1.
         12    1    3    3    0    0  0.23654092713E+02  0.16757829937E+02 -0.23215090116E+01  0.29081443746E+02  0.00000000000E+00 0. -1.
</event>
<event>
 7    1  0.3196678E-013  0.7246163E+02  0.7816164E-02  0.1226708E+00
        -11   -1    0    0    0    0  0.00000000000E+00  0.00000000000E+00  0.45593999997E+02  0.45594000000E+02  0.51100000000E-03 0.  1.
         11   -1    0    0    0    0 -0.00000000000E+00 -0.00000000000E+00 -0.45593999997E+02  0.45594000000E+02  0.51100000000E-03 0. -1.
    9900012    2    1    2    0    0 -0.18345007576E+02  0.24563690346E+01  0.28467253448E+01  0.72461630972E+02  0.70000079044E+02 0.  0.
         12    1    1    2    0    0  0.18345007576E+02 -0.24563690346E+01 -0.28467253448E+01  0.18726369028E+02  0.00000000000E+00 0. -1.
         11    1    3    3    0    0  0.32332780509E+01 -0.75562940576E+01  0.59986382710E+00  0.82408436287E+01  0.51100000000E-03 0. -1.
        -11    1    3    3    0    0 -0.31329115145E+02 -0.16813375536E+02 -0.37303469573E+00  0.35557590017E+02  0.51100000000E-03 0.  1.
        -12    1    3    3    0    0  0.97508295181E+01  0.26826038629E+02  0.26198962135E+01  0.28663197326E+02  0.00000000000E+00 0.  1.
</event>
<event>
 7    1  0.3196678E-013  0.7246154E+02  0.7816164E-02  0.1226708E+00
        -11   -1    0    0    0    0  0.00000000000E+00  0.00000000000E+00  0.45593999997E+02  0.45594000000E+02  0.51100000000E-03 0.  1.
         11   -1    0    0    0    0 -0.00000000000E+00 -0.00000000000E+00 -0.45593999997E+02  0.45594000000E+02  0.51100000000E-03 0. -1.
    9900012    2    1    2    0    0 -0.45511984193E+01 -0.96503635641E+00  0.18139341387E+02  0.72461537222E+02  0.69999956917E+02 0.  0.
         12    1    1    2    0    0  0.45511984193E+01  0.96503635641E+00 -0.18139341387E+02  0.18726462778E+02  0.00000000000E+00 0. -1.
         11    1    3    3    0    0 -0.94650282998E+01  0.96306735760E+01 -0.13894115168E+02  0.19374805052E+02  0.51100000000E-03 0. -1.
        -11    1    3    3    0    0 -0.11958224935E+02  0.72526694716E+01  0.22998022278E+02  0.26916712040E+02  0.51100000000E-03 0.  1.
        -12    1    3    3    0    0  0.16872054815E+02 -0.17848379404E+02  0.90354342770E+01  0.26170020130E+02  0.00000000000E+00 0.  1.
</event>
<event>
 7    1  0.3196678E-013  0.7246153E+02  0.7816164E-02  0.1226708E+00
        -11   -1    0    0    0    0  0.00000000000E+00  0.00000000000E+00  0.45593999997E+02  0.45594000000E+02  0.51100000000E-03 0.  1.
         11   -1    0    0    0    0 -0.00000000000E+00 -0.00000000000E+00 -0.45593999997E+02  0.45594000000E+02  0.51100000000E-03 0. -1.
    9900012    2    1    2    0    0 -0.15610902473E+01 -0.36518310840E+01  0.18300486049E+02  0.72461530427E+02  0.69999948066E+02 0.  0.
         12    1    1    2    0    0  0.15610902473E+01  0.36518310840E+01 -0.18300486049E+02  0.18726469573E+02  0.00000000000E+00 0. -1.
         11    1    3    3    0    0  0.11373470607E+02  0.52877065363E+01 -0.70285565246E+01  0.14377631277E+02  0.51100000000E-03 0. -1.
        -11    1    3    3    0    0 -0.50462972304E+01  0.14020167215E+02 -0.79515756855E+01  0.16889575502E+02  0.51100000000E-03 0.  1.
         12    1    3    3    0    0 -0.78882636243E+01 -0.22959704836E+02  0.33280618259E+02  0.41194323648E+02  0.00000000000E+00 0. -1.
</event>
<event>
 7    1  0.3196678E-013  0.7246162E+02  0.7816164E-02  0.1226708E+00
        -11   -1    0    0    0    0  0.00000000000E+00  0.00000000000E+00  0.45593999997E+02  0.45594000000E+02  0.51100000000E-03 0.  1.
         11   -1    0    0    0    0 -0.00000000000E+00 -0.00000000000E+00 -0.45593999997E+02  0.45594000000E+02  0.51100000000E-03 0. -1.
    9900012    2    1    2    0    0 -0.26031989906E+01 -0.17273019163E+02  0.67485865218E+01  0.72461621385E+02  0.70000066555E+02 0.  0.
         12    1    1    2    0    0  0.26031989906E+01  0.17273019163E+02 -0.67485865218E+01  0.18726378615E+02  0.00000000000E+00 0. -1.
         11    1    3    3    0    0 -0.18361583066E+02  0.44883274444E+01 -0.70728364200E+00  0.18915418746E+02  0.51100000000E-03 0.  1.
        -11    1    3    3    0    0 -0.58733595754E+01 -0.20602946840E+02 -0.11890397387E+02  0.24502230949E+02  0.51100000000E-03 0. -1.
        -12    1    3    3    0    0  0.21631743651E+02 -0.11583997674E+01  0.19346267550E+02  0.29043971690E+02  0.00000000000E+00 0.  1.
</event>
<event>
 7    1  0.3196678E-013  0.7246165E+02  0.7816164E-02  0.1226708E+00
        -11   -1    0    0    0    0  0.00000000000E+00  0.00000000000E+00  0.45593999997E+02  0.45594000000E+02  0.51100000000E-03 0. -1.
         11   -1    0    0    0    0 -0.00000000000E+00 -0.00000000000E+00 -0.45593999997E+02  0.45594000000E+02  0.51100000000E-03 0.  1.
    9900012    2    1    2    0    0  0.18401921085E+02 -0.16830126235E+01 -0.30353027059E+01  0.72461647082E+02  0.70000100030E+02 0.  0.
         12    1    1    2    0    0 -0.18401921085E+02  0.16830126235E+01  0.30353027059E+01  0.18726352918E+02  0.00000000000E+00 0. -1.
         11    1    3    3    0    0  0.67994513299E+01 -0.54259488426E+01 -0.10347004219E+02  0.13517912405E+02  0.51100000000E-03 0. -1.
        -11    1    3    3    0    0  0.56213068325E+01 -0.10473909569E+01 -0.25046307419E+02  0.25690730505E+02  0.51100000000E-03 0.  1.
         12    1    3    3    0    0  0.59811629225E+01  0.47903271760E+01  0.32358008932E+02  0.33253004171E+02  0.00000000000E+00 0. -1.
</event>
<event>
 7    1  0.3196678E-013  0.7246154E+02  0.7816164E-02  0.1226708E+00
        -11   -1    0    0    0    0  0.00000000000E+00  0.00000000000E+00  0.45593999997E+02  0.45594000000E+02  0.51100000000E-03 0.  1.
         11   -1    0    0    0    0 -0.00000000000E+00 -0.00000000000E+00 -0.45593999997E+02  0.45594000000E+02  0.51100000000E-03 0. -1.
    9900012    2    1    2    0    0  0.10045701662E+02 -0.12529854648E+02  0.96315518997E+01  0.72461543544E+02  0.69999965153E+02 0.  0.
         12    1    1    2    0    0 -0.10045701662E+02  0.12529854648E+02 -0.96315518997E+01  0.18726456456E+02  0.00000000000E+00 0. -1.
         11    1    3    3    0    0  0.44627302459E+01 -0.25753379029E+01  0.41818501758E+01  0.66359775253E+01  0.51100000000E-03 0. -1.
        -11    1    3    3    0    0  0.18358552117E+02 -0.25215088010E+02  0.23425128155E+02  0.39007354801E+02  0.51100000000E-03 0.  1.
         12    1    3    3    0    0 -0.12775580700E+02  0.15260571265E+02 -0.17975426431E+02  0.26818211219E+02  0.00000000000E+00 0. -1.
</event>
<event>
 7    1  0.3196678E-013  0.7246161E+02  0.7816164E-02  0.1226708E+00
        -11   -1    0    0    0    0  0.00000000000E+00  0.00000000000E+00  0.45593999997E+02  0.45594000000E+02  0.51100000000E-03 0.  1.
         11   -1    0    0    0    0 -0.00000000000E+00 -0.00000000000E+00 -0.45593999997E+02  0.45594000000E+02  0.51100000000E-03 0. -1.
    9900012    2    1    2    0    0  0.13145339347E+02 -0.60143304077E+01  0.11904020729E+02  0.72461606158E+02  0.70000046719E+02 0.  0.
         12    1    1    2    0    0 -0.13145339347E+02  0.60143304077E+01 -0.11904020729E+02  0.18726393842E+02  0.00000000000E+00 0. -1.
         11    1    3    3    0    0 -0.25096144056E+01  0.24174384023E+01  0.21271873409E+01  0.40825358710E+01  0.51100000000E-03 0. -1.
        -11    1    3    3    0    0 -0.64481725274E+01  0.34557613460E+01  0.33232066114E+02  0.34027803836E+02  0.51100000000E-03 0.  1.
         12    1    3    3    0    0  0.22103126280E+02 -0.11887530156E+02 -0.23455232726E+02  0.34351266451E+02  0.00000000000E+00 0. -1.
</event>
<event>
 7    1  0.3196678E-013  0.7246154E+02  0.7816164E-02  0.1226708E+00
        -11   -1    0    0    0    0  0.00000000000E+00  0.00000000000E+00  0.45593999997E+02  0.45594000000E+02  0.51100000000E-03 0. -1.
         11   -1    0    0    0    0 -0.00000000000E+00 -0.00000000000E+00 -0.45593999997E+02  0.45594000000E+02  0.51100000000E-03 0.  1.
    9900012    2    1    2    0    0  0.12407700074E+02 -0.13906305953E+02 -0.18286119140E+01  0.72461543103E+02  0.69999964578E+02 0.  0.
         12    1    1    2    0    0 -0.12407700074E+02  0.13906305953E+02  0.18286119140E+01  0.18726456897E+02  0.00000000000E+00 0. -1.
         11    1    3    3    0    0  0.58415770769E+00 -0.62374830258E+01 -0.10726471828E+02  0.12421941590E+02  0.51100000000E-03 0. -1.
        -11    1    3    3    0    0 -0.22229752457E+02 -0.26805440816E+00 -0.45400757664E+01  0.22690218943E+02  0.51100000000E-03 0.  1.
         12    1    3    3    0    0  0.34053294823E+02 -0.74007685189E+01  0.13437935681E+02  0.37349382570E+02  0.00000000000E+00 0. -1.
</event>
<event>
 7    1  0.3196678E-013  0.7246151E+02  0.7816164E-02  0.1226708E+00
        -11   -1    0    0    0    0  0.00000000000E+00  0.00000000000E+00  0.45593999997E+02  0.45594000000E+02  0.51100000000E-03 0.  1.
         11   -1    0    0    0    0 -0.00000000000E+00 -0.00000000000E+00 -0.45593999997E+02  0.45594000000E+02  0.51100000000E-03 0. -1.
    9900012    2    1    2    0    0  0.34255078040E+01  0.87357171638E+01  0.16206000273E+02  0.72461513332E+02  0.69999925796E+02 0.  0.
         12    1    1    2    0    0 -0.34255078040E+01 -0.87357171638E+01 -0.16206000273E+02  0.18726486668E+02  0.00000000000E+00 0. -1.
         11    1    3    3    0    0 -0.36479188978E+01  0.50641761789E+00 -0.23450102025E+01  0.43661017166E+01  0.51100000000E-03 0. -1.
        -11    1    3    3    0    0 -0.44439136377E+01  0.34074862381E+02  0.20005188826E+02  0.39762447044E+02  0.51100000000E-03 0.  1.
        -12    1    3    3    0    0  0.11517340339E+02 -0.25845562835E+02 -0.14541783505E+01  0.28332964572E+02  0.00000000000E+00 0.  1.
</event>
<event>
 7    1  0.3196678E-013  0.7246171E+02  0.7816164E-02  0.1226708E+00
        -11   -1    0    0    0    0  0.00000000000E+00  0.00000000000E+00  0.45593999997E+02  0.45594000000E+02  0.51100000000E-03 0.  1.
         11   -1    0    0    0    0 -0.00000000000E+00 -0.00000000000E+00 -0.45593999997E+02  0.45594000000E+02  0.51100000000E-03 0. -1.
    9900012    2    1    2    0    0  0.15250759681E+02 -0.10544249573E+02 -0.26281604204E+01  0.72461705730E+02  0.70000176430E+02 0.  0.
         12    1    1    2    0    0 -0.15250759681E+02  0.10544249573E+02  0.26281604204E+01  0.18726294270E+02  0.00000000000E+00 0. -1.
         11    1    3    3    0    0  0.11593214340E+02 -0.16377525419E+02 -0.20148756238E+02  0.28435863550E+02  0.51100000000E-03 0. -1.
        -11    1    3    3    0    0 -0.15088209686E+02  0.88091129835E+00 -0.34110605963E+01  0.15494044369E+02  0.51100000000E-03 0.  1.
        -12    1    3    3    0    0  0.18745755026E+02  0.49523645481E+01  0.20931656414E+02  0.28531797812E+02  0.00000000000E+00 0.  1.
</event>
<event>
 7    1  0.3196678E-013  0.7246158E+02  0.7816164E-02  0.1226708E+00
        -11   -1    0    0    0    0  0.00000000000E+00  0.00000000000E+00  0.45593999997E+02  0.45594000000E+02  0.51100000000E-03 0.  1.
         11   -1    0    0    0    0 -0.00000000000E+00 -0.00000000000E+00 -0.45593999997E+02  0.45594000000E+02  0.51100000000E-03 0. -1.
    9900012    2    1    2    0    0 -0.61098244570E+01 -0.31171105977E+01  0.17425050682E+02  0.72461582172E+02  0.70000015473E+02 0.  0.
         12    1    1    2    0    0  0.61098244570E+01  0.31171105977E+01 -0.17425050682E+02  0.18726417828E+02  0.00000000000E+00 0. -1.
         11    1    3    3    0    0 -0.13331647077E+02 -0.10635450558E+02  0.21694534711E+02  0.27595261531E+02  0.51100000000E-03 0. -1.
        -11    1    3    3    0    0  0.16771022211E+02  0.87682869434E+01  0.14452662780E+02  0.23812381309E+02  0.51100000000E-03 0.  1.
        -12    1    3    3    0    0 -0.95491995910E+01 -0.12499469828E+01 -0.18722146809E+02  0.21053939333E+02  0.00000000000E+00 0.  1.
</event>
<event>
 7    1  0.3196678E-013  0.7246157E+02  0.7816164E-02  0.1226708E+00
        -11   -1    0    0    0    0  0.00000000000E+00  0.00000000000E+00  0.45593999997E+02  0.45594000000E+02  0.51100000000E-03 0.  1.
         11   -1    0    0    0    0 -0.00000000000E+00 -0.00000000000E+00 -0.45593999997E+02  0.45594000000E+02  0.51100000000E-03 0. -1.
    9900012    2    1    2    0    0 -0.93773973354E+01 -0.85644982929E+01  0.13762017249E+02  0.72461565995E+02  0.69999994399E+02 0.  0.
         12    1    1    2    0    0  0.93773973354E+01  0.85644982929E+01 -0.13762017249E+02  0.18726434005E+02  0.00000000000E+00 0. -1.
         11    1    3    3    0    0  0.10418580281E+02  0.15800398031E+02 -0.15984676960E+02  0.24773156657E+02  0.51100000000E-03 0. -1.
        -11    1    3    3    0    0 -0.49682560279E+01 -0.39032097139E+01  0.19364812890E+02  0.20369452437E+02  0.51100000000E-03 0.  1.
        -12    1    3    3    0    0 -0.14827721588E+02 -0.20461686610E+02  0.10381881318E+02  0.27318956901E+02  0.00000000000E+00 0.  1.
</event>
<event>
 7    1  0.3196678E-013  0.7246156E+02  0.7816164E-02  0.1226708E+00
        -11   -1    0    0    0    0  0.00000000000E+00  0.00000000000E+00  0.45593999997E+02  0.45594000000E+02  0.51100000000E-03 0. -1.
         11   -1    0    0    0    0 -0.00000000000E+00 -0.00000000000E+00 -0.45593999997E+02  0.45594000000E+02  0.51100000000E-03 0.  1.
    9900012    2    1    2    0    0  0.21383529002E+01  0.55733400847E+01 -0.17749507048E+02  0.72461556844E+02  0.69999982478E+02 0.  0.
         12    1    1    2    0    0 -0.21383529002E+01 -0.55733400847E+01  0.17749507048E+02  0.18726443156E+02  0.00000000000E+00 0. -1.
         11    1    3    3    0    0  0.13654429309E+02 -0.61377608817E+01  0.63228049247E+00  0.14983835533E+02  0.51100000000E-03 0. -1.
        -11    1    3    3    0    0  0.12272553229E+02  0.23460520584E+02 -0.25931289541E+01  0.26603306314E+02  0.51100000000E-03 0.  1.
        -12    1    3    3    0    0 -0.23788629638E+02 -0.11749419617E+02 -0.15788658587E+02  0.30874414996E+02  0.00000000000E+00 0.  1.
</event>
<event>
 7    1  0.3196678E-013  0.7246157E+02  0.7816164E-02  0.1226708E+00
        -11   -1    0    0    0    0  0.00000000000E+00  0.00000000000E+00  0.45593999997E+02  0.45594000000E+02  0.51100000000E-03 0.  1.
         11   -1    0    0    0    0 -0.00000000000E+00 -0.00000000000E+00 -0.45593999997E+02  0.45594000000E+02  0.51100000000E-03 0. -1.
    9900012    2    1    2    0    0 -0.17339291553E+02  0.55257643788E+00  0.70514298458E+01  0.72461573882E+02  0.70000004673E+02 0.  0.
         12    1    1    2    0    0  0.17339291553E+02 -0.55257643788E+00 -0.70514298458E+01  0.18726426118E+02  0.00000000000E+00 0. -1.
         11    1    3    3    0    0  0.73356684704E+01  0.34796256946E+01  0.80817102342E+01  0.11455735134E+02  0.51100000000E-03 0. -1.
        -11    1    3    3    0    0  0.12856037818E+01  0.20179308585E+02  0.12430953113E+02  0.23735750833E+02  0.51100000000E-03 0.  1.
        -12    1    3    3    0    0 -0.25960563805E+02 -0.23106357842E+02 -0.13461233502E+02  0.37270087915E+02  0.00000000000E+00 0.  1.
</event>
<event>
 7    1  0.3196678E-013  0.7246157E+02  0.7816164E-02  0.1226708E+00
        -11   -1    0    0    0    0  0.00000000000E+00  0.00000000000E+00  0.45593999997E+02  0.45594000000E+02  0.51100000000E-03 0.  1.
         11   -1    0    0    0    0 -0.00000000000E+00 -0.00000000000E+00 -0.45593999997E+02  0.45594000000E+02  0.51100000000E-03 0. -1.
    9900012    2    1    2    0    0 -0.37682866282E+01 -0.48706686099E+01  0.17684906382E+02  0.72461566529E+02  0.69999995094E+02 0.  0.
         12    1    1    2    0    0  0.37682866282E+01  0.48706686099E+01 -0.17684906382E+02  0.18726433471E+02  0.00000000000E+00 0. -1.
         11    1    3    3    0    0  0.11870270706E+01  0.92114045011E+01 -0.40881221534E+01  0.10147499650E+02  0.51100000000E-03 0. -1.
        -11    1    3    3    0    0 -0.14040643093E+02 -0.19042405538E+02  0.36990599584E+02  0.43909649566E+02  0.51100000000E-03 0.  1.
         12    1    3    3    0    0  0.90853293946E+01  0.49603324274E+01 -0.15217571048E+02  0.18404417312E+02  0.00000000000E+00 0. -1.
</event>
<event>
 7    1  0.3196678E-013  0.7246162E+02  0.7816164E-02  0.1226708E+00
        -11   -1    0    0    0    0  0.00000000000E+00  0.00000000000E+00  0.45593999997E+02  0.45594000000E+02  0.51100000000E-03 0.  1.
         11   -1    0    0    0    0 -0.00000000000E+00 -0.00000000000E+00 -0.45593999997E+02  0.45594000000E+02  0.51100000000E-03 0. -1.
    9900012    2    1    2    0    0 -0.10933476640E+02 -0.10428765188E+02  0.11062417174E+02  0.72461624790E+02  0.70000070991E+02 0.  0.
         12    1    1    2    0    0  0.10933476640E+02  0.10428765188E+02 -0.11062417174E+02  0.18726375210E+02  0.00000000000E+00 0. -1.
         11    1    3    3    0    0 -0.24127146970E+01 -0.10208573919E+02 -0.45617220753E+01  0.11438771011E+02  0.51100000000E-03 0. -1.
        -11    1    3    3    0    0  0.13448436625E+02  0.43595948084E+01  0.30828681817E+02  0.33915691610E+02  0.51100000000E-03 0.  1.
         12    1    3    3    0    0 -0.21969198567E+02 -0.45797860769E+01 -0.15204542567E+02  0.27107162170E+02  0.00000000000E+00 0. -1.
</event>
<event>
 7    1  0.3196678E-013  0.7246159E+02  0.7816164E-02  0.1226708E+00
        -11   -1    0    0    0    0  0.00000000000E+00  0.00000000000E+00  0.45593999997E+02  0.45594000000E+02  0.51100000000E-03 0. -1.
         11   -1    0    0    0    0 -0.00000000000E+00 -0.00000000000E+00 -0.45593999997E+02  0.45594000000E+02  0.51100000000E-03 0.  1.
    9900012    2    1    2    0    0 -0.10360930218E+00 -0.66442162620E+01 -0.17507774081E+02  0.72461588227E+02  0.70000023360E+02 0.  0.
         12    1    1    2    0    0  0.10360930218E+00  0.66442162620E+01  0.17507774081E+02  0.18726411773E+02  0.00000000000E+00 0. -1.
         11    1    3    3    0    0 -0.24985109190E+01  0.14305973062E+02  0.12317505264E+02  0.19042698293E+02  0.51100000000E-03 0. -1.
        -11    1    3    3    0    0 -0.14517647745E+02 -0.98853422101E+01 -0.21038226375E+00  0.17564918093E+02  0.51100000000E-03 0.  1.
        -12    1    3    3    0    0  0.16912549362E+02 -0.11064847114E+02 -0.29614897082E+02  0.35853971841E+02  0.00000000000E+00 0.  1.
</event>
<event>
 7    1  0.3196678E-013  0.7246157E+02  0.7816164E-02  0.1226708E+00
        -11   -1    0    0    0    0  0.00000000000E+00  0.00000000000E+00  0.45593999997E+02  0.45594000000E+02  0.51100000000E-03 0.  1.
         11   -1    0    0    0    0 -0.00000000000E+00 -0.00000000000E+00 -0.45593999997E+02  0.45594000000E+02  0.51100000000E-03 0. -1.
    9900012    2    1    2    0    0 -0.98896469162E+01 -0.13887785557E+02  0.77461889590E+01  0.72461570890E+02  0.70000000777E+02 0.  0.
         12    1    1    2    0    0  0.98896469162E+01  0.13887785557E+02 -0.77461889590E+01  0.18726429110E+02  0.00000000000E+00 0. -1.
         11    1    3    3    0    0  0.87966720871E+01 -0.30059844852E+01 -0.12275408798E+02  0.15398150667E+02  0.51100000000E-03 0. -1.
        -11    1    3    3    0    0  0.83304735715E+00  0.13822415639E+02  0.21466471910E+02  0.25545304041E+02  0.51100000000E-03 0.  1.
        -12    1    3    3    0    0 -0.19519366360E+02 -0.24704216711E+02 -0.14448741528E+01  0.31518116183E+02  0.00000000000E+00 0.  1.
</event>
<event>
 7    1  0.3196678E-013  0.7246163E+02  0.7816164E-02  0.1226708E+00
        -11   -1    0    0    0    0  0.00000000000E+00  0.00000000000E+00  0.45593999997E+02  0.45594000000E+02  0.51100000000E-03 0. -1.
         11   -1    0    0    0    0 -0.00000000000E+00 -0.00000000000E+00 -0.45593999997E+02  0.45594000000E+02  0.51100000000E-03 0.  1.
    9900012    2    1    2    0    0 -0.45045571229E+01  0.17490072901E+02  0.49480713244E+01  0.72461625691E+02  0.70000072164E+02 0.  0.
         12    1    1    2    0    0  0.45045571229E+01 -0.17490072901E+02 -0.49480713244E+01  0.18726374309E+02  0.00000000000E+00 0. -1.
         11    1    3    3    0    0  0.17414334801E+01 -0.84392777171E+01 -0.93860974642E+01  0.12741774791E+02  0.51100000000E-03 0. -1.
        -11    1    3    3    0    0  0.85747478905E+00 -0.96592689073E+01 -0.11596746685E+02  0.15116920082E+02  0.51100000000E-03 0.  1.
         12    1    3    3    0    0 -0.71034653921E+01  0.35588619525E+02  0.25930915473E+02  0.44602930818E+02  0.00000000000E+00 0. -1.
</event>
<event>
 7    1  0.3196678E-013  0.7246154E+02  0.7816164E-02  0.1226708E+00
        -11   -1    0    0    0    0  0.00000000000E+00  0.00000000000E+00  0.45593999997E+02  0.45594000000E+02  0.51100000000E-03 0. -1.
         11   -1    0    0    0    0 -0.00000000000E+00 -0.00000000000E+00 -0.45593999997E+02  0.45594000000E+02  0.51100000000E-03 0.  1.
    9900012    2    1    2    0    0 -0.13212194517E+02  0.10867251639E+02 -0.76171521649E+01  0.72461541465E+02  0.69999962445E+02 0.  0.
         12    1    1    2    0    0  0.13212194517E+02 -0.10867251639E+02  0.76171521649E+01  0.18726458535E+02  0.00000000000E+00 0. -1.
         11    1    3    3    0    0 -0.13395352419E+02 -0.10851033916E+02  0.88547390600E+01  0.19380062114E+02  0.51100000000E-03 0. -1.
        -11    1    3    3    0    0  0.14567119047E+02 -0.67649451493E+00  0.82504227802E+01  0.16754941912E+02  0.51100000000E-03 0.  1.
         12    1    3    3    0    0 -0.14383961144E+02  0.22394780070E+02 -0.24722314005E+02  0.36326537440E+02  0.00000000000E+00 0. -1.
</event>
<event>
 7    1  0.3196678E-013  0.7246160E+02  0.7816164E-02  0.1226708E+00
        -11   -1    0    0    0    0  0.00000000000E+00  0.00000000000E+00  0.45593999997E+02  0.45594000000E+02  0.51100000000E-03 0. -1.
         11   -1    0    0    0    0 -0.00000000000E+00 -0.00000000000E+00 -0.45593999997E+02  0.45594000000E+02  0.51100000000E-03 0.  1.
    9900012    2    1    2    0    0 -0.49047425337E+01 -0.97291125804E+01 -0.15230428563E+02  0.72461599248E+02  0.70000037717E+02 0.  0.
         12    1    1    2    0    0  0.49047425337E+01  0.97291125804E+01  0.15230428563E+02  0.18726400752E+02  0.00000000000E+00 0. -1.
         11    1    3    3    0    0  0.19458769002E+01 -0.15367597201E+02  0.97253459177E+01  0.18290211429E+02  0.51100000000E-03 0. -1.
        -11    1    3    3    0    0 -0.33014831936E+01  0.16643432533E+02  0.83532190499E+01  0.18912427303E+02  0.51100000000E-03 0.  1.
        -12    1    3    3    0    0 -0.35491362402E+01 -0.11004947912E+02 -0.33308993530E+02  0.35258960515E+02  0.00000000000E+00 0.  1.
</event>
<event>
 7    1  0.3196678E-013  0.7246156E+02  0.7816164E-02  0.1226708E+00
        -11   -1    0    0    0    0  0.00000000000E+00  0.00000000000E+00  0.45593999997E+02  0.45594000000E+02  0.51100000000E-03 0.  1.
         11   -1    0    0    0    0 -0.00000000000E+00 -0.00000000000E+00 -0.45593999997E+02  0.45594000000E+02  0.51100000000E-03 0. -1.
    9900012    2    1    2    0    0 -0.50010567246E+01 -0.17519836527E+02  0.43271403719E+01  0.72461564566E+02  0.69999992537E+02 0.  0.
         12    1    1    2    0    0  0.50010567246E+01  0.17519836527E+02 -0.43271403719E+01  0.18726435434E+02  0.00000000000E+00 0. -1.
         11    1    3    3    0    0 -0.15638948082E+02  0.18335738359E+02 -0.92582644750E+00  0.24117071820E+02  0.51100000000E-03 0. -1.
        -11    1    3    3    0    0  0.93959166917E+01 -0.18641365357E+01  0.10176738366E+02  0.13975845575E+02  0.51100000000E-03 0.  1.
         12    1    3    3    0    0  0.12419746660E+01 -0.33991438350E+02 -0.49237715461E+01  0.34368647171E+02  0.00000000000E+00 0. -1.
</event>
<event>
 7    1  0.3196678E-013  0.7246156E+02  0.7816164E-02  0.1226708E+00
        -11   -1    0    0    0    0  0.00000000000E+00  0.00000000000E+00  0.45593999997E+02  0.45594000000E+02  0.51100000000E-03 0.  1.
         11   -1    0    0    0    0 -0.00000000000E+00 -0.00000000000E+00 -0.45593999997E+02  0.45594000000E+02  0.51100000000E-03 0. -1.
    9900012    2    1    2    0    0 -0.12966032479E+02 -0.13269593291E+01  0.13446209944E+02  0.72461564643E+02  0.69999992639E+02 0.  0.
         12    1    1    2    0    0  0.12966032479E+02  0.13269593291E+01 -0.13446209944E+02  0.18726435357E+02  0.00000000000E+00 0. -1.
         11    1    3    3    0    0  0.49164191840E+01  0.22556302010E+01  0.86305096734E+01  0.10185516319E+02  0.51100000000E-03 0. -1.
        -11    1    3    3    0    0 -0.32951009234E+02  0.58020514881E+01  0.19944927217E+02  0.38951674328E+02  0.51100000000E-03 0.  1.
        -12    1    3    3    0    0  0.15068557572E+02 -0.93846410182E+01 -0.15129226946E+02  0.23324373996E+02  0.00000000000E+00 0.  1.
</event>
<event>
 7    1  0.3196678E-013  0.7246157E+02  0.7816164E-02  0.1226708E+00
        -11   -1    0    0    0    0  0.00000000000E+00  0.00000000000E+00  0.45593999997E+02  0.45594000000E+02  0.51100000000E-03 0.  1.
         11   -1    0    0    0    0 -0.00000000000E+00 -0.00000000000E+00 -0.45593999997E+02  0.45594000000E+02  0.51100000000E-03 0. -1.
    9900012    2    1    2    0    0 -0.83666709432E+01 -0.16097941994E+02 -0.46404883504E+01  0.72461573452E+02  0.70000004114E+02 0.  0.
         12    1    1    2    0    0  0.83666709432E+01  0.16097941994E+02  0.46404883504E+01  0.18726426548E+02  0.00000000000E+00 0. -1.
         11    1    3    3    0    0 -0.14355238255E+02  0.18344471570E+02 -0.24559800211E+01  0.23422731281E+02  0.51100000000E-03 0. -1.
        -11    1    3    3    0    0  0.15695142694E+02 -0.28802744640E+01 -0.12190161100E+01  0.16003733493E+02  0.51100000000E-03 0.  1.
         12    1    3    3    0    0 -0.97065753822E+01 -0.31562139100E+02 -0.96549221929E+00  0.33035108679E+02  0.00000000000E+00 0. -1.
</event>
<event>
 7    1  0.3196678E-013  0.7246155E+02  0.7816164E-02  0.1226708E+00
        -11   -1    0    0    0    0  0.00000000000E+00  0.00000000000E+00  0.45593999997E+02  0.45594000000E+02  0.51100000000E-03 0. -1.
         11   -1    0    0    0    0 -0.00000000000E+00 -0.00000000000E+00 -0.45593999997E+02  0.45594000000E+02  0.51100000000E-03 0.  1.
    9900012    2    1    2    0    0 -0.61240690722E+01  0.15535443403E+02 -0.84749959938E+01  0.72461553973E+02  0.69999978738E+02 0.  0.
         12    1    1    2    0    0  0.61240690722E+01 -0.15535443403E+02  0.84749959938E+01  0.18726446027E+02  0.00000000000E+00 0. -1.
         11    1    3    3    0    0  0.28654840536E+02  0.97040028384E+01 -0.43812713777E+01  0.30568989129E+02  0.51100000000E-03 0. -1.
        -11    1    3    3    0    0 -0.84359586681E+01  0.40847873624E+00  0.86861260299E+01  0.12115322497E+02  0.51100000000E-03 0.  1.
        -12    1    3    3    0    0 -0.26342950940E+02  0.54229618280E+01 -0.12779850646E+02  0.29777242347E+02  0.00000000000E+00 0.  1.
</event>
<event>
 7    1  0.3196678E-013  0.7246156E+02  0.7816164E-02  0.1226708E+00
        -11   -1    0    0    0    0  0.00000000000E+00  0.00000000000E+00  0.45593999997E+02  0.45594000000E+02  0.51100000000E-03 0. -1.
         11   -1    0    0    0    0 -0.00000000000E+00 -0.00000000000E+00 -0.45593999997E+02  0.45594000000E+02  0.51100000000E-03 0.  1.
    9900012    2    1    2    0    0 -0.17256056284E+02  0.66536386692E+00 -0.72432982713E+01  0.72461559937E+02  0.69999986508E+02 0.  0.
         12    1    1    2    0    0  0.17256056284E+02 -0.66536386692E+00  0.72432982713E+01  0.18726440063E+02  0.00000000000E+00 0. -1.
         11    1    3    3    0    0  0.11165521043E+02 -0.45635529411E+01 -0.24058305962E+02  0.26912765774E+02  0.51100000000E-03 0. -1.
        -11    1    3    3    0    0  0.48425596258E+01  0.28081793602E+00 -0.37482075909E+01  0.61301144238E+01  0.51100000000E-03 0.  1.
        -12    1    3    3    0    0 -0.33264136953E+02  0.49480988720E+01  0.20563215281E+02  0.39418679739E+02  0.00000000000E+00 0.  1.
</event>
<event>
 7    1  0.3196678E-013  0.7246153E+02  0.7816164E-02  0.1226708E+00
        -11   -1    0    0    0    0  0.00000000000E+00  0.00000000000E+00  0.45593999997E+02  0.45594000000E+02  0.51100000000E-03 0.  1.
         11   -1    0    0    0    0 -0.00000000000E+00 -0.00000000000E+00 -0.45593999997E+02  0.45594000000E+02  0.51100000000E-03 0. -1.
    9900012    2    1    2    0    0  0.76492056999E+00 -0.14443098621E+02  0.11895055692E+02  0.72461533404E+02  0.69999951944E+02 0.  0.
         12    1    1    2    0    0 -0.76492056999E+00  0.14443098621E+02 -0.11895055692E+02  0.18726466596E+02  0.00000000000E+00 0. -1.
         11    1    3    3    0    0  0.12711741924E+02 -0.19903589161E+01 -0.26214788064E+01  0.13130958181E+02  0.51100000000E-03 0. -1.
        -11    1    3    3    0    0  0.14651970519E+02  0.13111741768E+02  0.10304464366E+02  0.22198648572E+02  0.51100000000E-03 0.  1.
         12    1    3    3    0    0 -0.26598791873E+02 -0.25564481473E+02  0.42120701323E+01  0.37131926652E+02  0.00000000000E+00 0. -1.
</event>
<event>
 7    1  0.3196678E-013  0.7246158E+02  0.7816164E-02  0.1226708E+00
        -11   -1    0    0    0    0  0.00000000000E+00  0.00000000000E+00  0.45593999997E+02  0.45594000000E+02  0.51100000000E-03 0. -1.
         11   -1    0    0    0    0 -0.00000000000E+00 -0.00000000000E+00 -0.45593999997E+02  0.45594000000E+02  0.51100000000E-03 0.  1.
    9900012    2    1    2    0    0  0.20343869570E+01  0.71800664487E+00 -0.18601732073E+02  0.72461582832E+02  0.70000016332E+02 0.  0.
         12    1    1    2    0    0 -0.20343869570E+01 -0.71800664487E+00  0.18601732073E+02  0.18726417168E+02  0.00000000000E+00 0. -1.
         11    1    3    3    0    0  0.18099730841E+01 -0.20574269418E+01  0.50692699166E+01  0.57625086494E+01  0.51100000000E-03 0. -1.
        -11    1    3    3    0    0  0.27341030998E+02 -0.10954601471E+02 -0.21027893002E+02  0.36189881926E+02  0.51100000000E-03 0.  1.
         12    1    3    3    0    0 -0.27116617125E+02  0.13730035058E+02 -0.26431089876E+01  0.30509192256E+02  0.00000000000E+00 0. -1.
</event>
<event>
 7    1  0.3196678E-013  0.7246157E+02  0.7816164E-02  0.1226708E+00
        -11   -1    0    0    0    0  0.00000000000E+00  0.00000000000E+00  0.45593999997E+02  0.45594000000E+02  0.51100000000E-03 0. -1.
         11   -1    0    0    0    0 -0.00000000000E+00 -0.00000000000E+00 -0.45593999997E+02  0.45594000000E+02  0.51100000000E-03 0.  1.
    9900012    2    1    2    0    0  0.62769098141E+01  0.46347893272E+01 -0.17023461382E+02  0.72461571981E+02  0.70000002198E+02 0.  0.
         12    1    1    2    0    0 -0.62769098141E+01 -0.46347893272E+01  0.17023461382E+02  0.18726428019E+02  0.00000000000E+00 0. -1.
         11    1    3    3    0    0  0.15091636139E+02  0.60180572971E+01  0.23120010291E+01  0.16410967186E+02  0.51100000000E-03 0. -1.
        -11    1    3    3    0    0  0.21327988152E+02  0.47297604043E+01 -0.75640467590E+01  0.23118575123E+02  0.51100000000E-03 0.  1.
         12    1    3    3    0    0 -0.30142714476E+02 -0.61130283742E+01 -0.11771415652E+02  0.32932029672E+02  0.00000000000E+00 0. -1.
</event>
<event>
 7    1  0.3196678E-013  0.7246162E+02  0.7816164E-02  0.1226708E+00
        -11   -1    0    0    0    0  0.00000000000E+00  0.00000000000E+00  0.45593999997E+02  0.45594000000E+02  0.51100000000E-03 0.  1.
         11   -1    0    0    0    0 -0.00000000000E+00 -0.00000000000E+00 -0.45593999997E+02  0.45594000000E+02  0.51100000000E-03 0. -1.
    9900012    2    1    2    0    0  0.95814247069E+01 -0.13106710972E+02  0.93320802081E+01  0.72461620400E+02  0.70000065271E+02 0.  0.
         12    1    1    2    0    0 -0.95814247069E+01  0.13106710972E+02 -0.93320802081E+01  0.18726379600E+02  0.00000000000E+00 0. -1.
         11    1    3    3    0    0 -0.23048211653E+01  0.65052315218E+01  0.17446995209E+02  0.18762406025E+02  0.51100000000E-03 0. -1.
        -11    1    3    3    0    0 -0.22060371593E+00  0.12021214781E+02  0.96824584281E+01  0.15437236549E+02  0.51100000000E-03 0.  1.
        -12    1    3    3    0    0  0.12106849588E+02 -0.31633157275E+02 -0.17797373429E+02  0.38261977825E+02  0.00000000000E+00 0.  1.
</event>
<event>
 7    1  0.3196678E-013  0.7246151E+02  0.7816164E-02  0.1226708E+00
        -11   -1    0    0    0    0  0.00000000000E+00  0.00000000000E+00  0.45593999997E+02  0.45594000000E+02  0.51100000000E-03 0. -1.
         11   -1    0    0    0    0 -0.00000000000E+00 -0.00000000000E+00 -0.45593999997E+02  0.45594000000E+02  0.51100000000E-03 0.  1.
    9900012    2    1    2    0    0  0.18441233210E+02  0.31206712781E+01  0.92948012720E+00  0.72461505271E+02  0.69999915295E+02 0.  0.
         12    1    1    2    0    0 -0.18441233210E+02 -0.31206712781E+01 -0.92948012720E+00  0.18726494729E+02  0.00000000000E+00 0. -1.
         11    1    3    3    0    0  0.61141910450E+01  0.14906388800E+02  0.10146871323E+02  0.19040555588E+02  0.51100000000E-03 0. -1.
        -11    1    3    3    0    0  0.13368479823E+02  0.16441635103E+02 -0.13093773561E+02  0.24909647207E+02  0.51100000000E-03 0.  1.
         12    1    3    3    0    0 -0.10414376579E+01 -0.28227352625E+02  0.38763823654E+01  0.28511302476E+02  0.00000000000E+00 0. -1.
</event>
<event>
 7    1  0.3196678E-013  0.7246158E+02  0.7816164E-02  0.1226708E+00
        -11   -1    0    0    0    0  0.00000000000E+00  0.00000000000E+00  0.45593999997E+02  0.45594000000E+02  0.51100000000E-03 0.  1.
         11   -1    0    0    0    0 -0.00000000000E+00 -0.00000000000E+00 -0.45593999997E+02  0.45594000000E+02  0.51100000000E-03 0. -1.
    9900012    2    1    2    0    0 -0.37232595892E+01  0.18333995051E+02 -0.82499062003E+00  0.72461584272E+02  0.70000018208E+02 0.  0.
         12    1    1    2    0    0  0.37232595892E+01 -0.18333995051E+02  0.82499062003E+00  0.18726415728E+02  0.00000000000E+00 0. -1.
         11    1    3    3    0    0  0.98094910814E+01  0.81845740198E+01 -0.16536266298E+01  0.12882074695E+02  0.51100000000E-03 0. -1.
        -11    1    3    3    0    0  0.17867819880E+02  0.18994459588E+02 -0.46822808736E+01  0.26494758666E+02  0.51100000000E-03 0.  1.
        -12    1    3    3    0    0 -0.31400570550E+02 -0.88450385573E+01  0.55109168834E+01  0.33084750911E+02  0.00000000000E+00 0.  1.
</event>
<event>
 7    1  0.3421075E-013  0.7246158E+02  0.7816164E-02  0.1226708E+00
        -11   -1    0    0    0    0  0.00000000000E+00  0.00000000000E+00  0.45593999997E+02  0.45594000000E+02  0.51100000000E-03 0.  1.
         11   -1    0    0    0    0 -0.00000000000E+00 -0.00000000000E+00 -0.45593999997E+02  0.45594000000E+02  0.51100000000E-03 0. -1.
    9900012    2    1    2    0    0 -0.82170998788E+01  0.16411068184E+02  0.37195549118E+01  0.72461575405E+02  0.70000006658E+02 0.  0.
         12    1    1    2    0    0  0.82170998788E+01 -0.16411068184E+02 -0.37195549118E+01  0.18726424595E+02  0.00000000000E+00 0. -1.
         11    1    3    3    0    0 -0.14097200349E+01  0.28293148019E+01  0.78049279937E+01  0.84207620839E+01  0.51100000000E-03 0. -1.
        -11    1    3    3    0    0  0.16997318264E+02  0.29406217837E+02  0.43376948316E+01  0.34241058283E+02  0.51100000000E-03 0.  1.
         12    1    3    3    0    0 -0.23804698108E+02 -0.15824464455E+02 -0.84230679135E+01  0.29799755038E+02  0.00000000000E+00 0. -1.
</event>
<event>
 7    1  0.3196678E-013  0.7246158E+02  0.7816164E-02  0.1226708E+00
        -11   -1    0    0    0    0  0.00000000000E+00  0.00000000000E+00  0.45593999997E+02  0.45594000000E+02  0.51100000000E-03 0.  1.
         11   -1    0    0    0    0 -0.00000000000E+00 -0.00000000000E+00 -0.45593999997E+02  0.45594000000E+02  0.51100000000E-03 0. -1.
    9900012    2    1    2    0    0 -0.10615669405E+00  0.41092867200E+01  0.18269686347E+02  0.72461576268E+02  0.70000007782E+02 0.  0.
         12    1    1    2    0    0  0.10615669405E+00 -0.41092867200E+01 -0.18269686347E+02  0.18726423732E+02  0.00000000000E+00 0. -1.
         11    1    3    3    0    0 -0.15039452795E+02 -0.61133296420E+01  0.73442067957E+01  0.17818398172E+02  0.51100000000E-03 0. -1.
        -11    1    3    3    0    0 -0.14931951310E+02  0.17120091917E+02  0.24952103677E+01  0.22853594732E+02  0.51100000000E-03 0.  1.
         12    1    3    3    0    0  0.29865247411E+02 -0.68974755546E+01  0.84302691831E+01  0.31789583364E+02  0.00000000000E+00 0. -1.
</event>
<event>
 7    1  0.3196678E-013  0.7246165E+02  0.7816164E-02  0.1226708E+00
        -11   -1    0    0    0    0  0.00000000000E+00  0.00000000000E+00  0.45593999997E+02  0.45594000000E+02  0.51100000000E-03 0. -1.
         11   -1    0    0    0    0 -0.00000000000E+00 -0.00000000000E+00 -0.45593999997E+02  0.45594000000E+02  0.51100000000E-03 0.  1.
    9900012    2    1    2    0    0  0.88641176022E+01 -0.13471134394E+02 -0.95200848589E+01  0.72461653361E+02  0.70000108209E+02 0.  0.
         12    1    1    2    0    0 -0.88641176022E+01  0.13471134394E+02  0.95200848589E+01  0.18726346639E+02  0.00000000000E+00 0. -1.
         11    1    3    3    0    0 -0.24578354895E+00 -0.16914044531E+01 -0.23617708332E+02  0.23679472243E+02  0.51100000000E-03 0. -1.
        -11    1    3    3    0    0 -0.55139550892E+01  0.14990499570E+02  0.25975668376E+01  0.16182278326E+02  0.51100000000E-03 0.  1.
         12    1    3    3    0    0  0.14623856240E+02 -0.26770229511E+02  0.11500056636E+02  0.32599902792E+02  0.00000000000E+00 0. -1.
</event>
<event>
 7    1  0.3196678E-013  0.7246151E+02  0.7816164E-02  0.1226708E+00
        -11   -1    0    0    0    0  0.00000000000E+00  0.00000000000E+00  0.45593999997E+02  0.45594000000E+02  0.51100000000E-03 0. -1.
         11   -1    0    0    0    0 -0.00000000000E+00 -0.00000000000E+00 -0.45593999997E+02  0.45594000000E+02  0.51100000000E-03 0.  1.
    9900012    2    1    2    0    0  0.62685446471E+01  0.17646155674E+02  0.11982643394E-02  0.72461509045E+02  0.69999920211E+02 0.  0.
         12    1    1    2    0    0 -0.62685446471E+01 -0.17646155674E+02 -0.11982643394E-02  0.18726490955E+02  0.00000000000E+00 0. -1.
         11    1    3    3    0    0  0.16114473536E+02 -0.73399568917E+01  0.13408762307E+02  0.22211396431E+02  0.51100000000E-03 0. -1.
        -11    1    3    3    0    0  0.15268292339E+02  0.55664642189E+01 -0.14111043725E+01  0.16312494924E+02  0.51100000000E-03 0.  1.
        -12    1    3    3    0    0 -0.25114221228E+02  0.19419648347E+02 -0.11996459671E+02  0.33937617690E+02  0.00000000000E+00 0.  1.
</event>
<event>
 7    1  0.3196678E-013  0.7246154E+02  0.7816164E-02  0.1226708E+00
        -11   -1    0    0    0    0  0.00000000000E+00  0.00000000000E+00  0.45593999997E+02  0.45594000000E+02  0.51100000000E-03 0.  1.
         11   -1    0    0    0    0 -0.00000000000E+00 -0.00000000000E+00 -0.45593999997E+02  0.45594000000E+02  0.51100000000E-03 0. -1.
    9900012    2    1    2    0    0 -0.71075954028E+01  0.16059746088E+02 -0.64997509024E+01  0.72461544953E+02  0.69999966988E+02 0.  0.
         12    1    1    2    0    0  0.71075954028E+01 -0.16059746088E+02  0.64997509024E+01  0.18726455047E+02  0.00000000000E+00 0. -1.
         11    1    3    3    0    0  0.29497299387E+02  0.11545879616E+02 -0.76243207166E+01  0.32581103018E+02  0.51100000000E-03 0. -1.
        -11    1    3    3    0    0 -0.14359504717E+02  0.90690380037E+01  0.23236412067E+01  0.17141824137E+02  0.51100000000E-03 0.  1.
        -12    1    3    3    0    0 -0.22245390072E+02 -0.45551715316E+01 -0.11990713925E+01  0.22738617798E+02  0.00000000000E+00 0.  1.
</event>
<event>
 7    1  0.3196678E-013  0.7246159E+02  0.7816164E-02  0.1226708E+00
        -11   -1    0    0    0    0  0.00000000000E+00  0.00000000000E+00  0.45593999997E+02  0.45594000000E+02  0.51100000000E-03 0. -1.
         11   -1    0    0    0    0 -0.00000000000E+00 -0.00000000000E+00 -0.45593999997E+02  0.45594000000E+02  0.51100000000E-03 0.  1.
    9900012    2    1    2    0    0  0.36789181497E+01  0.89435975544E+01 -0.16036086582E+02  0.72461589537E+02  0.70000025067E+02 0.  0.
         12    1    1    2    0    0 -0.36789181497E+01 -0.89435975544E+01  0.16036086582E+02  0.18726410463E+02  0.00000000000E+00 0. -1.
         11    1    3    3    0    0 -0.48659448431E+01 -0.22545735437E+02 -0.42630034711E+01  0.23455506911E+02  0.51100000000E-03 0. -1.
        -11    1    3    3    0    0 -0.16554430820E+01 -0.69951550439E+01  0.85258560338E+00  0.72387559952E+01  0.51100000000E-03 0.  1.
        -12    1    3    3    0    0  0.10200306075E+02  0.38484488035E+02 -0.12625668714E+02  0.41767326630E+02  0.00000000000E+00 0.  1.
</event>
<event>
 7    1  0.3196678E-013  0.7246154E+02  0.7816164E-02  0.1226708E+00
        -11   -1    0    0    0    0  0.00000000000E+00  0.00000000000E+00  0.45593999997E+02  0.45594000000E+02  0.51100000000E-03 0. -1.
         11   -1    0    0    0    0 -0.00000000000E+00 -0.00000000000E+00 -0.45593999997E+02  0.45594000000E+02  0.51100000000E-03 0.  1.
    9900012    2    1    2    0    0  0.12219976068E+02  0.99193720580E+01 -0.10146841971E+02  0.72461543872E+02  0.69999965580E+02 0.  0.
         12    1    1    2    0    0 -0.12219976068E+02 -0.99193720580E+01  0.10146841971E+02  0.18726456128E+02  0.00000000000E+00 0. -1.
         11    1    3    3    0    0  0.72296358325E+01  0.12530190156E+02 -0.22172757568E+01  0.14635218196E+02  0.51100000000E-03 0. -1.
        -11    1    3    3    0    0  0.22943607757E+02  0.16942005489E+02 -0.12052855429E+02  0.30963074963E+02  0.51100000000E-03 0.  1.
         12    1    3    3    0    0 -0.17953267522E+02 -0.19552823586E+02  0.41232892151E+01  0.26863250713E+02  0.00000000000E+00 0. -1.
</event>
<event>
 7    1  0.3196678E-013  0.7246158E+02  0.7816164E-02  0.1226708E+00
        -11   -1    0    0    0    0  0.00000000000E+00  0.00000000000E+00  0.45593999997E+02  0.45594000000E+02  0.51100000000E-03 0.  1.
         11   -1    0    0    0    0 -0.00000000000E+00 -0.00000000000E+00 -0.45593999997E+02  0.45594000000E+02  0.51100000000E-03 0. -1.
    9900012    2    1    2    0    0  0.45676240640E+01 -0.17232779632E+02  0.57312376596E+01  0.72461575661E+02  0.70000006991E+02 0.  0.
         12    1    1    2    0    0 -0.45676240640E+01  0.17232779632E+02 -0.57312376596E+01  0.18726424339E+02  0.00000000000E+00 0. -1.
         11    1    3    3    0    0 -0.19570041727E+01 -0.16721818313E+01 -0.93941194782E+01  0.97404075089E+01  0.51100000000E-03 0. -1.
        -11    1    3    3    0    0 -0.17046479648E+02  0.14450616696E+02  0.89059326136E+01  0.24056567238E+02  0.51100000000E-03 0.  1.
        -12    1    3    3    0    0  0.23571107885E+02 -0.30011214496E+02  0.62194245241E+01  0.38664600914E+02  0.00000000000E+00 0.  1.
</event>
<event>
 7    1  0.3196678E-013  0.7246156E+02  0.7816164E-02  0.1226708E+00
        -11   -1    0    0    0    0  0.00000000000E+00  0.00000000000E+00  0.45593999997E+02  0.45594000000E+02  0.51100000000E-03 0. -1.
         11   -1    0    0    0    0 -0.00000000000E+00 -0.00000000000E+00 -0.45593999997E+02  0.45594000000E+02  0.51100000000E-03 0.  1.
    9900012    2    1    2    0    0  0.30825466852E+01  0.65097096021E+01 -0.17285867936E+02  0.72461557640E+02  0.69999983515E+02 0.  0.
         12    1    1    2    0    0 -0.30825466852E+01 -0.65097096021E+01  0.17285867936E+02  0.18726442360E+02  0.00000000000E+00 0. -1.
         11    1    3    3    0    0  0.35161931758E+01  0.11609576999E+01  0.98270768077E+01  0.10501565411E+02  0.51100000000E-03 0. -1.
        -11    1    3    3    0    0  0.16966919026E+01 -0.15748359001E+02 -0.35720727218E+02  0.39075055059E+02  0.51100000000E-03 0.  1.
         12    1    3    3    0    0 -0.21303383932E+01  0.21097110903E+02  0.86077824745E+01  0.22884937170E+02  0.00000000000E+00 0. -1.
</event>
<event>
 7    1  0.3196678E-013  0.7246159E+02  0.7816164E-02  0.1226708E+00
        -11   -1    0    0    0    0  0.00000000000E+00  0.00000000000E+00  0.45593999997E+02  0.45594000000E+02  0.51100000000E-03 0.  1.
         11   -1    0    0    0    0 -0.00000000000E+00 -0.00000000000E+00 -0.45593999997E+02  0.45594000000E+02  0.51100000000E-03 0. -1.
    9900012    2    1    2    0    0  0.11869749943E+02  0.63810632818E+01  0.13002671132E+02  0.72461591138E+02  0.70000027152E+02 0.  0.
         12    1    1    2    0    0 -0.11869749943E+02 -0.63810632818E+01 -0.13002671132E+02  0.18726408862E+02  0.00000000000E+00 0. -1.
         11    1    3    3    0    0 -0.59661128754E+00  0.19853406639E+02  0.10722681782E+02  0.22571876419E+02  0.51100000000E-03 0. -1.
        -11    1    3    3    0    0  0.17978946661E+02  0.76548860836E+01  0.14987505322E+02  0.24626512543E+02  0.51100000000E-03 0.  1.
         12    1    3    3    0    0 -0.55125854303E+01 -0.21127229441E+02 -0.12707515973E+02  0.25263202176E+02  0.00000000000E+00 0. -1.
</event>
<event>
 7    1  0.3196678E-013  0.7246158E+02  0.7816164E-02  0.1226708E+00
        -11   -1    0    0    0    0  0.00000000000E+00  0.00000000000E+00  0.45593999997E+02  0.45594000000E+02  0.51100000000E-03 0. -1.
         11   -1    0    0    0    0 -0.00000000000E+00 -0.00000000000E+00 -0.45593999997E+02  0.45594000000E+02  0.51100000000E-03 0.  1.
    9900012    2    1    2    0    0  0.86470435722E+01  0.10378312507E+02 -0.12969114340E+02  0.72461583904E+02  0.70000017729E+02 0.  0.
         12    1    1    2    0    0 -0.86470435722E+01 -0.10378312507E+02  0.12969114340E+02  0.18726416096E+02  0.00000000000E+00 0. -1.
         11    1    3    3    0    0 -0.64018032118E+01  0.21753712661E+02  0.16240287478E+02  0.27891827415E+02  0.51100000000E-03 0. -1.
        -11    1    3    3    0    0 -0.12840129475E+01 -0.41823591902E+01  0.45943289354E+01  0.63441844451E+01  0.51100000000E-03 0.  1.
        -12    1    3    3    0    0  0.16332859731E+02 -0.71930409633E+01 -0.33803730753E+02  0.38225572044E+02  0.00000000000E+00 0.  1.
</event>
<event>
 7    1  0.3196678E-013  0.7246159E+02  0.7816164E-02  0.1226708E+00
        -11   -1    0    0    0    0  0.00000000000E+00  0.00000000000E+00  0.45593999997E+02  0.45594000000E+02  0.51100000000E-03 0.  1.
         11   -1    0    0    0    0 -0.00000000000E+00 -0.00000000000E+00 -0.45593999997E+02  0.45594000000E+02  0.51100000000E-03 0. -1.
    9900012    2    1    2    0    0 -0.13766640383E+01  0.28902693723E+01  0.18450729666E+02  0.72461593881E+02  0.70000030726E+02 0.  0.
         12    1    1    2    0    0  0.13766640383E+01 -0.28902693723E+01 -0.18450729666E+02  0.18726406119E+02  0.00000000000E+00 0. -1.
         11    1    3    3    0    0 -0.37532682857E+01  0.63378095087E+01  0.14231484853E+02  0.16024668907E+02  0.51100000000E-03 0. -1.
        -11    1    3    3    0    0 -0.10981477664E+02  0.23432990828E+02  0.52365035819E+01  0.26403008935E+02  0.51100000000E-03 0.  1.
         12    1    3    3    0    0  0.13358081911E+02 -0.26880530964E+02 -0.10172587687E+01  0.30033916039E+02  0.00000000000E+00 0. -1.
</event>
<event>
 7    1  0.3196678E-013  0.7246168E+02  0.7816164E-02  0.1226708E+00
        -11   -1    0    0    0    0  0.00000000000E+00  0.00000000000E+00  0.45593999997E+02  0.45594000000E+02  0.51100000000E-03 0. -1.
         11   -1    0    0    0    0 -0.00000000000E+00 -0.00000000000E+00 -0.45593999997E+02  0.45594000000E+02  0.51100000000E-03 0.  1.
    9900012    2    1    2    0    0 -0.14342042993E+02  0.70817495307E+00 -0.12019949666E+02  0.72461684319E+02  0.70000148539E+02 0.  0.
         12    1    1    2    0    0  0.14342042993E+02 -0.70817495307E+00  0.12019949666E+02  0.18726315681E+02  0.00000000000E+00 0. -1.
         11    1    3    3    0    0 -0.33449791495E+01 -0.32135679841E+01  0.33098440442E+01  0.56983306816E+01  0.51100000000E-03 0. -1.
        -11    1    3    3    0    0 -0.14496937064E+02  0.39004956526E+01 -0.39543856478E+02  0.42297655207E+02  0.51100000000E-03 0.  1.
         12    1    3    3    0    0  0.34998732203E+01  0.21247284517E-01  0.24214062768E+02  0.24465698431E+02  0.00000000000E+00 0. -1.
</event>
<event>
 7    1  0.3196678E-013  0.7246161E+02  0.7816164E-02  0.1226708E+00
        -11   -1    0    0    0    0  0.00000000000E+00  0.00000000000E+00  0.45593999997E+02  0.45594000000E+02  0.51100000000E-03 0.  1.
         11   -1    0    0    0    0 -0.00000000000E+00 -0.00000000000E+00 -0.45593999997E+02  0.45594000000E+02  0.51100000000E-03 0. -1.
    9900012    2    1    2    0    0 -0.11839351108E+02 -0.20988068379E-01  0.14508865541E+02  0.72461605407E+02  0.70000045741E+02 0.  0.
         12    1    1    2    0    0  0.11839351108E+02  0.20988068379E-01 -0.14508865541E+02  0.18726394593E+02  0.00000000000E+00 0. -1.
         11    1    3    3    0    0 -0.11033893360E+02 -0.87975036377E+01 -0.95911039273E+01  0.17062594988E+02  0.51100000000E-03 0. -1.
        -11    1    3    3    0    0 -0.82259328007E+01 -0.90029437492E+01 -0.10305757120E+02  0.15966452225E+02  0.51100000000E-03 0.  1.
        -12    1    3    3    0    0  0.74204750526E+01  0.17779459319E+02  0.34405726588E+02  0.39432558194E+02  0.00000000000E+00 0.  1.
</event>
<event>
 7    1  0.3196678E-013  0.7246161E+02  0.7816164E-02  0.1226708E+00
        -11   -1    0    0    0    0  0.00000000000E+00  0.00000000000E+00  0.45593999997E+02  0.45594000000E+02  0.51100000000E-03 0.  1.
         11   -1    0    0    0    0 -0.00000000000E+00 -0.00000000000E+00 -0.45593999997E+02  0.45594000000E+02  0.51100000000E-03 0. -1.
    9900012    2    1    2    0    0 -0.16626077215E+02  0.76765664246E+00  0.85826503683E+01  0.72461611463E+02  0.70000053630E+02 0.  0.
         12    1    1    2    0    0  0.16626077215E+02 -0.76765664246E+00 -0.85826503683E+01  0.18726388537E+02  0.00000000000E+00 0. -1.
         11    1    3    3    0    0  0.10032784130E+01 -0.18097342630E+01 -0.12406296876E+02  0.12577674989E+02  0.51100000000E-03 0. -1.
        -11    1    3    3    0    0  0.35904003549E+01 -0.19954722970E+02 -0.32977830097E+01  0.20541599659E+02  0.51100000000E-03 0.  1.
        -12    1    3    3    0    0 -0.21219755983E+02  0.22532113875E+02  0.24286730254E+02  0.39342336816E+02  0.00000000000E+00 0.  1.
</event>
<event>
 7    1  0.3196678E-013  0.7246158E+02  0.7816164E-02  0.1226708E+00
        -11   -1    0    0    0    0  0.00000000000E+00  0.00000000000E+00  0.45593999997E+02  0.45594000000E+02  0.51100000000E-03 0. -1.
         11   -1    0    0    0    0 -0.00000000000E+00 -0.00000000000E+00 -0.45593999997E+02  0.45594000000E+02  0.51100000000E-03 0.  1.
    9900012    2    1    2    0    0  0.15940312719E+02 -0.84266945425E+01  0.50572842736E+01  0.72461578165E+02  0.70000010254E+02 0.  0.
         12    1    1    2    0    0 -0.15940312719E+02  0.84266945425E+01 -0.50572842736E+01  0.18726421835E+02  0.00000000000E+00 0. -1.
         11    1    3    3    0    0  0.14568130163E+02 -0.14657326820E+02  0.10248995474E+02  0.23067499961E+02  0.51100000000E-03 0. -1.
        -11    1    3    3    0    0  0.11720119844E+02  0.20170235540E+02  0.10876142553E+02  0.25738882803E+02  0.51100000000E-03 0.  1.
        -12    1    3    3    0    0 -0.10347937287E+02 -0.13939603262E+02 -0.16067853754E+02  0.23655195401E+02  0.00000000000E+00 0.  1.
</event>
<event>
 7    1  0.3196678E-013  0.7246155E+02  0.7816164E-02  0.1226708E+00
        -11   -1    0    0    0    0  0.00000000000E+00  0.00000000000E+00  0.45593999997E+02  0.45594000000E+02  0.51100000000E-03 0. -1.
         11   -1    0    0    0    0 -0.00000000000E+00 -0.00000000000E+00 -0.45593999997E+02  0.45594000000E+02  0.51100000000E-03 0.  1.
    9900012    2    1    2    0    0 -0.12540543609E+02  0.13885814797E+02 -0.77386371770E+00  0.72461549412E+02  0.69999972797E+02 0.  0.
         12    1    1    2    0    0  0.12540543609E+02 -0.13885814797E+02  0.77386371770E+00  0.18726450588E+02  0.00000000000E+00 0. -1.
         11    1    3    3    0    0 -0.23299317456E+02 -0.57586162147E+01 -0.20412154950E+01  0.24087059090E+02  0.51100000000E-03 0. -1.
        -11    1    3    3    0    0 -0.79261317253E+01  0.11583448103E+02 -0.16286440393E+02  0.21499952907E+02  0.51100000000E-03 0.  1.
        -12    1    3    3    0    0  0.18684905573E+02  0.80609829090E+01  0.17553792170E+02  0.26874537415E+02  0.00000000000E+00 0.  1.
</event>
<event>
 7    1  0.3196678E-013  0.7246155E+02  0.7816164E-02  0.1226708E+00
        -11   -1    0    0    0    0  0.00000000000E+00  0.00000000000E+00  0.45593999997E+02  0.45594000000E+02  0.51100000000E-03 0.  1.
         11   -1    0    0    0    0 -0.00000000000E+00 -0.00000000000E+00 -0.45593999997E+02  0.45594000000E+02  0.51100000000E-03 0. -1.
    9900012    2    1    2    0    0  0.72680548549E+01 -0.42184860339E+01  0.16734983377E+02  0.72461550405E+02  0.69999974091E+02 0.  0.
         12    1    1    2    0    0 -0.72680548549E+01  0.42184860339E+01 -0.16734983377E+02  0.18726449595E+02  0.00000000000E+00 0. -1.
         11    1    3    3    0    0  0.93634582060E+01 -0.26192809632E+02  0.55843604124E+01  0.28371159783E+02  0.51100000000E-03 0. -1.
        -11    1    3    3    0    0  0.13381750322E+02 -0.25786082083E+01  0.32418885952E+01  0.14008222724E+02  0.51100000000E-03 0.  1.
         12    1    3    3    0    0 -0.15477153673E+02  0.24552931806E+02  0.79087343694E+01  0.30082167898E+02  0.00000000000E+00 0. -1.
</event>
<event>
 7    1  0.3196678E-013  0.7246213E+02  0.7816164E-02  0.1226707E+00
        -11   -1    0    0    0    0  0.00000000000E+00  0.00000000000E+00  0.45593999997E+02  0.45594000000E+02  0.51100000000E-03 0.  1.
         11   -1    0    0    0    0 -0.00000000000E+00 -0.00000000000E+00 -0.45593999997E+02  0.45594000000E+02  0.51100000000E-03 0. -1.
    9900012    2    1    2    0    0  0.48011536428E+01 -0.13782368505E+01  0.18047375002E+02  0.72462125986E+02  0.70000723888E+02 0.  0.
         12    1    1    2    0    0 -0.48011536428E+01  0.13782368505E+01 -0.18047375002E+02  0.18725874014E+02  0.00000000000E+00 0. -1.
         11    1    3    3    0    0 -0.61044269330E+01  0.12012332381E+02  0.36771496400E+01  0.13967161027E+02  0.51100000000E-03 0. -1.
        -11    1    3    3    0    0 -0.14533915862E+01 -0.25865441356E+02  0.26572664195E+02  0.37111182766E+02  0.51100000000E-03 0.  1.
         12    1    3    3    0    0  0.12358972162E+02  0.12474872124E+02 -0.12202438832E+02  0.21383782193E+02  0.00000000000E+00 0. -1.
</event>
<event>
 7    1  0.3196678E-013  0.7246167E+02  0.7816164E-02  0.1226708E+00
        -11   -1    0    0    0    0  0.00000000000E+00  0.00000000000E+00  0.45593999997E+02  0.45594000000E+02  0.51100000000E-03 0. -1.
         11   -1    0    0    0    0 -0.00000000000E+00 -0.00000000000E+00 -0.45593999997E+02  0.45594000000E+02  0.51100000000E-03 0.  1.
    9900012    2    1    2    0    0 -0.18712211814E+02  0.60180794402E+00  0.40791033812E+00  0.72461670018E+02  0.70000129908E+02 0.  0.
         12    1    1    2    0    0  0.18712211814E+02 -0.60180794402E+00 -0.40791033812E+00  0.18726329982E+02  0.00000000000E+00 0. -1.
         11    1    3    3    0    0 -0.20678671375E+02  0.28491850658E+02 -0.12483827459E+00  0.35205235245E+02  0.51100000000E-03 0. -1.
        -11    1    3    3    0    0  0.11584116093E+02 -0.63006443599E+01 -0.25199640029E+01  0.13425352280E+02  0.51100000000E-03 0.  1.
        -12    1    3    3    0    0 -0.96176565317E+01 -0.21589398355E+02  0.30527126156E+01  0.23831082493E+02  0.00000000000E+00 0.  1.
</event>
<event>
 7    1  0.3196678E-013  0.7246113E+02  0.7816164E-02  0.1226709E+00
        -11   -1    0    0    0    0  0.00000000000E+00  0.00000000000E+00  0.45593999997E+02  0.45594000000E+02  0.51100000000E-03 0. -1.
         11   -1    0    0    0    0 -0.00000000000E+00 -0.00000000000E+00 -0.45593999997E+02  0.45594000000E+02  0.51100000000E-03 0.  1.
    9900012    2    1    2    0    0 -0.17568426102E+02 -0.37410011005E+01  0.52963181036E+01  0.72461129722E+02  0.69999426071E+02 0.  0.
         12    1    1    2    0    0  0.17568426102E+02  0.37410011005E+01 -0.52963181036E+01  0.18726870278E+02  0.00000000000E+00 0. -1.
         11    1    3    3    0    0 -0.23778500262E+02 -0.36375194422E+00  0.13597729225E+02  0.27394299234E+02  0.51100000000E-03 0. -1.
        -11    1    3    3    0    0 -0.76372900516E+01 -0.10921565465E+02  0.12964203686E+02  0.18592454626E+02  0.51100000000E-03 0.  1.
         12    1    3    3    0    0  0.13847364211E+02  0.75443163087E+01 -0.21265614808E+02  0.26474375863E+02  0.00000000000E+00 0. -1.
</event>
<event>
 7    1  0.3196678E-013  0.7246158E+02  0.7816164E-02  0.1226708E+00
        -11   -1    0    0    0    0  0.00000000000E+00  0.00000000000E+00  0.45593999997E+02  0.45594000000E+02  0.51100000000E-03 0. -1.
         11   -1    0    0    0    0 -0.00000000000E+00 -0.00000000000E+00 -0.45593999997E+02  0.45594000000E+02  0.51100000000E-03 0.  1.
    9900012    2    1    2    0    0  0.10360082454E+02  0.36291559011E+01 -0.15171579323E+02  0.72461577487E+02  0.70000009369E+02 0.  0.
         12    1    1    2    0    0 -0.10360082454E+02 -0.36291559011E+01  0.15171579323E+02  0.18726422513E+02  0.00000000000E+00 0. -1.
         11    1    3    3    0    0  0.63685114425E+01  0.20543585567E+02  0.16900828747E+02  0.27353881965E+02  0.51100000000E-03 0. -1.
        -11    1    3    3    0    0  0.97581543412E+01  0.34269134922E+01 -0.13182498372E+02  0.16755404376E+02  0.51100000000E-03 0.  1.
        -12    1    3    3    0    0 -0.57665833299E+01 -0.20341343158E+02 -0.18889909698E+02  0.28352291145E+02  0.00000000000E+00 0.  1.
</event>
<event>
 7    1  0.3196678E-013  0.7246157E+02  0.7816164E-02  0.1226708E+00
        -11   -1    0    0    0    0  0.00000000000E+00  0.00000000000E+00  0.45593999997E+02  0.45594000000E+02  0.51100000000E-03 0.  1.
         11   -1    0    0    0    0 -0.00000000000E+00 -0.00000000000E+00 -0.45593999997E+02  0.45594000000E+02  0.51100000000E-03 0. -1.
    9900012    2    1    2    0    0  0.13534548872E+02 -0.18813830233E+00  0.12940625456E+02  0.72461569577E+02  0.69999999066E+02 0.  0.
         12    1    1    2    0    0 -0.13534548872E+02  0.18813830233E+00 -0.12940625456E+02  0.18726430423E+02  0.00000000000E+00 0. -1.
         11    1    3    3    0    0  0.41323485745E+01  0.26022191046E+01 -0.13934017879E+02  0.14764982340E+02  0.51100000000E-03 0. -1.
        -11    1    3    3    0    0  0.15789744307E+02 -0.24001242500E+02  0.17523802814E+02  0.33652033106E+02  0.51100000000E-03 0.  1.
         12    1    3    3    0    0 -0.63875440091E+01  0.21210885093E+02  0.93508405204E+01  0.24044554131E+02  0.00000000000E+00 0. -1.
</event>
<event>
 7    1  0.3196678E-013  0.7246163E+02  0.7816164E-02  0.1226708E+00
        -11   -1    0    0    0    0  0.00000000000E+00  0.00000000000E+00  0.45593999997E+02  0.45594000000E+02  0.51100000000E-03 0.  1.
         11   -1    0    0    0    0 -0.00000000000E+00 -0.00000000000E+00 -0.45593999997E+02  0.45594000000E+02  0.51100000000E-03 0. -1.
    9900012    2    1    2    0    0 -0.12307384650E+02 -0.14027371758E+02 -0.15614685130E+01  0.72461626638E+02  0.70000073399E+02 0.  0.
         12    1    1    2    0    0  0.12307384650E+02  0.14027371758E+02  0.15614685130E+01  0.18726373362E+02  0.00000000000E+00 0. -1.
         11    1    3    3    0    0 -0.11645576997E+02 -0.11831938136E+02  0.91346594914E+01  0.18948779062E+02  0.51100000000E-03 0. -1.
        -11    1    3    3    0    0 -0.79212646407E+01  0.40501821103E+00  0.20182941837E+02  0.21685516243E+02  0.51100000000E-03 0.  1.
         12    1    3    3    0    0  0.72594569880E+01 -0.26004518326E+01 -0.30879069842E+02  0.31827331333E+02  0.00000000000E+00 0. -1.
</event>
<event>
 7    1  0.3196678E-013  0.7246157E+02  0.7816164E-02  0.1226708E+00
        -11   -1    0    0    0    0  0.00000000000E+00  0.00000000000E+00  0.45593999997E+02  0.45594000000E+02  0.51100000000E-03 0.  1.
         11   -1    0    0    0    0 -0.00000000000E+00 -0.00000000000E+00 -0.45593999997E+02  0.45594000000E+02  0.51100000000E-03 0. -1.
    9900012    2    1    2    0    0 -0.15272261867E+02 -0.42701198111E+00  0.10828426531E+02  0.72461571005E+02  0.70000000925E+02 0.  0.
         12    1    1    2    0    0  0.15272261867E+02  0.42701198111E+00 -0.10828426531E+02  0.18726428995E+02  0.00000000000E+00 0. -1.
         11    1    3    3    0    0  0.11717907604E+01 -0.60515968035E+01  0.79704940070E+00  0.62153202223E+01  0.51100000000E-03 0. -1.
        -11    1    3    3    0    0  0.15317148578E+02 -0.19234953388E+02 -0.37770413244E+00  0.24591484971E+02  0.51100000000E-03 0.  1.
         12    1    3    3    0    0 -0.31761201206E+02  0.24859538210E+02  0.10409081263E+02  0.41654765811E+02  0.00000000000E+00 0. -1.
</event>
<event>
 7    1  0.3196678E-013  0.7246157E+02  0.7816164E-02  0.1226708E+00
        -11   -1    0    0    0    0  0.00000000000E+00  0.00000000000E+00  0.45593999997E+02  0.45594000000E+02  0.51100000000E-03 0.  1.
         11   -1    0    0    0    0 -0.00000000000E+00 -0.00000000000E+00 -0.45593999997E+02  0.45594000000E+02  0.51100000000E-03 0. -1.
    9900012    2    1    2    0    0 -0.73093729464E+01 -0.38977526547E+01  0.16794638067E+02  0.72461567440E+02  0.69999996282E+02 0.  0.
         12    1    1    2    0    0  0.73093729464E+01  0.38977526547E+01 -0.16794638067E+02  0.18726432560E+02  0.00000000000E+00 0. -1.
         11    1    3    3    0    0 -0.25065327657E+02  0.71489629404E+01 -0.62706870424E+01  0.26808577693E+02  0.51100000000E-03 0. -1.
        -11    1    3    3    0    0  0.78965635583E+01  0.42654019878E+00 -0.79075035437E+01  0.11183302961E+02  0.51100000000E-03 0.  1.
        -12    1    3    3    0    0  0.98593911520E+01 -0.11473255794E+02  0.30972828653E+02  0.34469686786E+02  0.00000000000E+00 0.  1.
</event>
<event>
 7    1  0.3196678E-013  0.7246156E+02  0.7816164E-02  0.1226708E+00
        -11   -1    0    0    0    0  0.00000000000E+00  0.00000000000E+00  0.45593999997E+02  0.45594000000E+02  0.51100000000E-03 0.  1.
         11   -1    0    0    0    0 -0.00000000000E+00 -0.00000000000E+00 -0.45593999997E+02  0.45594000000E+02  0.51100000000E-03 0. -1.
    9900012    2    1    2    0    0  0.44779805621E+01  0.34111708264E+01  0.17860326551E+02  0.72461557176E+02  0.69999982912E+02 0.  0.
         12    1    1    2    0    0 -0.44779805621E+01 -0.34111708264E+01 -0.17860326551E+02  0.18726442824E+02  0.00000000000E+00 0. -1.
         11    1    3    3    0    0  0.34812340831E+01  0.19686532637E+02  0.14967502678E+02  0.24974080457E+02  0.51100000000E-03 0. -1.
        -11    1    3    3    0    0  0.18792954842E+02 -0.21573408293E+02 -0.48278839926E+00  0.28615034195E+02  0.51100000000E-03 0.  1.
         12    1    3    3    0    0 -0.17796208363E+02  0.52980464830E+01  0.33756122723E+01  0.18872442525E+02  0.00000000000E+00 0. -1.
</event>
<event>
 7    1  0.3196678E-013  0.7246157E+02  0.7816164E-02  0.1226708E+00
        -11   -1    0    0    0    0  0.00000000000E+00  0.00000000000E+00  0.45593999997E+02  0.45594000000E+02  0.51100000000E-03 0.  1.
         11   -1    0    0    0    0 -0.00000000000E+00 -0.00000000000E+00 -0.45593999997E+02  0.45594000000E+02  0.51100000000E-03 0. -1.
    9900012    2    1    2    0    0  0.69719315152E+01  0.11807871663E+02  0.12753250751E+02  0.72461573032E+02  0.70000003567E+02 0.  0.
         12    1    1    2    0    0 -0.69719315152E+01 -0.11807871663E+02 -0.12753250751E+02  0.18726426968E+02  0.00000000000E+00 0. -1.
         11    1    3    3    0    0 -0.10745904967E+01  0.43391407459E+01 -0.21376350581E+02  0.21838755724E+02  0.51100000000E-03 0. -1.
        -11    1    3    3    0    0  0.14126349920E+00  0.42721813639E+01 -0.72268927572E+01  0.83963961417E+01  0.51100000000E-03 0.  1.
        -12    1    3    3    0    0  0.79052585127E+01  0.31965495532E+01  0.41356494089E+02  0.42226421167E+02  0.00000000000E+00 0.  1.
</event>
<event>
 7    1  0.3196678E-013  0.7246157E+02  0.7816164E-02  0.1226708E+00
        -11   -1    0    0    0    0  0.00000000000E+00  0.00000000000E+00  0.45593999997E+02  0.45594000000E+02  0.51100000000E-03 0. -1.
         11   -1    0    0    0    0 -0.00000000000E+00 -0.00000000000E+00 -0.45593999997E+02  0.45594000000E+02  0.51100000000E-03 0.  1.
    9900012    2    1    2    0    0 -0.10409485541E+00 -0.48690442102E+01 -0.18082052275E+02  0.72461573706E+02  0.70000004445E+02 0.  0.
         12    1    1    2    0    0  0.10409485541E+00  0.48690442102E+01  0.18082052275E+02  0.18726426294E+02  0.00000000000E+00 0. -1.
         11    1    3    3    0    0  0.87070482587E+01 -0.13107398489E+02  0.15847647265E+02  0.22333036261E+02  0.51100000000E-03 0. -1.
        -11    1    3    3    0    0 -0.74781520683E+01  0.14627776025E+02 -0.89243127725E+00  0.16452690469E+02  0.51100000000E-03 0.  1.
        -12    1    3    3    0    0 -0.13329910457E+01 -0.63894217462E+01 -0.33037268262E+02  0.33675846977E+02  0.00000000000E+00 0.  1.
</event>
<event>
 7    1  0.3196678E-013  0.7246160E+02  0.7816164E-02  0.1226708E+00
        -11   -1    0    0    0    0  0.00000000000E+00  0.00000000000E+00  0.45593999997E+02  0.45594000000E+02  0.51100000000E-03 0. -1.
         11   -1    0    0    0    0 -0.00000000000E+00 -0.00000000000E+00 -0.45593999997E+02  0.45594000000E+02  0.51100000000E-03 0.  1.
    9900012    2    1    2    0    0  0.15416045758E+02 -0.78526486542E+01 -0.71665489807E+01  0.72461602002E+02  0.70000041305E+02 0.  0.
         12    1    1    2    0    0 -0.15416045758E+02  0.78526486542E+01  0.71665489807E+01  0.18726397998E+02  0.00000000000E+00 0. -1.
         11    1    3    3    0    0  0.23386411457E+02  0.67692547923E+01  0.19596067416E+02  0.31253046407E+02  0.51100000000E-03 0. -1.
        -11    1    3    3    0    0  0.81455723768E+01 -0.60436171132E+01 -0.18302731082E+01  0.10306578340E+02  0.51100000000E-03 0.  1.
         12    1    3    3    0    0 -0.16115938076E+02 -0.85782863333E+01 -0.24932343288E+02  0.30901977256E+02  0.00000000000E+00 0. -1.
</event>
<event>
 7    1  0.3196678E-013  0.7246167E+02  0.7816164E-02  0.1226708E+00
        -11   -1    0    0    0    0  0.00000000000E+00  0.00000000000E+00  0.45593999997E+02  0.45594000000E+02  0.51100000000E-03 0.  1.
         11   -1    0    0    0    0 -0.00000000000E+00 -0.00000000000E+00 -0.45593999997E+02  0.45594000000E+02  0.51100000000E-03 0. -1.
    9900012    2    1    2    0    0  0.45053274113E+01 -0.17874123471E+02 -0.33004884074E+01  0.72461668574E+02  0.70000128027E+02 0.  0.
         12    1    1    2    0    0 -0.45053274113E+01  0.17874123471E+02  0.33004884074E+01  0.18726331426E+02  0.00000000000E+00 0. -1.
         11    1    3    3    0    0  0.24345306036E+02 -0.68541783303E+01  0.14921284283E+02  0.29365258580E+02  0.51100000000E-03 0.  1.
        -11    1    3    3    0    0 -0.11244411273E+02  0.78252402095E+01  0.23547430080E+01  0.13900215254E+02  0.51100000000E-03 0. -1.
         12    1    3    3    0    0 -0.85955673519E+01 -0.18845185350E+02 -0.20576515698E+02  0.29196194739E+02  0.00000000000E+00 0. -1.
</event>
<event>
 7    1  0.3196678E-013  0.7246161E+02  0.7816164E-02  0.1226708E+00
        -11   -1    0    0    0    0  0.00000000000E+00  0.00000000000E+00  0.45593999997E+02  0.45594000000E+02  0.51100000000E-03 0.  1.
         11   -1    0    0    0    0 -0.00000000000E+00 -0.00000000000E+00 -0.45593999997E+02  0.45594000000E+02  0.51100000000E-03 0. -1.
    9900012    2    1    2    0    0  0.73037820030E+01 -0.16033207668E+02 -0.63457762259E+01  0.72461605377E+02  0.70000045701E+02 0.  0.
         12    1    1    2    0    0 -0.73037820030E+01  0.16033207668E+02  0.63457762259E+01  0.18726394623E+02  0.00000000000E+00 0. -1.
         11    1    3    3    0    0  0.14921431467E+02 -0.16921348459E+02 -0.18074535687E+02  0.28907957231E+02  0.51100000000E-03 0. -1.
        -11    1    3    3    0    0  0.41724242861E+01 -0.13477429543E+02 -0.81885092004E+01  0.16312630526E+02  0.51100000000E-03 0.  1.
        -12    1    3    3    0    0 -0.11790073750E+02  0.14365570333E+02  0.19917268662E+02  0.27241017620E+02  0.00000000000E+00 0.  1.
</event>
<event>
 7    1  0.3196678E-013  0.7246138E+02  0.7816164E-02  0.1226709E+00
        -11   -1    0    0    0    0  0.00000000000E+00  0.00000000000E+00  0.45593999997E+02  0.45594000000E+02  0.51100000000E-03 0. -1.
         11   -1    0    0    0    0 -0.00000000000E+00 -0.00000000000E+00 -0.45593999997E+02  0.45594000000E+02  0.51100000000E-03 0.  1.
    9900012    2    1    2    0    0  0.12135370305E+02 -0.24182124423E+01 -0.14056007645E+02  0.72461379515E+02  0.69999751475E+02 0.  0.
         12    1    1    2    0    0 -0.12135370305E+02  0.24182124423E+01  0.14056007645E+02  0.18726620485E+02  0.00000000000E+00 0. -1.
         11    1    3    3    0    0  0.22738848813E+02 -0.54244682342E+01 -0.16112317085E+02  0.28391668902E+02  0.51100000000E-03 0. -1.
        -11    1    3    3    0    0 -0.88432637641E+01 -0.19103077520E+02  0.51611833505E+01  0.21674148163E+02  0.51100000000E-03 0.  1.
        -12    1    3    3    0    0 -0.17602147441E+01  0.22109333312E+02 -0.31048739108E+01  0.22395562450E+02  0.00000000000E+00 0.  1.
</event>
<event>
 7    1  0.3196678E-013  0.7246158E+02  0.7816164E-02  0.1226708E+00
        -11   -1    0    0    0    0  0.00000000000E+00  0.00000000000E+00  0.45593999997E+02  0.45594000000E+02  0.51100000000E-03 0. -1.
         11   -1    0    0    0    0 -0.00000000000E+00 -0.00000000000E+00 -0.45593999997E+02  0.45594000000E+02  0.51100000000E-03 0.  1.
    9900012    2    1    2    0    0 -0.83301209607E+01  0.16349017343E+02 -0.37413224593E+01  0.72461580773E+02  0.70000013651E+02 0.  0.
         12    1    1    2    0    0  0.83301209607E+01 -0.16349017343E+02  0.37413224593E+01  0.18726419227E+02  0.00000000000E+00 0. -1.
         11    1    3    3    0    0  0.46053294366E+01  0.23199163171E+01 -0.24818605360E+01  0.57228229851E+01  0.51100000000E-03 0. -1.
        -11    1    3    3    0    0 -0.38579922959E+02  0.10174088237E+02 -0.60872589343E+01  0.40360590290E+02  0.51100000000E-03 0.  1.
         12    1    3    3    0    0  0.25644472562E+02  0.38550127896E+01  0.48277970110E+01  0.26378167498E+02  0.00000000000E+00 0. -1.
</event>
<event>
 7    1  0.3196678E-013  0.7246092E+02  0.7816164E-02  0.1226710E+00
        -11   -1    0    0    0    0  0.00000000000E+00  0.00000000000E+00  0.45593999997E+02  0.45594000000E+02  0.51100000000E-03 0.  1.
         11   -1    0    0    0    0 -0.00000000000E+00 -0.00000000000E+00 -0.45593999997E+02  0.45594000000E+02  0.51100000000E-03 0. -1.
    9900012    2    1    2    0    0  0.30812326476E+01 -0.14357066573E+02  0.11622564601E+02  0.72460924331E+02  0.69999158508E+02 0.  0.
         12    1    1    2    0    0 -0.30812326476E+01  0.14357066573E+02 -0.11622564601E+02  0.18727075669E+02  0.00000000000E+00 0. -1.
         11    1    3    3    0    0 -0.16669234126E+01  0.10117898863E+02 -0.17227302781E+02  0.20048203721E+02  0.51100000000E-03 0. -1.
        -11    1    3    3    0    0  0.80908041047E+01  0.64166848627E+01  0.47997048177E+00  0.10337568748E+02  0.51100000000E-03 0.  1.
        -12    1    3    3    0    0 -0.33426480444E+01 -0.30891650299E+02  0.28369896900E+02  0.42075151863E+02  0.00000000000E+00 0.  1.
</event>
<event>
 7    1  0.3196678E-013  0.7246150E+02  0.7816164E-02  0.1226708E+00
        -11   -1    0    0    0    0  0.00000000000E+00  0.00000000000E+00  0.45593999997E+02  0.45594000000E+02  0.51100000000E-03 0.  1.
         11   -1    0    0    0    0 -0.00000000000E+00 -0.00000000000E+00 -0.45593999997E+02  0.45594000000E+02  0.51100000000E-03 0. -1.
    9900012    2    1    2    0    0 -0.16601292918E+01 -0.11130518753E+02  0.14967871954E+02  0.72461503589E+02  0.69999913104E+02 0.  0.
         12    1    1    2    0    0  0.16601292918E+01  0.11130518753E+02 -0.14967871954E+02  0.18726496411E+02  0.00000000000E+00 0. -1.
         11    1    3    3    0    0  0.26656410434E+02 -0.21957821986E+01  0.99588796498E+01  0.28540584451E+02  0.51100000000E-03 0. -1.
        -11    1    3    3    0    0  0.40958411305E+01 -0.95421401943E+01  0.49483167702E+01  0.11502790669E+02  0.51100000000E-03 0.  1.
        -12    1    3    3    0    0 -0.32412380856E+02  0.60740363987E+00  0.60675534511E-01  0.32418128469E+02  0.00000000000E+00 0.  1.
</event>
<event>
 7    1  0.3196678E-013  0.7246155E+02  0.7816164E-02  0.1226708E+00
        -11   -1    0    0    0    0  0.00000000000E+00  0.00000000000E+00  0.45593999997E+02  0.45594000000E+02  0.51100000000E-03 0. -1.
         11   -1    0    0    0    0 -0.00000000000E+00 -0.00000000000E+00 -0.45593999997E+02  0.45594000000E+02  0.51100000000E-03 0.  1.
    9900012    2    1    2    0    0  0.60368858452E+00 -0.14370961094E+02  0.11991283714E+02  0.72461552185E+02  0.69999976409E+02 0.  0.
         12    1    1    2    0    0 -0.60368858452E+00  0.14370961094E+02 -0.11991283714E+02  0.18726447815E+02  0.00000000000E+00 0. -1.
         11    1    3    3    0    0  0.65926220993E+01 -0.83889694348E+01  0.73588955148E+01  0.12961127180E+02  0.51100000000E-03 0. -1.
        -11    1    3    3    0    0  0.23548360902E+02 -0.14147919612E+02  0.81471484241E+01  0.28654231070E+02  0.51100000000E-03 0.  1.
        -12    1    3    3    0    0 -0.29537294417E+02  0.81659279532E+01 -0.35147602250E+01  0.30846193934E+02  0.00000000000E+00 0.  1.
</event>
<event>
 7    1  0.3196678E-013  0.7246180E+02  0.7816164E-02  0.1226707E+00
        -11   -1    0    0    0    0  0.00000000000E+00  0.00000000000E+00  0.45593999997E+02  0.45594000000E+02  0.51100000000E-03 0. -1.
         11   -1    0    0    0    0 -0.00000000000E+00 -0.00000000000E+00 -0.45593999997E+02  0.45594000000E+02  0.51100000000E-03 0.  1.
    9900012    2    1    2    0    0 -0.25513839635E+01 -0.15093144740E+00 -0.18550962786E+02  0.72461800153E+02  0.70000299433E+02 0.  0.
         12    1    1    2    0    0  0.25513839635E+01  0.15093144740E+00  0.18550962786E+02  0.18726199847E+02  0.00000000000E+00 0. -1.
         11    1    3    3    0    0 -0.42192277383E+01  0.32732810888E+01  0.10199126500E+02  0.11512533753E+02  0.51100000000E-03 0. -1.
        -11    1    3    3    0    0 -0.16433602560E+02 -0.22222623079E+02 -0.14305923690E+02  0.31121820681E+02  0.51100000000E-03 0.  1.
         12    1    3    3    0    0  0.18101446335E+02  0.18798410543E+02 -0.14444165596E+02  0.29827445719E+02  0.00000000000E+00 0. -1.
</event>
<event>
 7    1  0.3196678E-013  0.7246160E+02  0.7816164E-02  0.1226708E+00
        -11   -1    0    0    0    0  0.00000000000E+00  0.00000000000E+00  0.45593999997E+02  0.45594000000E+02  0.51100000000E-03 0.  1.
         11   -1    0    0    0    0 -0.00000000000E+00 -0.00000000000E+00 -0.45593999997E+02  0.45594000000E+02  0.51100000000E-03 0. -1.
    9900012    2    1    2    0    0  0.62046194946E+01  0.17234138810E+02  0.38942606581E+01  0.72461598593E+02  0.70000036864E+02 0.  0.
         12    1    1    2    0    0 -0.62046194946E+01 -0.17234138810E+02 -0.38942606581E+01  0.18726401407E+02  0.00000000000E+00 0. -1.
         11    1    3    3    0    0  0.14914822607E+02  0.20517991585E+01  0.19756165189E+02  0.24838838065E+02  0.51100000000E-03 0.  1.
        -11    1    3    3    0    0 -0.33502003160E+01  0.11998944395E+02  0.13052787166E+02  0.18043662649E+02  0.51100000000E-03 0. -1.
         12    1    3    3    0    0 -0.53600027966E+01  0.31833952568E+01 -0.28914691697E+02  0.29579097878E+02  0.00000000000E+00 0. -1.
</event>
<event>
 7    1  0.3196678E-013  0.7246156E+02  0.7816164E-02  0.1226708E+00
        -11   -1    0    0    0    0  0.00000000000E+00  0.00000000000E+00  0.45593999997E+02  0.45594000000E+02  0.51100000000E-03 0. -1.
         11   -1    0    0    0    0 -0.00000000000E+00 -0.00000000000E+00 -0.45593999997E+02  0.45594000000E+02  0.51100000000E-03 0.  1.
    9900012    2    1    2    0    0 -0.42513441405E+01  0.51386254122E+01 -0.17498571829E+02  0.72461563762E+02  0.69999991490E+02 0.  0.
         12    1    1    2    0    0  0.42513441405E+01 -0.51386254122E+01  0.17498571829E+02  0.18726436238E+02  0.00000000000E+00 0. -1.
         11    1    3    3    0    0  0.13737687585E+02  0.86096627248E+01  0.37688783884E+01  0.16644963112E+02  0.51100000000E-03 0. -1.
        -11    1    3    3    0    0  0.12906814060E+02  0.25313108915E+01  0.57335951518E+01  0.14348083413E+02  0.51100000000E-03 0.  1.
        -12    1    3    3    0    0 -0.30895845786E+02 -0.60023482041E+01 -0.27001045369E+02  0.41468517237E+02  0.00000000000E+00 0.  1.
</event>
<event>
 7    1  0.3196678E-013  0.7246149E+02  0.7816164E-02  0.1226708E+00
        -11   -1    0    0    0    0  0.00000000000E+00  0.00000000000E+00  0.45593999997E+02  0.45594000000E+02  0.51100000000E-03 0.  1.
         11   -1    0    0    0    0 -0.00000000000E+00 -0.00000000000E+00 -0.45593999997E+02  0.45594000000E+02  0.51100000000E-03 0. -1.
    9900012    2    1    2    0    0  0.48860746102E+01  0.11945603428E+02  0.13568748225E+02  0.72461492190E+02  0.69999898254E+02 0.  0.
         12    1    1    2    0    0 -0.48860746102E+01 -0.11945603428E+02 -0.13568748225E+02  0.18726507810E+02  0.00000000000E+00 0. -1.
         11    1    3    3    0    0  0.43586498077E+01  0.15701856491E+02 -0.17633742304E+01  0.16390717323E+02  0.51100000000E-03 0. -1.
        -11    1    3    3    0    0  0.76319115997E+01  0.63558955752E+01 -0.17979637757E+02  0.20540468772E+02  0.51100000000E-03 0.  1.
        -12    1    3    3    0    0 -0.71044867972E+01 -0.10112148638E+02  0.33311760213E+02  0.35530306095E+02  0.00000000000E+00 0.  1.
</event>
<event>
 7    1  0.3196678E-013  0.7246157E+02  0.7816164E-02  0.1226708E+00
        -11   -1    0    0    0    0  0.00000000000E+00  0.00000000000E+00  0.45593999997E+02  0.45594000000E+02  0.51100000000E-03 0. -1.
         11   -1    0    0    0    0 -0.00000000000E+00 -0.00000000000E+00 -0.45593999997E+02  0.45594000000E+02  0.51100000000E-03 0.  1.
    9900012    2    1    2    0    0  0.95243672637E+01 -0.11703660480E+01 -0.16080913510E+02  0.72461571943E+02  0.70000002147E+02 0.  0.
         12    1    1    2    0    0 -0.95243672637E+01  0.11703660480E+01  0.16080913510E+02  0.18726428057E+02  0.00000000000E+00 0. -1.
         11    1    3    3    0    0 -0.12686382790E+02  0.21801430545E+01  0.56506059333E+01  0.14057975662E+02  0.51100000000E-03 0. -1.
        -11    1    3    3    0    0 -0.30391437751E+01 -0.15408249605E+02 -0.25723765432E+02  0.30139055378E+02  0.51100000000E-03 0.  1.
         12    1    3    3    0    0  0.25249893829E+02  0.12057740503E+02  0.39922459887E+01  0.28264540903E+02  0.00000000000E+00 0. -1.
</event>
<event>
 7    1  0.3196678E-013  0.7246164E+02  0.7816164E-02  0.1226708E+00
        -11   -1    0    0    0    0  0.00000000000E+00  0.00000000000E+00  0.45593999997E+02  0.45594000000E+02  0.51100000000E-03 0.  1.
         11   -1    0    0    0    0 -0.00000000000E+00 -0.00000000000E+00 -0.45593999997E+02  0.45594000000E+02  0.51100000000E-03 0. -1.
    9900012    2    1    2    0    0 -0.18260272549E+02  0.19089651811E+01 -0.36871122679E+01  0.72461641611E+02  0.70000092903E+02 0.  0.
         12    1    1    2    0    0  0.18260272549E+02 -0.19089651811E+01  0.36871122679E+01  0.18726358389E+02  0.00000000000E+00 0. -1.
         11    1    3    3    0    0 -0.13242956026E+02 -0.18188126439E+02 -0.28087680298E+02  0.35987520232E+02  0.51100000000E-03 0. -1.
        -11    1    3    3    0    0 -0.80521406220E+01  0.63038139155E+01  0.26900402277E+01  0.10574088857E+02  0.51100000000E-03 0.  1.
        -12    1    3    3    0    0  0.30348240990E+01  0.13793277705E+02  0.21710527803E+02  0.25900032522E+02  0.00000000000E+00 0.  1.
</event>
<event>
 7    1  0.3196678E-013  0.7246167E+02  0.7816164E-02  0.1226708E+00
        -11   -1    0    0    0    0  0.00000000000E+00  0.00000000000E+00  0.45593999997E+02  0.45594000000E+02  0.51100000000E-03 0.  1.
         11   -1    0    0    0    0 -0.00000000000E+00 -0.00000000000E+00 -0.45593999997E+02  0.45594000000E+02  0.51100000000E-03 0. -1.
    9900012    2    1    2    0    0 -0.15063957544E+02 -0.98364623028E+01 -0.51958345834E+01  0.72461668150E+02  0.70000127475E+02 0.  0.
         12    1    1    2    0    0  0.15063957544E+02  0.98364623028E+01  0.51958345834E+01  0.18726331850E+02  0.00000000000E+00 0. -1.
         11    1    3    3    0    0  0.15850716091E+02 -0.19165069937E+01 -0.51409601218E+01  0.16773421562E+02  0.51100000000E-03 0. -1.
        -11    1    3    3    0    0 -0.20943405018E+01 -0.14895953193E+02 -0.16049560382E+02  0.21996910519E+02  0.51100000000E-03 0.  1.
        -12    1    3    3    0    0 -0.28820333134E+02  0.69759978836E+01  0.15994685921E+02  0.33691336069E+02  0.00000000000E+00 0.  1.
</event>
<event>
 7    1  0.3196678E-013  0.7246154E+02  0.7816164E-02  0.1226708E+00
        -11   -1    0    0    0    0  0.00000000000E+00  0.00000000000E+00  0.45593999997E+02  0.45594000000E+02  0.51100000000E-03 0.  1.
         11   -1    0    0    0    0 -0.00000000000E+00 -0.00000000000E+00 -0.45593999997E+02  0.45594000000E+02  0.51100000000E-03 0. -1.
    9900012    2    1    2    0    0 -0.11140510066E+02 -0.91567937016E+01  0.11946644650E+02  0.72461544013E+02  0.69999965764E+02 0.  0.
         12    1    1    2    0    0  0.11140510066E+02  0.91567937016E+01 -0.11946644650E+02  0.18726455987E+02  0.00000000000E+00 0. -1.
         11    1    3    3    0    0 -0.61057026475E+01  0.21125812036E+02 -0.29023252586E+01  0.22181141340E+02  0.51100000000E-03 0. -1.
        -11    1    3    3    0    0  0.15259224990E+02 -0.89673887014E+01  0.92888950904E+00  0.17723454613E+02  0.51100000000E-03 0.  1.
        -12    1    3    3    0    0 -0.20294032409E+02 -0.21315217036E+02  0.13920080399E+02  0.32556948061E+02  0.00000000000E+00 0.  1.
</event>
<event>
 7    1  0.3196678E-013  0.7246162E+02  0.7816164E-02  0.1226708E+00
        -11   -1    0    0    0    0  0.00000000000E+00  0.00000000000E+00  0.45593999997E+02  0.45594000000E+02  0.51100000000E-03 0. -1.
         11   -1    0    0    0    0 -0.00000000000E+00 -0.00000000000E+00 -0.45593999997E+02  0.45594000000E+02  0.51100000000E-03 0.  1.
    9900012    2    1    2    0    0 -0.78327159313E+01 -0.15443060170E+02 -0.71300675601E+01  0.72461617282E+02  0.70000061211E+02 0.  0.
         12    1    1    2    0    0  0.78327159313E+01  0.15443060170E+02  0.71300675601E+01  0.18726382718E+02  0.00000000000E+00 0. -1.
         11    1    3    3    0    0 -0.91945235760E+01 -0.27853053261E+02 -0.57548101536E+01  0.29890628630E+02  0.51100000000E-03 0. -1.
        -11    1    3    3    0    0  0.17447214749E+02 -0.46406702005E+01 -0.52737453648E+01  0.18808336259E+02  0.51100000000E-03 0.  1.
         12    1    3    3    0    0 -0.16085407104E+02  0.17050663291E+02  0.38984879583E+01  0.23762652393E+02  0.00000000000E+00 0. -1.
</event>
<event>
 7    1  0.3294937E-013  0.7246145E+02  0.7816164E-02  0.1226708E+00
        -11   -1    0    0    0    0  0.00000000000E+00  0.00000000000E+00  0.45593999997E+02  0.45594000000E+02  0.51100000000E-03 0.  1.
         11   -1    0    0    0    0 -0.00000000000E+00 -0.00000000000E+00 -0.45593999997E+02  0.45594000000E+02  0.51100000000E-03 0. -1.
    9900012    2    1    2    0    0  0.17240674639E+02  0.52821432953E+01  0.50538812436E+01  0.72461451588E+02  0.69999845363E+02 0.  0.
         12    1    1    2    0    0 -0.17240674639E+02 -0.52821432953E+01 -0.50538812436E+01  0.18726548412E+02  0.00000000000E+00 0. -1.
         11    1    3    3    0    0 -0.77014823501E+01 -0.97853013067E+01  0.72194006506E+01  0.14393911840E+02  0.51100000000E-03 0. -1.
        -11    1    3    3    0    0  0.70688759521E+01  0.10350766915E+02  0.23384418060E+02  0.26531837313E+02  0.51100000000E-03 0.  1.
         12    1    3    3    0    0  0.17873281037E+02  0.47166776870E+01 -0.25549937467E+02  0.31535702434E+02  0.00000000000E+00 0. -1.
</event>
<event>
 7    1  0.3196678E-013  0.7246153E+02  0.7816164E-02  0.1226708E+00
        -11   -1    0    0    0    0  0.00000000000E+00  0.00000000000E+00  0.45593999997E+02  0.45594000000E+02  0.51100000000E-03 0.  1.
         11   -1    0    0    0    0 -0.00000000000E+00 -0.00000000000E+00 -0.45593999997E+02  0.45594000000E+02  0.51100000000E-03 0. -1.
    9900012    2    1    2    0    0 -0.90290614383E+01  0.12618572884E+02  0.10484670892E+02  0.72461530611E+02  0.69999948305E+02 0.  0.
         12    1    1    2    0    0  0.90290614383E+01 -0.12618572884E+02 -0.10484670892E+02  0.18726469389E+02  0.00000000000E+00 0. -1.
         11    1    3    3    0    0  0.90503119506E+01 -0.39602517689E+01  0.30253731458E+02  0.31825775841E+02  0.51100000000E-03 0.  1.
        -11    1    3    3    0    0 -0.14624673213E+02 -0.33215229392E+01 -0.11089453332E+02  0.18651797680E+02  0.51100000000E-03 0. -1.
        -12    1    3    3    0    0 -0.34547001754E+01  0.19900347592E+02 -0.86796072350E+01  0.21983957090E+02  0.00000000000E+00 0.  1.
</event>
<event>
 7    1  0.3196678E-013  0.7246156E+02  0.7816164E-02  0.1226708E+00
        -11   -1    0    0    0    0  0.00000000000E+00  0.00000000000E+00  0.45593999997E+02  0.45594000000E+02  0.51100000000E-03 0. -1.
         11   -1    0    0    0    0 -0.00000000000E+00 -0.00000000000E+00 -0.45593999997E+02  0.45594000000E+02  0.51100000000E-03 0.  1.
    9900012    2    1    2    0    0 -0.91163166311E+01  0.38443244064E+01 -0.15899482344E+02  0.72461558857E+02  0.69999985101E+02 0.  0.
         12    1    1    2    0    0  0.91163166311E+01 -0.38443244064E+01  0.15899482344E+02  0.18726441143E+02  0.00000000000E+00 0. -1.
         11    1    3    3    0    0  0.99977580822E+01 -0.39471134543E+01  0.76194091149E+00  0.10775686776E+02  0.51100000000E-03 0. -1.
        -11    1    3    3    0    0  0.15445871579E+02  0.10246971289E+02  0.69088425919E+01  0.19781493261E+02  0.51100000000E-03 0.  1.
         12    1    3    3    0    0 -0.34559946292E+02 -0.24555334280E+01 -0.23570265847E+02  0.41904378820E+02  0.00000000000E+00 0. -1.
</event>
<event>
 7    1  0.3196678E-013  0.7246158E+02  0.7816164E-02  0.1226708E+00
        -11   -1    0    0    0    0  0.00000000000E+00  0.00000000000E+00  0.45593999997E+02  0.45594000000E+02  0.51100000000E-03 0.  1.
         11   -1    0    0    0    0 -0.00000000000E+00 -0.00000000000E+00 -0.45593999997E+02  0.45594000000E+02  0.51100000000E-03 0. -1.
    9900012    2    1    2    0    0 -0.16883387971E+02 -0.60674742626E+01  0.53680188343E+01  0.72461583912E+02  0.70000017739E+02 0.  0.
         12    1    1    2    0    0  0.16883387971E+02  0.60674742626E+01 -0.53680188343E+01  0.18726416088E+02  0.00000000000E+00 0. -1.
         11    1    3    3    0    0 -0.19638890066E+02  0.19424634423E+02 -0.55929454103E+01  0.28183035041E+02  0.51100000000E-03 0. -1.
        -11    1    3    3    0    0 -0.25843314428E+01 -0.94022216128E+01  0.21989254920E+02  0.24054269318E+02  0.51100000000E-03 0.  1.
         12    1    3    3    0    0  0.53398335379E+01 -0.16089887073E+02 -0.11028290675E+02  0.20224279553E+02  0.00000000000E+00 0. -1.
</event>
<event>
 7    1  0.3196678E-013  0.7246165E+02  0.7816164E-02  0.1226708E+00
        -11   -1    0    0    0    0  0.00000000000E+00  0.00000000000E+00  0.45593999997E+02  0.45594000000E+02  0.51100000000E-03 0.  1.
         11   -1    0    0    0    0 -0.00000000000E+00 -0.00000000000E+00 -0.45593999997E+02  0.45594000000E+02  0.51100000000E-03 0. -1.
    9900012    2    1    2    0    0  0.12479360643E+02  0.13748634042E+02 -0.24324623599E+01  0.72461648161E+02  0.70000101435E+02 0.  0.
         12    1    1    2    0    0 -0.12479360643E+02 -0.13748634042E+02  0.24324623599E+01  0.18726351839E+02  0.00000000000E+00 0. -1.
         11    1    3    3    0    0 -0.21053274109E+02  0.12991647754E+01 -0.87920937346E+01  0.22852332317E+02  0.51100000000E-03 0. -1.
        -11    1    3    3    0    0 -0.57685884872E+01  0.82185038725E+00 -0.43223112557E+01  0.72549587212E+01  0.51100000000E-03 0.  1.
        -12    1    3    3    0    0  0.39301223239E+02  0.11627618879E+02  0.10681942630E+02  0.42354357122E+02  0.00000000000E+00 0.  1.
</event>
<event>
 7    1  0.3606431E-013  0.7246157E+02  0.7816164E-02  0.1226708E+00
        -11   -1    0    0    0    0  0.00000000000E+00  0.00000000000E+00  0.45593999997E+02  0.45594000000E+02  0.51100000000E-03 0. -1.
         11   -1    0    0    0    0 -0.00000000000E+00 -0.00000000000E+00 -0.45593999997E+02  0.45594000000E+02  0.51100000000E-03 0.  1.
    9900012    2    1    2    0    0 -0.26225260812E+01  0.17254370123E+02 -0.67888395262E+01  0.72461567519E+02  0.69999996384E+02 0.  0.
         12    1    1    2    0    0  0.26225260812E+01 -0.17254370123E+02  0.67888395262E+01  0.18726432481E+02  0.00000000000E+00 0. -1.
         11    1    3    3    0    0 -0.92336214331E+01  0.12255287976E+02  0.59139321296E+01  0.16444647811E+02  0.51100000000E-03 0. -1.
        -11    1    3    3    0    0  0.61469846019E+01  0.29458880561E+02 -0.69669836146E+01  0.30889317321E+02  0.51100000000E-03 0.  1.
         12    1    3    3    0    0  0.46411074999E+00 -0.24459798414E+02 -0.57357880412E+01  0.25127602387E+02  0.00000000000E+00 0. -1.
</event>
<event>
 7    1  0.3196678E-013  0.7246156E+02  0.7816164E-02  0.1226708E+00
        -11   -1    0    0    0    0  0.00000000000E+00  0.00000000000E+00  0.45593999997E+02  0.45594000000E+02  0.51100000000E-03 0.  1.
         11   -1    0    0    0    0 -0.00000000000E+00 -0.00000000000E+00 -0.45593999997E+02  0.45594000000E+02  0.51100000000E-03 0. -1.
    9900012    2    1    2    0    0  0.21413126446E+01  0.85717301242E-01  0.18603414622E+02  0.72461558723E+02  0.69999984926E+02 0.  0.
         12    1    1    2    0    0 -0.21413126446E+01 -0.85717301242E-01 -0.18603414622E+02  0.18726441277E+02  0.00000000000E+00 0. -1.
         11    1    3    3    0    0  0.29707097401E+01 -0.21740844349E+02  0.25889730810E+02  0.33937701617E+02  0.51100000000E-03 0. -1.
        -11    1    3    3    0    0 -0.23921878850E+01 -0.52041421896E+01  0.60590810346E+01  0.83377528178E+01  0.51100000000E-03 0.  1.
        -12    1    3    3    0    0  0.15627907894E+01  0.27030703839E+02 -0.13345397223E+02  0.30186104289E+02  0.00000000000E+00 0.  1.
</event>
<event>
 7    1  0.3196678E-013  0.7246145E+02  0.7816164E-02  0.1226708E+00
        -11   -1    0    0    0    0  0.00000000000E+00  0.00000000000E+00  0.45593999997E+02  0.45594000000E+02  0.51100000000E-03 0.  1.
         11   -1    0    0    0    0 -0.00000000000E+00 -0.00000000000E+00 -0.45593999997E+02  0.45594000000E+02  0.51100000000E-03 0. -1.
    9900012    2    1    2    0    0  0.95583146459E+01 -0.13883861479E+02  0.81584727859E+01  0.72461450221E+02  0.69999843582E+02 0.  0.
         12    1    1    2    0    0 -0.95583146459E+01  0.13883861479E+02 -0.81584727859E+01  0.18726549779E+02  0.00000000000E+00 0. -1.
         11    1    3    3    0    0  0.19048874339E+00 -0.20872162333E+02  0.12930686137E+02  0.24553738832E+02  0.51100000000E-03 0. -1.
        -11    1    3    3    0    0 -0.80792084639E+01  0.17319675783E+02  0.11150602150E+02  0.22126470735E+02  0.51100000000E-03 0.  1.
        -12    1    3    3    0    0  0.17447034366E+02 -0.10331374929E+02 -0.15922815502E+02  0.25781240653E+02  0.00000000000E+00 0.  1.
</event>
<event>
 7    1  0.3196678E-013  0.7246161E+02  0.7816164E-02  0.1226708E+00
        -11   -1    0    0    0    0  0.00000000000E+00  0.00000000000E+00  0.45593999997E+02  0.45594000000E+02  0.51100000000E-03 0. -1.
         11   -1    0    0    0    0 -0.00000000000E+00 -0.00000000000E+00 -0.45593999997E+02  0.45594000000E+02  0.51100000000E-03 0.  1.
    9900012    2    1    2    0    0  0.15997228646E+02  0.74325706230E+01 -0.62867404250E+01  0.72461613921E+02  0.70000056831E+02 0.  0.
         12    1    1    2    0    0 -0.15997228646E+02 -0.74325706230E+01  0.62867404250E+01  0.18726386079E+02  0.00000000000E+00 0. -1.
         11    1    3    3    0    0 -0.19958762981E+02 -0.44783141538E+00  0.16270384448E+02  0.25754187680E+02  0.51100000000E-03 0. -1.
        -11    1    3    3    0    0 -0.50269561101E+00  0.37700861779E+01 -0.34766796634E+00  0.38193096159E+01  0.51100000000E-03 0.  1.
        -12    1    3    3    0    0  0.36458687238E+02  0.41103158605E+01 -0.22209456906E+02  0.42888116625E+02  0.00000000000E+00 0.  1.
</event>
<event>
 7    1  0.3196678E-013  0.7246158E+02  0.7816164E-02  0.1226708E+00
        -11   -1    0    0    0    0  0.00000000000E+00  0.00000000000E+00  0.45593999997E+02  0.45594000000E+02  0.51100000000E-03 0. -1.
         11   -1    0    0    0    0 -0.00000000000E+00 -0.00000000000E+00 -0.45593999997E+02  0.45594000000E+02  0.51100000000E-03 0.  1.
    9900012    2    1    2    0    0 -0.64486801202E+01 -0.15548860619E+02 -0.82052519343E+01  0.72461582800E+02  0.70000016291E+02 0.  0.
         12    1    1    2    0    0  0.64486801202E+01  0.15548860619E+02  0.82052519343E+01  0.18726417200E+02  0.00000000000E+00 0. -1.
         11    1    3    3    0    0 -0.40120709629E+00  0.12521835277E+02  0.11593750890E+02  0.17069633441E+02  0.51100000000E-03 0. -1.
        -11    1    3    3    0    0  0.15166978886E+02 -0.25285247140E+02 -0.16362824819E+02  0.33721254541E+02  0.51100000000E-03 0.  1.
         12    1    3    3    0    0 -0.21214451910E+02 -0.27854487565E+01 -0.34361780051E+01  0.21670694818E+02  0.00000000000E+00 0. -1.
</event>
<event>
 7    1  0.3196678E-013  0.7246158E+02  0.7816164E-02  0.1226708E+00
        -11   -1    0    0    0    0  0.00000000000E+00  0.00000000000E+00  0.45593999997E+02  0.45594000000E+02  0.51100000000E-03 0. -1.
         11   -1    0    0    0    0 -0.00000000000E+00 -0.00000000000E+00 -0.45593999997E+02  0.45594000000E+02  0.51100000000E-03 0.  1.
    9900012    2    1    2    0    0 -0.16973112036E+02 -0.77281603037E+01 -0.16934794635E+01  0.72461578383E+02  0.70000010537E+02 0.  0.
         12    1    1    2    0    0  0.16973112036E+02  0.77281603037E+01  0.16934794635E+01  0.18726421617E+02  0.00000000000E+00 0. -1.
         11    1    3    3    0    0 -0.45303682982E+01  0.54640921983E+01  0.27511947834E+01  0.76124643491E+01  0.51100000000E-03 0. -1.
        -11    1    3    3    0    0  0.47781186367E+01  0.23007124192E+02 -0.74474109873E+01  0.24649992129E+02  0.51100000000E-03 0.  1.
         12    1    3    3    0    0 -0.17220862375E+02 -0.36199376694E+02  0.30027367404E+01  0.40199121905E+02  0.00000000000E+00 0. -1.
</event>
<event>
 7    1  0.3196678E-013  0.7246159E+02  0.7816164E-02  0.1226708E+00
        -11   -1    0    0    0    0  0.00000000000E+00  0.00000000000E+00  0.45593999997E+02  0.45594000000E+02  0.51100000000E-03 0. -1.
         11   -1    0    0    0    0 -0.00000000000E+00 -0.00000000000E+00 -0.45593999997E+02  0.45594000000E+02  0.51100000000E-03 0.  1.
    9900012    2    1    2    0    0  0.11656959023E+02  0.14492326322E+02  0.21832028263E+01  0.72461585755E+02  0.70000020140E+02 0.  0.
         12    1    1    2    0    0 -0.11656959023E+02 -0.14492326322E+02 -0.21832028263E+01  0.18726414245E+02  0.00000000000E+00 0. -1.
         11    1    3    3    0    0  0.20696959509E+02 -0.71470680900E+01 -0.71502607970E+01  0.23034125661E+02  0.51100000000E-03 0. -1.
        -11    1    3    3    0    0  0.76460584583E+00 -0.10284307507E+02 -0.67861583099E+01  0.12345183185E+02  0.51100000000E-03 0.  1.
         12    1    3    3    0    0 -0.98046063318E+01  0.31923701919E+02  0.16119621933E+02  0.37082276910E+02  0.00000000000E+00 0. -1.
</event>
<event>
 7    1  0.3196678E-013  0.7246149E+02  0.7816164E-02  0.1226708E+00
        -11   -1    0    0    0    0  0.00000000000E+00  0.00000000000E+00  0.45593999997E+02  0.45594000000E+02  0.51100000000E-03 0. -1.
         11   -1    0    0    0    0 -0.00000000000E+00 -0.00000000000E+00 -0.45593999997E+02  0.45594000000E+02  0.51100000000E-03 0.  1.
    9900012    2    1    2    0    0 -0.17841047754E+02  0.11578383749E+01 -0.55712433476E+01  0.72461485986E+02  0.69999890173E+02 0.  0.
         12    1    1    2    0    0  0.17841047754E+02 -0.11578383749E+01  0.55712433476E+01  0.18726514014E+02  0.00000000000E+00 0. -1.
         11    1    3    3    0    0  0.52602349124E+01  0.94184017329E+01 -0.97763132249E+01  0.14558594131E+02  0.51100000000E-03 0. -1.
        -11    1    3    3    0    0 -0.26369696281E+02  0.11344197377E+02 -0.13095818569E+02  0.31552371707E+02  0.51100000000E-03 0.  1.
         12    1    3    3    0    0  0.32684136143E+01 -0.19604760735E+02  0.17300888447E+02  0.26350520148E+02  0.00000000000E+00 0. -1.
</event>
<event>
 7    1  0.3196678E-013  0.7246157E+02  0.7816164E-02  0.1226708E+00
        -11   -1    0    0    0    0  0.00000000000E+00  0.00000000000E+00  0.45593999997E+02  0.45594000000E+02  0.51100000000E-03 0.  1.
         11   -1    0    0    0    0 -0.00000000000E+00 -0.00000000000E+00 -0.45593999997E+02  0.45594000000E+02  0.51100000000E-03 0. -1.
    9900012    2    1    2    0    0  0.89653309169E+01  0.41074917248E+01  0.15919502664E+02  0.72461569166E+02  0.69999998530E+02 0.  0.
         12    1    1    2    0    0 -0.89653309169E+01 -0.41074917248E+01 -0.15919502664E+02  0.18726430834E+02  0.00000000000E+00 0. -1.
         11    1    3    3    0    0  0.17791449225E+02  0.22021675936E+01 -0.13289003377E+02  0.22315528643E+02  0.51100000000E-03 0. -1.
        -11    1    3    3    0    0  0.55469416594E+00 -0.18375986564E+02  0.14163538860E+02  0.23207550520E+02  0.51100000000E-03 0.  1.
         12    1    3    3    0    0 -0.93808124738E+01  0.20281310695E+02  0.15044967180E+02  0.26938490003E+02  0.00000000000E+00 0. -1.
</event>
<event>
 7    1  0.3196678E-013  0.7246154E+02  0.7816164E-02  0.1226708E+00
        -11   -1    0    0    0    0  0.00000000000E+00  0.00000000000E+00  0.45593999997E+02  0.45594000000E+02  0.51100000000E-03 0.  1.
         11   -1    0    0    0    0 -0.00000000000E+00 -0.00000000000E+00 -0.45593999997E+02  0.45594000000E+02  0.51100000000E-03 0. -1.
    9900012    2    1    2    0    0  0.19211663843E+01 -0.19499557056E+01  0.18525311654E+02  0.72461537990E+02  0.69999957918E+02 0.  0.
         12    1    1    2    0    0 -0.19211663843E+01  0.19499557056E+01 -0.18525311654E+02  0.18726462010E+02  0.00000000000E+00 0. -1.
         11    1    3    3    0    0 -0.20801453919E+02 -0.67209314874E+00 -0.27785946868E+01  0.20996970807E+02  0.51100000000E-03 0. -1.
        -11    1    3    3    0    0  0.92832749779E+01 -0.15011486887E+02  0.26241509035E+02  0.31625001654E+02  0.51100000000E-03 0.  1.
         12    1    3    3    0    0  0.13439345326E+02  0.13733624331E+02 -0.49376026945E+01  0.19839565530E+02  0.00000000000E+00 0. -1.
</event>
<event>
 7    1  0.3196678E-013  0.7246156E+02  0.7816164E-02  0.1226708E+00
        -11   -1    0    0    0    0  0.00000000000E+00  0.00000000000E+00  0.45593999997E+02  0.45594000000E+02  0.51100000000E-03 0. -1.
         11   -1    0    0    0    0 -0.00000000000E+00 -0.00000000000E+00 -0.45593999997E+02  0.45594000000E+02  0.51100000000E-03 0.  1.
    9900012    2    1    2    0    0 -0.18603456196E+02  0.30491645845E-01 -0.21424413246E+01  0.72461559681E+02  0.69999986174E+02 0.  0.
         12    1    1    2    0    0  0.18603456196E+02 -0.30491645845E-01  0.21424413246E+01  0.18726440319E+02  0.00000000000E+00 0. -1.
         11    1    3    3    0    0 -0.63463403251E+01  0.25904482327E+01 -0.15928977651E+02  0.17341245251E+02  0.51100000000E-03 0. -1.
        -11    1    3    3    0    0 -0.22060173181E+01  0.45454084917E+01 -0.19230669585E+02  0.19883307162E+02  0.51100000000E-03 0.  1.
         12    1    3    3    0    0 -0.10051098553E+02 -0.71053650785E+01  0.33017205911E+02  0.35237007268E+02  0.00000000000E+00 0. -1.
</event>
<event>
 7    1  0.3196678E-013  0.7246151E+02  0.7816164E-02  0.1226708E+00
        -11   -1    0    0    0    0  0.00000000000E+00  0.00000000000E+00  0.45593999997E+02  0.45594000000E+02  0.51100000000E-03 0. -1.
         11   -1    0    0    0    0 -0.00000000000E+00 -0.00000000000E+00 -0.45593999997E+02  0.45594000000E+02  0.51100000000E-03 0.  1.
    9900012    2    1    2    0    0 -0.13366615949E+02 -0.11418534664E+02 -0.64522894652E+01  0.72461510870E+02  0.69999922589E+02 0.  0.
         12    1    1    2    0    0  0.13366615949E+02  0.11418534664E+02  0.64522894652E+01  0.18726489130E+02  0.00000000000E+00 0. -1.
         11    1    3    3    0    0 -0.11034285347E+02 -0.21303182826E+01 -0.22964500082E+01  0.11470282996E+02  0.51100000000E-03 0. -1.
        -11    1    3    3    0    0 -0.29049851355E+02  0.31087924129E+01 -0.10159997957E+02  0.30931925462E+02  0.51100000000E-03 0.  1.
         12    1    3    3    0    0  0.26717520753E+02 -0.12397008794E+02  0.60041585002E+01  0.30059302413E+02  0.00000000000E+00 0. -1.
</event>
<event>
 7    1  0.3196678E-013  0.7246161E+02  0.7816164E-02  0.1226708E+00
        -11   -1    0    0    0    0  0.00000000000E+00  0.00000000000E+00  0.45593999997E+02  0.45594000000E+02  0.51100000000E-03 0.  1.
         11   -1    0    0    0    0 -0.00000000000E+00 -0.00000000000E+00 -0.45593999997E+02  0.45594000000E+02  0.51100000000E-03 0. -1.
    9900012    2    1    2    0    0  0.46231449883E+01 -0.41794503728E+01  0.17658891584E+02  0.72461608811E+02  0.70000050175E+02 0.  0.
         12    1    1    2    0    0 -0.46231449883E+01  0.41794503728E+01 -0.17658891584E+02  0.18726391189E+02  0.00000000000E+00 0. -1.
         11    1    3    3    0    0 -0.59290887422E+01 -0.13586370030E+02  0.11013431817E+01  0.14864605644E+02  0.51100000000E-03 0. -1.
        -11    1    3    3    0    0 -0.20851411183E+02  0.70844848834E+01  0.47937095828E-02  0.22022063882E+02  0.51100000000E-03 0.  1.
         12    1    3    3    0    0  0.31403644914E+02  0.23224347734E+01  0.16552754693E+02  0.35574939284E+02  0.00000000000E+00 0. -1.
</event>
<event>
 7    1  0.3196678E-013  0.7246153E+02  0.7816164E-02  0.1226708E+00
        -11   -1    0    0    0    0  0.00000000000E+00  0.00000000000E+00  0.45593999997E+02  0.45594000000E+02  0.51100000000E-03 0. -1.
         11   -1    0    0    0    0 -0.00000000000E+00 -0.00000000000E+00 -0.45593999997E+02  0.45594000000E+02  0.51100000000E-03 0.  1.
    9900012    2    1    2    0    0 -0.14571541298E+02  0.11716298141E+02 -0.10388246173E+01  0.72461531712E+02  0.69999949740E+02 0.  0.
         12    1    1    2    0    0  0.14571541298E+02 -0.11716298141E+02  0.10388246173E+01  0.18726468288E+02  0.00000000000E+00 0. -1.
         11    1    3    3    0    0 -0.14971168852E+02  0.23926234271E+02  0.27125203272E+02  0.39145590250E+02  0.51100000000E-03 0. -1.
        -11    1    3    3    0    0  0.59096529753E+01 -0.25024242536E+01 -0.78726136748E+01  0.10156976507E+02  0.51100000000E-03 0.  1.
        -12    1    3    3    0    0 -0.55100254217E+01 -0.97075118760E+01 -0.20291414215E+02  0.23158964955E+02  0.00000000000E+00 0.  1.
</event>
<event>
 7    1  0.3196678E-013  0.7246159E+02  0.7816164E-02  0.1226708E+00
        -11   -1    0    0    0    0  0.00000000000E+00  0.00000000000E+00  0.45593999997E+02  0.45594000000E+02  0.51100000000E-03 0. -1.
         11   -1    0    0    0    0 -0.00000000000E+00 -0.00000000000E+00 -0.45593999997E+02  0.45594000000E+02  0.51100000000E-03 0.  1.
    9900012    2    1    2    0    0  0.61165778559E-01  0.18057950724E+02  0.49583495571E+01  0.72461586678E+02  0.70000021342E+02 0.  0.
         12    1    1    2    0    0 -0.61165778559E-01 -0.18057950724E+02 -0.49583495571E+01  0.18726413322E+02  0.00000000000E+00 0. -1.
         11    1    3    3    0    0 -0.46689455210E+00  0.84625898953E+01  0.82295616261E+01  0.11813513579E+02  0.51100000000E-03 0. -1.
        -11    1    3    3    0    0 -0.19240543196E+02  0.18436832852E+02  0.16484857346E+02  0.31334738391E+02  0.51100000000E-03 0.  1.
         12    1    3    3    0    0  0.19768603527E+02 -0.88414720233E+01 -0.19756069415E+02  0.29313334707E+02  0.00000000000E+00 0. -1.
</event>
<event>
 7    1  0.3196678E-013  0.7246158E+02  0.7816164E-02  0.1226708E+00
        -11   -1    0    0    0    0  0.00000000000E+00  0.00000000000E+00  0.45593999997E+02  0.45594000000E+02  0.51100000000E-03 0.  1.
         11   -1    0    0    0    0 -0.00000000000E+00 -0.00000000000E+00 -0.45593999997E+02  0.45594000000E+02  0.51100000000E-03 0. -1.
    9900012    2    1    2    0    0  0.11478070750E+02  0.14748228012E+02  0.11926386662E+01  0.72461582173E+02  0.70000015474E+02 0.  0.
         12    1    1    2    0    0 -0.11478070750E+02 -0.14748228012E+02 -0.11926386662E+01  0.18726417827E+02  0.00000000000E+00 0. -1.
         11    1    3    3    0    0  0.19525912814E+02 -0.78170976769E+01  0.50285564819E+01  0.21625324688E+02  0.51100000000E-03 0. -1.
        -11    1    3    3    0    0  0.12912094436E+02 -0.87827660187E+00  0.10122544044E+02  0.16430442803E+02  0.51100000000E-03 0.  1.
        -12    1    3    3    0    0 -0.20959936500E+02  0.23443602291E+02 -0.13958461860E+02  0.34405814682E+02  0.00000000000E+00 0.  1.
</event>
<event>
 7    1  0.3196678E-013  0.7246129E+02  0.7816164E-02  0.1226709E+00
        -11   -1    0    0    0    0  0.00000000000E+00  0.00000000000E+00  0.45593999997E+02  0.45594000000E+02  0.51100000000E-03 0. -1.
         11   -1    0    0    0    0 -0.00000000000E+00 -0.00000000000E+00 -0.45593999997E+02  0.45594000000E+02  0.51100000000E-03 0.  1.
    9900012    2    1    2    0    0 -0.14810967744E+02 -0.17637595338E+01 -0.11323170667E+02  0.72461286270E+02  0.69999630004E+02 0.  0.
         12    1    1    2    0    0  0.14810967744E+02  0.17637595338E+01  0.11323170667E+02  0.18726713730E+02  0.00000000000E+00 0. -1.
         11    1    3    3    0    0  0.89905530677E+01 -0.90807940939E+01  0.14083791360E+02  0.19016941004E+02  0.51100000000E-03 0. -1.
        -11    1    3    3    0    0 -0.11913156989E+02  0.13506578044E+02  0.62528192668E+01  0.19064330803E+02  0.51100000000E-03 0.  1.
        -12    1    3    3    0    0 -0.11888363822E+02 -0.61895434843E+01 -0.31659781293E+02  0.34380014463E+02  0.00000000000E+00 0.  1.
</event>
<event>
 7    1  0.3272052E-013  0.7246156E+02  0.7816164E-02  0.1226708E+00
        -11   -1    0    0    0    0  0.00000000000E+00  0.00000000000E+00  0.45593999997E+02  0.45594000000E+02  0.51100000000E-03 0. -1.
         11   -1    0    0    0    0 -0.00000000000E+00 -0.00000000000E+00 -0.45593999997E+02  0.45594000000E+02  0.51100000000E-03 0.  1.
    9900012    2    1    2    0    0 -0.10464431043E+02  0.13887088172E+02 -0.69515572979E+01  0.72461556562E+02  0.69999982111E+02 0.  0.
         12    1    1    2    0    0  0.10464431043E+02 -0.13887088172E+02  0.69515572979E+01  0.18726443438E+02  0.00000000000E+00 0. -1.
         11    1    3    3    0    0  0.17693316267E+01  0.70701558954E+01  0.56328903808E+00  0.73099202179E+01  0.51100000000E-03 0. -1.
        -11    1    3    3    0    0 -0.30684101894E+01  0.20685361826E+02 -0.30380534478E+02  0.36881922542E+02  0.51100000000E-03 0.  1.
         12    1    3    3    0    0 -0.91653524804E+01 -0.13868429549E+02  0.22865688142E+02  0.28269713802E+02  0.00000000000E+00 0. -1.
</event>
<event>
 7    1  0.3196678E-013  0.7246155E+02  0.7816164E-02  0.1226708E+00
        -11   -1    0    0    0    0  0.00000000000E+00  0.00000000000E+00  0.45593999997E+02  0.45594000000E+02  0.51100000000E-03 0. -1.
         11   -1    0    0    0    0 -0.00000000000E+00 -0.00000000000E+00 -0.45593999997E+02  0.45594000000E+02  0.51100000000E-03 0.  1.
    9900012    2    1    2    0    0  0.17086632216E+02  0.55533585378E+01  0.52808319375E+01  0.72461548722E+02  0.69999971898E+02 0.  0.
         12    1    1    2    0    0 -0.17086632216E+02 -0.55533585378E+01 -0.52808319375E+01  0.18726451278E+02  0.00000000000E+00 0. -1.
         11    1    3    3    0    0  0.88567409724E+01 -0.18697892048E+02  0.16918215867E+02  0.26725999627E+02  0.51100000000E-03 0. -1.
        -11    1    3    3    0    0  0.15211431648E+02  0.68433442539E+00 -0.14454976972E+02  0.20995292946E+02  0.51100000000E-03 0.  1.
        -12    1    3    3    0    0 -0.69815404052E+01  0.23566916160E+02  0.28175930423E+01  0.24740256148E+02  0.00000000000E+00 0.  1.
</event>
<event>
 8    1  0.3196678E-013  0.7246159E+02  0.7816164E-02  0.1226708E+00
        -11   -1    0    0    0    0  0.00000000000E+00  0.00000000000E+00  0.45593999997E+02  0.45594000000E+02  0.51100000000E-03 0. -1.
         11   -1    0    0    0    0 -0.00000000000E+00 -0.00000000000E+00 -0.45593999997E+02  0.45594000000E+02  0.51100000000E-03 0.  1.
    9900012    2    1    2    0    0  0.17976838416E+02  0.25026857364E+01  0.46096015510E+01  0.72461585987E+02  0.70000020443E+02 0.  0.
         23    2    3    3    0    0  0.20372816830E+02 -0.10146230790E+02 -0.94797045950E+00  0.58439374731E+02  0.53816950918E+02 0.  0.
         12    1    1    2    0    0 -0.17976838416E+02 -0.25026857364E+01 -0.46096015510E+01  0.18726414013E+02  0.00000000000E+00 0. -1.
         11    1    4    4    0    0 -0.18194800086E-01 -0.29847158841E+02  0.21089486852E+01  0.29921578948E+02  0.51100000000E-03 0. -1.
        -11    1    4    4    0    0  0.20391011630E+02  0.19700928051E+02 -0.30569191447E+01  0.28517795783E+02  0.51100000000E-03 0.  1.
        -12    1    3    3    0    0 -0.23959784147E+01  0.12648916527E+02  0.55575720105E+01  0.14022211256E+02  0.00000000000E+00 0.  1.
</event>
<event>
 7    1  0.3196678E-013  0.7246161E+02  0.7816164E-02  0.1226708E+00
        -11   -1    0    0    0    0  0.00000000000E+00  0.00000000000E+00  0.45593999997E+02  0.45594000000E+02  0.51100000000E-03 0. -1.
         11   -1    0    0    0    0 -0.00000000000E+00 -0.00000000000E+00 -0.45593999997E+02  0.45594000000E+02  0.51100000000E-03 0.  1.
    9900012    2    1    2    0    0 -0.10208178403E+02 -0.83207827487E+01  0.13312972028E+02  0.72461613374E+02  0.70000056119E+02 0.  0.
         12    1    1    2    0    0  0.10208178403E+02  0.83207827487E+01 -0.13312972028E+02  0.18726386626E+02  0.00000000000E+00 0. -1.
         11    1    3    3    0    0 -0.94401987280E+01  0.32890430724E+01  0.35075123313E+02  0.36471899211E+02  0.51100000000E-03 0. -1.
        -11    1    3    3    0    0  0.66746555886E+01 -0.58476685951E+01  0.31044836265E+01  0.94012804486E+01  0.51100000000E-03 0.  1.
        -12    1    3    3    0    0 -0.74426352634E+01 -0.57621572260E+01 -0.24866634911E+02  0.26588433714E+02  0.00000000000E+00 0.  1.
</event>
<event>
 7    1  0.3196678E-013  0.7246155E+02  0.7816164E-02  0.1226708E+00
        -11   -1    0    0    0    0  0.00000000000E+00  0.00000000000E+00  0.45593999997E+02  0.45594000000E+02  0.51100000000E-03 0. -1.
         11   -1    0    0    0    0 -0.00000000000E+00 -0.00000000000E+00 -0.45593999997E+02  0.45594000000E+02  0.51100000000E-03 0.  1.
    9900012    2    1    2    0    0  0.14266806505E+02  0.74653618998E+01 -0.95606685014E+01  0.72461554038E+02  0.69999978824E+02 0.  0.
         12    1    1    2    0    0 -0.14266806505E+02 -0.74653618998E+01  0.95606685014E+01  0.18726445962E+02  0.00000000000E+00 0. -1.
         11    1    3    3    0    0 -0.77487819636E+01 -0.15480319072E+02 -0.25479198851E+02  0.30803789943E+02  0.51100000000E-03 0.  1.
        -11    1    3    3    0    0  0.95436983934E+01  0.18268239510E+02 -0.37259182508E+00  0.20614305197E+02  0.51100000000E-03 0. -1.
        -12    1    3    3    0    0  0.12471890076E+02  0.46774414622E+01  0.16291122175E+02  0.21043458898E+02  0.00000000000E+00 0.  1.
</event>
<event>
 7    1  0.3196678E-013  0.7246157E+02  0.7816164E-02  0.1226708E+00
        -11   -1    0    0    0    0  0.00000000000E+00  0.00000000000E+00  0.45593999997E+02  0.45594000000E+02  0.51100000000E-03 0.  1.
         11   -1    0    0    0    0 -0.00000000000E+00 -0.00000000000E+00 -0.45593999997E+02  0.45594000000E+02  0.51100000000E-03 0. -1.
    9900012    2    1    2    0    0 -0.71895536486E+01  0.14575452353E+02  0.93030022903E+01  0.72461565621E+02  0.69999993912E+02 0.  0.
         12    1    1    2    0    0  0.71895536486E+01 -0.14575452353E+02 -0.93030022903E+01  0.18726434379E+02  0.00000000000E+00 0. -1.
         11    1    3    3    0    0 -0.14754771143E+02 -0.10765552583E+02 -0.95711157978E+01  0.20620539561E+02  0.51100000000E-03 0. -1.
        -11    1    3    3    0    0  0.22443149978E+02  0.48947961572E+01  0.81346226504E+01  0.24368547274E+02  0.51100000000E-03 0.  1.
        -12    1    3    3    0    0 -0.14877932483E+02  0.20446208778E+02  0.10739495438E+02  0.27472478785E+02  0.00000000000E+00 0.  1.
</event>
<event>
 7    1  0.3196678E-013  0.7246152E+02  0.7816164E-02  0.1226708E+00
        -11   -1    0    0    0    0  0.00000000000E+00  0.00000000000E+00  0.45593999997E+02  0.45594000000E+02  0.51100000000E-03 0.  1.
         11   -1    0    0    0    0 -0.00000000000E+00 -0.00000000000E+00 -0.45593999997E+02  0.45594000000E+02  0.51100000000E-03 0. -1.
    9900012    2    1    2    0    0  0.86688256740E+01 -0.15869564962E+02  0.48671801082E+01  0.72461519475E+02  0.69999933798E+02 0.  0.
         12    1    1    2    0    0 -0.86688256740E+01  0.15869564962E+02 -0.48671801082E+01  0.18726480525E+02  0.00000000000E+00 0. -1.
         11    1    3    3    0    0  0.93748961873E+01  0.49630668286E+01 -0.24004858794E+02  0.26244122330E+02  0.51100000000E-03 0. -1.
        -11    1    3    3    0    0  0.13751798286E+02 -0.78079038779E+01  0.81487934282E+01  0.17789832873E+02  0.51100000000E-03 0.  1.
        -12    1    3    3    0    0 -0.14457868799E+02 -0.13024727913E+02  0.20723245475E+02  0.28427564272E+02  0.00000000000E+00 0.  1.
</event>
<event>
 7    1  0.3196678E-013  0.7246158E+02  0.7816164E-02  0.1226708E+00
        -11   -1    0    0    0    0  0.00000000000E+00  0.00000000000E+00  0.45593999997E+02  0.45594000000E+02  0.51100000000E-03 0.  1.
         11   -1    0    0    0    0 -0.00000000000E+00 -0.00000000000E+00 -0.45593999997E+02  0.45594000000E+02  0.51100000000E-03 0. -1.
    9900012    2    1    2    0    0 -0.15915049075E+01  0.16273087322E+02  0.91286652618E+01  0.72461580472E+02  0.70000013259E+02 0.  0.
         12    1    1    2    0    0  0.15915049075E+01 -0.16273087322E+02 -0.91286652618E+01  0.18726419528E+02  0.00000000000E+00 0. -1.
         11    1    3    3    0    0 -0.29324229931E+01  0.11910202452E+02 -0.51707802216E+01  0.13311235683E+02  0.51100000000E-03 0. -1.
        -11    1    3    3    0    0  0.82605810618E+01  0.17523620092E+02  0.31146619570E+02  0.36680054137E+02  0.51100000000E-03 0.  1.
         12    1    3    3    0    0 -0.69196629762E+01 -0.13160735221E+02 -0.16847174087E+02  0.22470290652E+02  0.00000000000E+00 0. -1.
</event>
<event>
 7    1  0.3196678E-013  0.7246150E+02  0.7816164E-02  0.1226708E+00
        -11   -1    0    0    0    0  0.00000000000E+00  0.00000000000E+00  0.45593999997E+02  0.45594000000E+02  0.51100000000E-03 0. -1.
         11   -1    0    0    0    0 -0.00000000000E+00 -0.00000000000E+00 -0.45593999997E+02  0.45594000000E+02  0.51100000000E-03 0.  1.
    9900012    2    1    2    0    0 -0.58468422354E+01 -0.49975274436E+01 -0.17073982085E+02  0.72461502492E+02  0.69999911674E+02 0.  0.
         12    1    1    2    0    0  0.58468422354E+01  0.49975274436E+01  0.17073982085E+02  0.18726497508E+02  0.00000000000E+00 0. -1.
         11    1    3    3    0    0  0.43947246785E+01 -0.91060469699E+00 -0.17559226204E+02  0.18123720122E+02  0.51100000000E-03 0. -1.
        -11    1    3    3    0    0  0.44004277540E+01  0.21149317881E+02 -0.93632043056E+01  0.23544150152E+02  0.51100000000E-03 0.  1.
         12    1    3    3    0    0 -0.14641994668E+02 -0.25236240627E+02  0.98484484238E+01  0.30793632218E+02  0.00000000000E+00 0. -1.
</event>
<event>
 7    1  0.3196678E-013  0.7246149E+02  0.7816164E-02  0.1226708E+00
        -11   -1    0    0    0    0  0.00000000000E+00  0.00000000000E+00  0.45593999997E+02  0.45594000000E+02  0.51100000000E-03 0. -1.
         11   -1    0    0    0    0 -0.00000000000E+00 -0.00000000000E+00 -0.45593999997E+02  0.45594000000E+02  0.51100000000E-03 0.  1.
    9900012    2    1    2    0    0  0.17676729993E+02  0.58949410878E+01  0.18615181467E+01  0.72461485015E+02  0.69999888907E+02 0.  0.
         12    1    1    2    0    0 -0.17676729993E+02 -0.58949410878E+01 -0.18615181467E+01  0.18726514985E+02  0.00000000000E+00 0. -1.
         11    1    3    3    0    0  0.32358111106E+02  0.59921937304E+00  0.13607350838E+02  0.35107925249E+02  0.51100000000E-03 0. -1.
        -11    1    3    3    0    0 -0.36735765064E+01 -0.32057073417E+01  0.10237856209E+02  0.11339551311E+02  0.51100000000E-03 0.  1.
        -12    1    3    3    0    0 -0.11007804606E+02  0.85014290564E+01 -0.21983688900E+02  0.26014008455E+02  0.00000000000E+00 0.  1.
</event>
<event>
 7    1  0.3196678E-013  0.7246150E+02  0.7816164E-02  0.1226708E+00
        -11   -1    0    0    0    0  0.00000000000E+00  0.00000000000E+00  0.45593999997E+02  0.45594000000E+02  0.51100000000E-03 0.  1.
         11   -1    0    0    0    0 -0.00000000000E+00 -0.00000000000E+00 -0.45593999997E+02  0.45594000000E+02  0.51100000000E-03 0. -1.
    9900012    2    1    2    0    0  0.51467440894E+01  0.11047522415E+02  0.14217775565E+02  0.72461498238E+02  0.69999906133E+02 0.  0.
         12    1    1    2    0    0 -0.51467440894E+01 -0.11047522415E+02 -0.14217775565E+02  0.18726501762E+02  0.00000000000E+00 0. -1.
         11    1    3    3    0    0  0.50789989564E+01 -0.13214527890E+02 -0.12420677151E+02  0.18833300266E+02  0.51100000000E-03 0. -1.
        -11    1    3    3    0    0 -0.18287281321E+01  0.97413807813E+01 -0.10056026361E+02  0.14119575508E+02  0.51100000000E-03 0.  1.
        -12    1    3    3    0    0  0.18964732651E+01  0.14520669524E+02  0.36694479077E+02  0.39508622464E+02  0.00000000000E+00 0.  1.
</event>
<event>
 7    1  0.3196678E-013  0.7246156E+02  0.7816164E-02  0.1226708E+00
        -11   -1    0    0    0    0  0.00000000000E+00  0.00000000000E+00  0.45593999997E+02  0.45594000000E+02  0.51100000000E-03 0.  1.
         11   -1    0    0    0    0 -0.00000000000E+00 -0.00000000000E+00 -0.45593999997E+02  0.45594000000E+02  0.51100000000E-03 0. -1.
    9900012    2    1    2    0    0  0.18076904224E+02 -0.28948813059E+01  0.39401265470E+01  0.72461564106E+02  0.69999991938E+02 0.  0.
         12    1    1    2    0    0 -0.18076904224E+02  0.28948813059E+01 -0.39401265470E+01  0.18726435894E+02  0.00000000000E+00 0. -1.
         11    1    3    3    0    0  0.63850120512E+00  0.19464763852E+02  0.98622845021E+01  0.21830010798E+02  0.51100000000E-03 0. -1.
        -11    1    3    3    0    0  0.29456417016E+02 -0.18586069322E+02  0.33496602025E+01  0.34990608740E+02  0.51100000000E-03 0.  1.
         12    1    3    3    0    0 -0.12018013997E+02 -0.37735758361E+01 -0.92718181576E+01  0.15640944568E+02  0.00000000000E+00 0. -1.
</event>
<event>
 7    1  0.3196678E-013  0.7246154E+02  0.7816164E-02  0.1226708E+00
        -11   -1    0    0    0    0  0.00000000000E+00  0.00000000000E+00  0.45593999997E+02  0.45594000000E+02  0.51100000000E-03 0. -1.
         11   -1    0    0    0    0 -0.00000000000E+00 -0.00000000000E+00 -0.45593999997E+02  0.45594000000E+02  0.51100000000E-03 0.  1.
    9900012    2    1    2    0    0 -0.18902099152E+01 -0.18580976833E+02 -0.13618567576E+01  0.72461541514E+02  0.69999962508E+02 0.  0.
         12    1    1    2    0    0  0.18902099152E+01  0.18580976833E+02  0.13618567576E+01  0.18726458486E+02  0.00000000000E+00 0. -1.
         11    1    3    3    0    0  0.10608938044E+02 -0.18931513385E+02  0.17245591741E+02  0.27719347038E+02  0.51100000000E-03 0. -1.
        -11    1    3    3    0    0 -0.24490054085E+02 -0.59803700987E+01 -0.53350013271E+01  0.25767999826E+02  0.51100000000E-03 0.  1.
        -12    1    3    3    0    0  0.11990906126E+02  0.63309066499E+01 -0.13272447171E+02  0.18974194651E+02  0.00000000000E+00 0.  1.
</event>
<event>
 7    1  0.3196678E-013  0.7246154E+02  0.7816164E-02  0.1226708E+00
        -11   -1    0    0    0    0  0.00000000000E+00  0.00000000000E+00  0.45593999997E+02  0.45594000000E+02  0.51100000000E-03 0.  1.
         11   -1    0    0    0    0 -0.00000000000E+00 -0.00000000000E+00 -0.45593999997E+02  0.45594000000E+02  0.51100000000E-03 0. -1.
    9900012    2    1    2    0    0 -0.13201278310E+02 -0.51105039963E+01  0.12259251691E+02  0.72461541388E+02  0.69999962344E+02 0.  0.
         12    1    1    2    0    0  0.13201278310E+02  0.51105039963E+01 -0.12259251691E+02  0.18726458612E+02  0.00000000000E+00 0. -1.
         11    1    3    3    0    0 -0.19561067148E+02 -0.19566115586E+01  0.23462107148E-01  0.19658693433E+02  0.51100000000E-03 0.  1.
        -11    1    3    3    0    0 -0.22285885178E+02 -0.19354931478E+01  0.83115772587E+01  0.23863971352E+02  0.51100000000E-03 0. -1.
         12    1    3    3    0    0  0.28645674016E+02 -0.12183992900E+01  0.39242123251E+01  0.28938876603E+02  0.00000000000E+00 0. -1.
</event>
<event>
 7    1  0.3196678E-013  0.7246182E+02  0.7816164E-02  0.1226707E+00
        -11   -1    0    0    0    0  0.00000000000E+00  0.00000000000E+00  0.45593999997E+02  0.45594000000E+02  0.51100000000E-03 0.  1.
         11   -1    0    0    0    0 -0.00000000000E+00 -0.00000000000E+00 -0.45593999997E+02  0.45594000000E+02  0.51100000000E-03 0. -1.
    9900012    2    1    2    0    0  0.13688455848E+02  0.15763091914E+01  0.12681139176E+02  0.72461818730E+02  0.70000323632E+02 0.  0.
         12    1    1    2    0    0 -0.13688455848E+02 -0.15763091914E+01 -0.12681139176E+02  0.18726181270E+02  0.00000000000E+00 0. -1.
         11    1    3    3    0    0  0.25003337317E+01  0.14159324600E+02 -0.20701260535E+01  0.14526650131E+02  0.51100000000E-03 0. -1.
        -11    1    3    3    0    0  0.78892415591E+00  0.20150146423E+02 -0.91326025839E+00  0.20186253906E+02  0.51100000000E-03 0.  1.
        -12    1    3    3    0    0  0.10399197960E+02 -0.32733161831E+02  0.15664525488E+02  0.37748914693E+02  0.00000000000E+00 0.  1.
</event>
<event>
 7    1  0.3196678E-013  0.7246159E+02  0.7816164E-02  0.1226708E+00
        -11   -1    0    0    0    0  0.00000000000E+00  0.00000000000E+00  0.45593999997E+02  0.45594000000E+02  0.51100000000E-03 0. -1.
         11   -1    0    0    0    0 -0.00000000000E+00 -0.00000000000E+00 -0.45593999997E+02  0.45594000000E+02  0.51100000000E-03 0.  1.
    9900012    2    1    2    0    0  0.74619999264E+01  0.13465753658E+02 -0.10661636852E+02  0.72461589110E+02  0.70000024511E+02 0.  0.
         12    1    1    2    0    0 -0.74619999264E+01 -0.13465753658E+02  0.10661636852E+02  0.18726410890E+02  0.00000000000E+00 0. -1.
         11    1    3    3    0    0 -0.74619958977E+01 -0.14333085981E+02 -0.18968651255E+02  0.24918436291E+02  0.51100000000E-03 0. -1.
        -11    1    3    3    0    0  0.20722995131E+02  0.93992550893E+01 -0.59911244100E+01  0.23530450387E+02  0.51100000000E-03 0.  1.
        -12    1    3    3    0    0 -0.57989993071E+01  0.18399584549E+02  0.14298138813E+02  0.24012702432E+02  0.00000000000E+00 0.  1.
</event>
<event>
 7    1  0.3196678E-013  0.7246162E+02  0.7816164E-02  0.1226708E+00
        -11   -1    0    0    0    0  0.00000000000E+00  0.00000000000E+00  0.45593999997E+02  0.45594000000E+02  0.51100000000E-03 0.  1.
         11   -1    0    0    0    0 -0.00000000000E+00 -0.00000000000E+00 -0.45593999997E+02  0.45594000000E+02  0.51100000000E-03 0. -1.
    9900012    2    1    2    0    0  0.49408337883E+01 -0.17124718767E+02 -0.57453722886E+01  0.72461624641E+02  0.70000070796E+02 0.  0.
         12    1    1    2    0    0 -0.49408337883E+01  0.17124718767E+02  0.57453722886E+01  0.18726375359E+02  0.00000000000E+00 0. -1.
         11    1    3    3    0    0 -0.29622340385E+01 -0.19313260586E+02 -0.12376859537E+02  0.23129278355E+02  0.51100000000E-03 0. -1.
        -11    1    3    3    0    0  0.68824274613E+01 -0.22369623299E+02 -0.14745019664E+01  0.23450842428E+02  0.51100000000E-03 0.  1.
         12    1    3    3    0    0  0.10206403656E+01  0.24558165119E+02  0.81059892151E+01  0.25881503857E+02  0.00000000000E+00 0. -1.
</event>
<event>
 7    1  0.3196678E-013  0.7246154E+02  0.7816164E-02  0.1226708E+00
        -11   -1    0    0    0    0  0.00000000000E+00  0.00000000000E+00  0.45593999997E+02  0.45594000000E+02  0.51100000000E-03 0.  1.
         11   -1    0    0    0    0 -0.00000000000E+00 -0.00000000000E+00 -0.45593999997E+02  0.45594000000E+02  0.51100000000E-03 0. -1.
    9900012    2    1    2    0    0  0.16122172305E+01 -0.16057125913E+02  0.94999841398E+01  0.72461541829E+02  0.69999962918E+02 0.  0.
         12    1    1    2    0    0 -0.16122172305E+01  0.16057125913E+02 -0.94999841398E+01  0.18726458171E+02  0.00000000000E+00 0. -1.
         11    1    3    3    0    0 -0.78960794460E+01 -0.59350798560E+00 -0.19198127043E+02  0.20767002783E+02  0.51100000000E-03 0. -1.
        -11    1    3    3    0    0  0.18662149524E+02 -0.12857297066E+02  0.13105174938E+01  0.22700294471E+02  0.51100000000E-03 0.  1.
        -12    1    3    3    0    0 -0.91538528476E+01 -0.26063208614E+01  0.27387593689E+02  0.28994244575E+02  0.00000000000E+00 0.  1.
</event>
<event>
 7    1  0.3196678E-013  0.7246178E+02  0.7816164E-02  0.1226707E+00
        -11   -1    0    0    0    0  0.00000000000E+00  0.00000000000E+00  0.45593999997E+02  0.45594000000E+02  0.51100000000E-03 0.  1.
         11   -1    0    0    0    0 -0.00000000000E+00 -0.00000000000E+00 -0.45593999997E+02  0.45594000000E+02  0.51100000000E-03 0. -1.
    9900012    2    1    2    0    0  0.65447319977E+01 -0.55386563644E+01  0.16648152937E+02  0.72461782350E+02  0.70000276242E+02 0.  0.
         12    1    1    2    0    0 -0.65447319977E+01  0.55386563644E+01 -0.16648152937E+02  0.18726217650E+02  0.00000000000E+00 0. -1.
         11    1    3    3    0    0 -0.18898058966E+02 -0.13143677595E+02  0.15520870631E+02  0.27763110756E+02  0.51100000000E-03 0. -1.
        -11    1    3    3    0    0  0.51043540897E+01 -0.10438921653E+02  0.10776826590E+02  0.15848202029E+02  0.51100000000E-03 0.  1.
        -12    1    3    3    0    0  0.20338436874E+02  0.18043942883E+02 -0.96495442840E+01  0.28850469566E+02  0.00000000000E+00 0.  1.
</event>
<event>
 7    1  0.3196678E-013  0.7246158E+02  0.7816164E-02  0.1226708E+00
        -11   -1    0    0    0    0  0.00000000000E+00  0.00000000000E+00  0.45593999997E+02  0.45594000000E+02  0.51100000000E-03 0. -1.
         11   -1    0    0    0    0 -0.00000000000E+00 -0.00000000000E+00 -0.45593999997E+02  0.45594000000E+02  0.51100000000E-03 0.  1.
    9900012    2    1    2    0    0 -0.11566546455E+02 -0.19516085245E+01 -0.14597426942E+02  0.72461584271E+02  0.70000018208E+02 0.  0.
         12    1    1    2    0    0  0.11566546455E+02  0.19516085245E+01  0.14597426942E+02  0.18726415729E+02  0.00000000000E+00 0. -1.
         11    1    3    3    0    0 -0.41612204290E+00  0.52936133746E+01  0.40875516031E+00  0.53256531202E+01  0.51100000000E-03 0. -1.
        -11    1    3    3    0    0 -0.24147609125E+02 -0.16976078824E+02  0.14931157155E+02  0.33079203934E+02  0.51100000000E-03 0.  1.
         12    1    3    3    0    0  0.12997184713E+02  0.97308569251E+01 -0.29937339257E+02  0.34056727217E+02  0.00000000000E+00 0. -1.
</event>
<event>
 7    1  0.3196678E-013  0.7246157E+02  0.7816164E-02  0.1226708E+00
        -11   -1    0    0    0    0  0.00000000000E+00  0.00000000000E+00  0.45593999997E+02  0.45594000000E+02  0.51100000000E-03 0.  1.
         11   -1    0    0    0    0 -0.00000000000E+00 -0.00000000000E+00 -0.45593999997E+02  0.45594000000E+02  0.51100000000E-03 0. -1.
    9900012    2    1    2    0    0 -0.34450264440E+01 -0.12664261277E+02  0.13357671364E+02  0.72461572013E+02  0.70000002238E+02 0.  0.
         12    1    1    2    0    0  0.34450264440E+01  0.12664261277E+02 -0.13357671364E+02  0.18726427987E+02  0.00000000000E+00 0. -1.
         11    1    3    3    0    0 -0.45503303458E+01  0.10877159807E+02 -0.16469545223E+02  0.20254975483E+02  0.51100000000E-03 0. -1.
        -11    1    3    3    0    0 -0.15841638680E+02 -0.12132872639E+02  0.60343530360E+01  0.20846523244E+02  0.51100000000E-03 0.  1.
        -12    1    3    3    0    0  0.16946942582E+02 -0.11408548446E+02  0.23792863551E+02  0.31360073285E+02  0.00000000000E+00 0.  1.
</event>
<event>
 7    1  0.3196678E-013  0.7246160E+02  0.7816164E-02  0.1226708E+00
        -11   -1    0    0    0    0  0.00000000000E+00  0.00000000000E+00  0.45593999997E+02  0.45594000000E+02  0.51100000000E-03 0.  1.
         11   -1    0    0    0    0 -0.00000000000E+00 -0.00000000000E+00 -0.45593999997E+02  0.45594000000E+02  0.51100000000E-03 0. -1.
    9900012    2    1    2    0    0  0.15273798393E+02 -0.93087607227E+01  0.55440198873E+01  0.72461598849E+02  0.70000037198E+02 0.  0.
         12    1    1    2    0    0 -0.15273798393E+02  0.93087607227E+01 -0.55440198873E+01  0.18726401151E+02  0.00000000000E+00 0. -1.
         11    1    3    3    0    0 -0.29587710913E+01 -0.74999019145E+01  0.27036887027E+02  0.28213403117E+02  0.51100000000E-03 0. -1.
        -11    1    3    3    0    0  0.10519874597E+02  0.98558900659E+01  0.41839262606E+01  0.15010382065E+02  0.51100000000E-03 0.  1.
        -12    1    3    3    0    0  0.77126948877E+01 -0.11664748874E+02 -0.25676793400E+02  0.29237813667E+02  0.00000000000E+00 0.  1.
</event>
<event>
 7    1  0.3196678E-013  0.7246157E+02  0.7816164E-02  0.1226708E+00
        -11   -1    0    0    0    0  0.00000000000E+00  0.00000000000E+00  0.45593999997E+02  0.45594000000E+02  0.51100000000E-03 0.  1.
         11   -1    0    0    0    0 -0.00000000000E+00 -0.00000000000E+00 -0.45593999997E+02  0.45594000000E+02  0.51100000000E-03 0. -1.
    9900012    2    1    2    0    0 -0.69880456338E+01  0.87517176724E+01 -0.15008463652E+02  0.72461566138E+02  0.69999994585E+02 0.  0.
         12    1    1    2    0    0  0.69880456338E+01 -0.87517176724E+01  0.15008463652E+02  0.18726433862E+02  0.00000000000E+00 0. -1.
         11    1    3    3    0    0  0.19485407302E+01  0.87799602800E+00 -0.18687405384E+02  0.18809221362E+02  0.51100000000E-03 0. -1.
        -11    1    3    3    0    0  0.18121000668E+02  0.78926581425E+01 -0.11257010607E+02  0.22746098695E+02  0.51100000000E-03 0.  1.
         12    1    3    3    0    0 -0.27057587032E+02 -0.18936498099E-01  0.14935952338E+02  0.30906246081E+02  0.00000000000E+00 0. -1.
</event>
<event>
 7    1  0.3196678E-013  0.7246137E+02  0.7816164E-02  0.1226709E+00
        -11   -1    0    0    0    0  0.00000000000E+00  0.00000000000E+00  0.45593999997E+02  0.45594000000E+02  0.51100000000E-03 0.  1.
         11   -1    0    0    0    0 -0.00000000000E+00 -0.00000000000E+00 -0.45593999997E+02  0.45594000000E+02  0.51100000000E-03 0. -1.
    9900012    2    1    2    0    0 -0.18785815845E+01  0.17590460710E+02  0.61427367920E+01  0.72461372112E+02  0.69999741830E+02 0.  0.
         12    1    1    2    0    0  0.18785815845E+01 -0.17590460710E+02 -0.61427367920E+01  0.18726627888E+02  0.00000000000E+00 0. -1.
         11    1    3    3    0    0 -0.93412432537E+01 -0.81934496303E+01 -0.18367182013E+02  0.22175320014E+02  0.51100000000E-03 0. -1.
        -11    1    3    3    0    0 -0.98426878151E+01 -0.19650288463E+01  0.11032299323E+02  0.14914807086E+02  0.51100000000E-03 0.  1.
        -12    1    3    3    0    0  0.17305349484E+02  0.27748939187E+02  0.13477619482E+02  0.35371245011E+02  0.00000000000E+00 0.  1.
</event>
<event>
 7    1  0.3196678E-013  0.7246193E+02  0.7816164E-02  0.1226707E+00
        -11   -1    0    0    0    0  0.00000000000E+00  0.00000000000E+00  0.45593999997E+02  0.45594000000E+02  0.51100000000E-03 0.  1.
         11   -1    0    0    0    0 -0.00000000000E+00 -0.00000000000E+00 -0.45593999997E+02  0.45594000000E+02  0.51100000000E-03 0. -1.
    9900012    2    1    2    0    0 -0.87561090759E+01  0.33848391164E+01  0.16203060469E+02  0.72461928587E+02  0.70000466741E+02 0.  0.
         12    1    1    2    0    0  0.87561090759E+01 -0.33848391164E+01 -0.16203060469E+02  0.18726071413E+02  0.00000000000E+00 0. -1.
         11    1    3    3    0    0 -0.31447117571E+02  0.10647080320E+02  0.13764189779E+02  0.35940707331E+02  0.51100000000E-03 0. -1.
        -11    1    3    3    0    0  0.31929911237E+01  0.52187292917E+01 -0.88548321434E+01  0.10762823992E+02  0.51100000000E-03 0.  1.
        -12    1    3    3    0    0  0.19498017372E+02 -0.12480970495E+02  0.11293702833E+02  0.25758397264E+02  0.00000000000E+00 0.  1.
</event>
<event>
 7    1  0.3196678E-013  0.7246145E+02  0.7816164E-02  0.1226708E+00
        -11   -1    0    0    0    0  0.00000000000E+00  0.00000000000E+00  0.45593999997E+02  0.45594000000E+02  0.51100000000E-03 0.  1.
         11   -1    0    0    0    0 -0.00000000000E+00 -0.00000000000E+00 -0.45593999997E+02  0.45594000000E+02  0.51100000000E-03 0. -1.
    9900012    2    1    2    0    0  0.14425160283E+02 -0.57113518540E+01  0.10487085690E+02  0.72461447849E+02  0.69999840492E+02 0.  0.
         12    1    1    2    0    0 -0.14425160283E+02  0.57113518540E+01 -0.10487085690E+02  0.18726552151E+02  0.00000000000E+00 0. -1.
         11    1    3    3    0    0 -0.74463238681E+01  0.14888891321E+02 -0.42819619112E+01  0.17189008755E+02  0.51100000000E-03 0. -1.
        -11    1    3    3    0    0 -0.80258360913E+01  0.81723642483E+01  0.76656195374E+00  0.11479947729E+02  0.51100000000E-03 0.  1.
        -12    1    3    3    0    0  0.29897320243E+02 -0.28772607423E+02  0.14002485647E+02  0.43792491365E+02  0.00000000000E+00 0.  1.
</event>
<event>
 7    1  0.3196678E-013  0.7246158E+02  0.7816164E-02  0.1226708E+00
        -11   -1    0    0    0    0  0.00000000000E+00  0.00000000000E+00  0.45593999997E+02  0.45594000000E+02  0.51100000000E-03 0.  1.
         11   -1    0    0    0    0 -0.00000000000E+00 -0.00000000000E+00 -0.45593999997E+02  0.45594000000E+02  0.51100000000E-03 0. -1.
    9900012    2    1    2    0    0 -0.46688563921E+01 -0.63408826971E+01  0.16990397664E+02  0.72461584802E+02  0.70000018898E+02 0.  0.
         12    1    1    2    0    0  0.46688563921E+01  0.63408826971E+01 -0.16990397664E+02  0.18726415198E+02  0.00000000000E+00 0. -1.
         11    1    3    3    0    0 -0.29343816947E+01 -0.23546184339E+02 -0.45069726569E+01  0.24152560851E+02  0.51100000000E-03 0. -1.
        -11    1    3    3    0    0 -0.18146808412E+02  0.19680517549E+01  0.18012780728E+02  0.25644495570E+02  0.51100000000E-03 0.  1.
        -12    1    3    3    0    0  0.16412333714E+02  0.15237249887E+02  0.34845895933E+01  0.22664528380E+02  0.00000000000E+00 0.  1.
</event>
<event>
 7    1  0.3196678E-013  0.7246149E+02  0.7816164E-02  0.1226708E+00
        -11   -1    0    0    0    0  0.00000000000E+00  0.00000000000E+00  0.45593999997E+02  0.45594000000E+02  0.51100000000E-03 0. -1.
         11   -1    0    0    0    0 -0.00000000000E+00 -0.00000000000E+00 -0.45593999997E+02  0.45594000000E+02  0.51100000000E-03 0.  1.
    9900012    2    1    2    0    0 -0.72034203849E+01  0.15774946598E+02 -0.70671011903E+01  0.72461491392E+02  0.69999897215E+02 0.  0.
         12    1    1    2    0    0  0.72034203849E+01 -0.15774946598E+02  0.70671011903E+01  0.18726508608E+02  0.00000000000E+00 0. -1.
         11    1    3    3    0    0 -0.19405219658E+02 -0.13369139850E+02 -0.11795143744E+02  0.26351885445E+02  0.51100000000E-03 0. -1.
        -11    1    3    3    0    0  0.51320915536E+01 -0.57662591074E+01 -0.49862186260E+01  0.91896944593E+01  0.51100000000E-03 0.  1.
         12    1    3    3    0    0  0.70697077193E+01  0.34910345555E+02  0.97142611793E+01  0.36919911488E+02  0.00000000000E+00 0. -1.
</event>
<event>
 7    1  0.3196678E-013  0.7246151E+02  0.7816164E-02  0.1226708E+00
        -11   -1    0    0    0    0  0.00000000000E+00  0.00000000000E+00  0.45593999997E+02  0.45594000000E+02  0.51100000000E-03 0.  1.
         11   -1    0    0    0    0 -0.00000000000E+00 -0.00000000000E+00 -0.45593999997E+02  0.45594000000E+02  0.51100000000E-03 0. -1.
    9900012    2    1    2    0    0  0.93795613690E+01 -0.16134934603E+02  0.15391644359E+01  0.72461513056E+02  0.69999925436E+02 0.  0.
         12    1    1    2    0    0 -0.93795613690E+01  0.16134934603E+02 -0.15391644359E+01  0.18726486944E+02  0.00000000000E+00 0. -1.
         11    1    3    3    0    0  0.19470824200E+02 -0.74040489116E+01 -0.14709876012E+02  0.25501242869E+02  0.51100000000E-03 0. -1.
        -11    1    3    3    0    0 -0.37172273774E+01  0.12831404061E+02 -0.66026213917E+01  0.14901587803E+02  0.51100000000E-03 0.  1.
        -12    1    3    3    0    0 -0.63740354535E+01 -0.21562289752E+02  0.22851661840E+02  0.32058682384E+02  0.00000000000E+00 0.  1.
</event>
<event>
 7    1  0.3196678E-013  0.7246158E+02  0.7816164E-02  0.1226708E+00
        -11   -1    0    0    0    0  0.00000000000E+00  0.00000000000E+00  0.45593999997E+02  0.45594000000E+02  0.51100000000E-03 0.  1.
         11   -1    0    0    0    0 -0.00000000000E+00 -0.00000000000E+00 -0.45593999997E+02  0.45594000000E+02  0.51100000000E-03 0. -1.
    9900012    2    1    2    0    0  0.50137580820E+01 -0.36416798374E+01  0.17671424215E+02  0.72461579201E+02  0.70000011603E+02 0.  0.
         12    1    1    2    0    0 -0.50137580820E+01  0.36416798374E+01 -0.17671424215E+02  0.18726420799E+02  0.00000000000E+00 0. -1.
         11    1    3    3    0    0  0.13719136991E+02  0.66495099797E+01 -0.54563903793E+01  0.16192680414E+02  0.51100000000E-03 0. -1.
        -11    1    3    3    0    0  0.20020352858E+02 -0.10079895112E+02  0.12313645427E+02  0.25574297214E+02  0.51100000000E-03 0.  1.
         12    1    3    3    0    0 -0.28725731767E+02 -0.21129470551E+00  0.10814169167E+02  0.30694601574E+02  0.00000000000E+00 0. -1.
</event>
<event>
 7    1  0.3196678E-013  0.7246163E+02  0.7816164E-02  0.1226708E+00
        -11   -1    0    0    0    0  0.00000000000E+00  0.00000000000E+00  0.45593999997E+02  0.45594000000E+02  0.51100000000E-03 0. -1.
         11   -1    0    0    0    0 -0.00000000000E+00 -0.00000000000E+00 -0.45593999997E+02  0.45594000000E+02  0.51100000000E-03 0.  1.
    9900012    2    1    2    0    0 -0.58201567385E+01  0.88332490444E+01 -0.15452397993E+02  0.72461625100E+02  0.70000071395E+02 0.  0.
         12    1    1    2    0    0  0.58201567385E+01 -0.88332490444E+01  0.15452397993E+02  0.18726374900E+02  0.00000000000E+00 0. -1.
         11    1    3    3    0    0  0.12746430045E+02  0.17014145051E+01 -0.19037790311E+01  0.12999640960E+02  0.51100000000E-03 0. -1.
        -11    1    3    3    0    0 -0.96522721293E+01 -0.16485217681E+02  0.12782448310E+02  0.22985207076E+02  0.51100000000E-03 0.  1.
         12    1    3    3    0    0 -0.89143146544E+01  0.23617052220E+02 -0.26331067272E+02  0.36476777065E+02  0.00000000000E+00 0. -1.
</event>
<event>
 7    1  0.3196678E-013  0.7246157E+02  0.7816164E-02  0.1226708E+00
        -11   -1    0    0    0    0  0.00000000000E+00  0.00000000000E+00  0.45593999997E+02  0.45594000000E+02  0.51100000000E-03 0.  1.
         11   -1    0    0    0    0 -0.00000000000E+00 -0.00000000000E+00 -0.45593999997E+02  0.45594000000E+02  0.51100000000E-03 0. -1.
    9900012    2    1    2    0    0 -0.16290204381E+02 -0.22190267689E+01  0.89657288040E+01  0.72461571308E+02  0.70000001320E+02 0.  0.
         12    1    1    2    0    0  0.16290204381E+02  0.22190267689E+01 -0.89657288040E+01  0.18726428692E+02  0.00000000000E+00 0. -1.
         11    1    3    3    0    0 -0.94245479797E+01 -0.16614348228E+02 -0.15296226270E+01  0.19162422010E+02  0.51100000000E-03 0. -1.
        -11    1    3    3    0    0 -0.21716416127E+02  0.57267263361E+01 -0.11618757235E+02  0.25286234277E+02  0.51100000000E-03 0.  1.
        -12    1    3    3    0    0  0.14850759726E+02  0.86685951228E+01  0.22114108666E+02  0.28012915021E+02  0.00000000000E+00 0.  1.
</event>
<event>
 7    1  0.3196678E-013  0.7246162E+02  0.7816164E-02  0.1226708E+00
        -11   -1    0    0    0    0  0.00000000000E+00  0.00000000000E+00  0.45593999997E+02  0.45594000000E+02  0.51100000000E-03 0. -1.
         11   -1    0    0    0    0 -0.00000000000E+00 -0.00000000000E+00 -0.45593999997E+02  0.45594000000E+02  0.51100000000E-03 0.  1.
    9900012    2    1    2    0    0  0.14598280628E+01 -0.14494990662E+01 -0.18613036757E+02  0.72461620670E+02  0.70000065623E+02 0.  0.
         12    1    1    2    0    0 -0.14598280628E+01  0.14494990662E+01  0.18613036757E+02  0.18726379330E+02  0.00000000000E+00 0. -1.
         11    1    3    3    0    0 -0.85004783341E+00  0.26597147489E+01 -0.19487582669E+00  0.27990428210E+01  0.51100000000E-03 0. -1.
        -11    1    3    3    0    0 -0.25343073239E+02  0.15519712533E+02  0.24934066939E+01  0.29821970349E+02  0.51100000000E-03 0.  1.
         12    1    3    3    0    0  0.27652949135E+02 -0.19628926348E+02 -0.20911567624E+02  0.39840607500E+02  0.00000000000E+00 0. -1.
</event>
<event>
 7    1  0.3196678E-013  0.7246153E+02  0.7816164E-02  0.1226708E+00
        -11   -1    0    0    0    0  0.00000000000E+00  0.00000000000E+00  0.45593999997E+02  0.45594000000E+02  0.51100000000E-03 0.  1.
         11   -1    0    0    0    0 -0.00000000000E+00 -0.00000000000E+00 -0.45593999997E+02  0.45594000000E+02  0.51100000000E-03 0. -1.
    9900012    2    1    2    0    0  0.17491021992E+01 -0.15337747390E+02  0.10600697356E+02  0.72461531087E+02  0.69999948925E+02 0.  0.
         12    1    1    2    0    0 -0.17491021992E+01  0.15337747390E+02 -0.10600697356E+02  0.18726468913E+02  0.00000000000E+00 0. -1.
         11    1    3    3    0    0 -0.15960780643E+02 -0.24782718269E+02  0.11405210077E+00  0.29477833226E+02  0.51100000000E-03 0. -1.
        -11    1    3    3    0    0 -0.78625682028E+01  0.32884555086E+01  0.14057624573E+02  0.16439304343E+02  0.51100000000E-03 0.  1.
        -12    1    3    3    0    0  0.25572451045E+02  0.61565153704E+01 -0.35709793177E+01  0.26544393518E+02  0.00000000000E+00 0.  1.
</event>
<event>
 7    1  0.3196678E-013  0.7246164E+02  0.7816164E-02  0.1226708E+00
        -11   -1    0    0    0    0  0.00000000000E+00  0.00000000000E+00  0.45593999997E+02  0.45594000000E+02  0.51100000000E-03 0.  1.
         11   -1    0    0    0    0 -0.00000000000E+00 -0.00000000000E+00 -0.45593999997E+02  0.45594000000E+02  0.51100000000E-03 0. -1.
    9900012    2    1    2    0    0  0.10633965303E+01  0.18643363490E+02  0.14038896672E+01  0.72461635681E+02  0.70000085178E+02 0.  0.
         12    1    1    2    0    0 -0.10633965303E+01 -0.18643363490E+02 -0.14038896672E+01  0.18726364319E+02  0.00000000000E+00 0. -1.
         11    1    3    3    0    0 -0.13197910724E+02 -0.17317875428E+02  0.12282271208E+02  0.24998956840E+02  0.51100000000E-03 0. -1.
        -11    1    3    3    0    0  0.28076325300E+01  0.30248348549E+00 -0.95795339075E+01  0.99870799950E+01  0.51100000000E-03 0.  1.
        -12    1    3    3    0    0  0.11453674724E+02  0.35658755432E+02 -0.12988476336E+01  0.37475598846E+02  0.00000000000E+00 0.  1.
</event>
<event>
 7    1  0.3196678E-013  0.7246159E+02  0.7816164E-02  0.1226708E+00
        -11   -1    0    0    0    0  0.00000000000E+00  0.00000000000E+00  0.45593999997E+02  0.45594000000E+02  0.51100000000E-03 0.  1.
         11   -1    0    0    0    0 -0.00000000000E+00 -0.00000000000E+00 -0.45593999997E+02  0.45594000000E+02  0.51100000000E-03 0. -1.
    9900012    2    1    2    0    0 -0.36105621341E+01  0.95131605280E+01  0.15720756708E+02  0.72461586205E+02  0.70000020727E+02 0.  0.
         12    1    1    2    0    0  0.36105621341E+01 -0.95131605280E+01 -0.15720756708E+02  0.18726413795E+02  0.00000000000E+00 0. -1.
         11    1    3    3    0    0  0.83775257888E+01 -0.10774434008E+02  0.48764944427E+01  0.14493155793E+02  0.51100000000E-03 0. -1.
        -11    1    3    3    0    0  0.18106878829E+02  0.30293243238E+01  0.14064882212E+02  0.23126970807E+02  0.51100000000E-03 0.  1.
        -12    1    3    3    0    0 -0.30094966752E+02  0.17258270212E+02 -0.32206199471E+01  0.34841459605E+02  0.00000000000E+00 0.  1.
</event>
<event>
 7    1  0.3196678E-013  0.7246158E+02  0.7816164E-02  0.1226708E+00
        -11   -1    0    0    0    0  0.00000000000E+00  0.00000000000E+00  0.45593999997E+02  0.45594000000E+02  0.51100000000E-03 0. -1.
         11   -1    0    0    0    0 -0.00000000000E+00 -0.00000000000E+00 -0.45593999997E+02  0.45594000000E+02  0.51100000000E-03 0.  1.
    9900012    2    1    2    0    0  0.93329781478E+01  0.53086089871E+01 -0.15342520042E+02  0.72461581984E+02  0.70000015228E+02 0.  0.
         12    1    1    2    0    0 -0.93329781478E+01 -0.53086089871E+01  0.15342520042E+02  0.18726418016E+02  0.00000000000E+00 0. -1.
         11    1    3    3    0    0  0.24209699519E+02  0.34244593382E+01  0.93081037973E+01  0.26162516491E+02  0.51100000000E-03 0. -1.
        -11    1    3    3    0    0 -0.50569314690E+01  0.70003874893E-01  0.94761557098E+01  0.10741274772E+02  0.51100000000E-03 0.  1.
        -12    1    3    3    0    0 -0.98197899021E+01  0.18141457740E+01 -0.34126779549E+02  0.35557790721E+02  0.00000000000E+00 0.  1.
</event>
<event>
 7    1  0.3196678E-013  0.7246157E+02  0.7816164E-02  0.1226708E+00
        -11   -1    0    0    0    0  0.00000000000E+00  0.00000000000E+00  0.45593999997E+02  0.45594000000E+02  0.51100000000E-03 0.  1.
         11   -1    0    0    0    0 -0.00000000000E+00 -0.00000000000E+00 -0.45593999997E+02  0.45594000000E+02  0.51100000000E-03 0. -1.
    9900012    2    1    2    0    0  0.14723169982E+02 -0.71365771709E+01  0.91091519409E+01  0.72461571693E+02  0.70000001822E+02 0.  0.
         12    1    1    2    0    0 -0.14723169982E+02  0.71365771709E+01 -0.91091519409E+01  0.18726428307E+02  0.00000000000E+00 0. -1.
         11    1    3    3    0    0  0.11685088499E+02  0.95411940045E+01  0.13970764678E+01  0.15150164989E+02  0.51100000000E-03 0. -1.
        -11    1    3    3    0    0 -0.67588434484E+01  0.16013335439E+02  0.14355762495E+02  0.22543220571E+02  0.51100000000E-03 0.  1.
        -12    1    3    3    0    0  0.97969249316E+01 -0.32691106614E+02 -0.66436870217E+01  0.34768186134E+02  0.00000000000E+00 0.  1.
</event>
<event>
 7    1  0.3196678E-013  0.7246163E+02  0.7816164E-02  0.1226708E+00
        -11   -1    0    0    0    0  0.00000000000E+00  0.00000000000E+00  0.45593999997E+02  0.45594000000E+02  0.51100000000E-03 0.  1.
         11   -1    0    0    0    0 -0.00000000000E+00 -0.00000000000E+00 -0.45593999997E+02  0.45594000000E+02  0.51100000000E-03 0. -1.
    9900012    2    1    2    0    0  0.14624775509E+02  0.11663136296E+02 -0.87403748489E+00  0.72461634937E+02  0.70000084209E+02 0.  0.
         12    1    1    2    0    0 -0.14624775509E+02 -0.11663136296E+02  0.87403748489E+00  0.18726365063E+02  0.00000000000E+00 0. -1.
         11    1    3    3    0    0 -0.53152161268E+01  0.10830379792E+02 -0.90350233897E+00  0.12098138934E+02  0.51100000000E-03 0. -1.
        -11    1    3    3    0    0 -0.16163559058E+02  0.14003546633E+02 -0.38769148171E+01  0.21734544589E+02  0.51100000000E-03 0.  1.
         12    1    3    3    0    0  0.36103550693E+02 -0.13170790129E+02  0.39063796712E+01  0.38628951415E+02  0.00000000000E+00 0. -1.
</event>
<event>
 7    1  0.3196678E-013  0.7246125E+02  0.7816164E-02  0.1226709E+00
        -11   -1    0    0    0    0  0.00000000000E+00  0.00000000000E+00  0.45593999997E+02  0.45594000000E+02  0.51100000000E-03 0. -1.
         11   -1    0    0    0    0 -0.00000000000E+00 -0.00000000000E+00 -0.45593999997E+02  0.45594000000E+02  0.51100000000E-03 0.  1.
    9900012    2    1    2    0    0 -0.56233346588E+01 -0.16983154249E+02 -0.55354883340E+01  0.72461253031E+02  0.69999586705E+02 0.  0.
         12    1    1    2    0    0  0.56233346588E+01  0.16983154249E+02  0.55354883340E+01  0.18726746969E+02  0.00000000000E+00 0. -1.
         11    1    3    3    0    0 -0.11727447867E+02 -0.39138158933E+01 -0.89726310522E+01  0.15276095593E+02  0.51100000000E-03 0.  1.
        -11    1    3    3    0    0 -0.13506275112E+02 -0.22736615955E+02  0.17016742275E+02  0.31447459204E+02  0.51100000000E-03 0. -1.
        -12    1    3    3    0    0  0.19610388320E+02  0.96672775997E+01 -0.13579599557E+02  0.25737698234E+02  0.00000000000E+00 0.  1.
</event>
<event>
 7    1  0.3196678E-013  0.7246157E+02  0.7816164E-02  0.1226708E+00
        -11   -1    0    0    0    0  0.00000000000E+00  0.00000000000E+00  0.45593999997E+02  0.45594000000E+02  0.51100000000E-03 0.  1.
         11   -1    0    0    0    0 -0.00000000000E+00 -0.00000000000E+00 -0.45593999997E+02  0.45594000000E+02  0.51100000000E-03 0. -1.
    9900012    2    1    2    0    0  0.15543164701E+02 -0.27105668780E+01  0.10086735053E+02  0.72461565055E+02  0.69999993174E+02 0.  0.
         12    1    1    2    0    0 -0.15543164701E+02  0.27105668780E+01 -0.10086735053E+02  0.18726434945E+02  0.00000000000E+00 0. -1.
         11    1    3    3    0    0 -0.72124163414E+01 -0.19967525315E+02  0.38282432534E+00  0.21233642443E+02  0.51100000000E-03 0. -1.
        -11    1    3    3    0    0 -0.28891968525E+01  0.17678832603E+02 -0.84487135568E+01  0.19805790610E+02  0.51100000000E-03 0.  1.
        -12    1    3    3    0    0  0.25644777895E+02 -0.42187416602E+00  0.18152624285E+02  0.31422132002E+02  0.00000000000E+00 0.  1.
</event>
<event>
 7    1  0.3196678E-013  0.7246156E+02  0.7816164E-02  0.1226708E+00
        -11   -1    0    0    0    0  0.00000000000E+00  0.00000000000E+00  0.45593999997E+02  0.45594000000E+02  0.51100000000E-03 0. -1.
         11   -1    0    0    0    0 -0.00000000000E+00 -0.00000000000E+00 -0.45593999997E+02  0.45594000000E+02  0.51100000000E-03 0.  1.
    9900012    2    1    2    0    0 -0.64594814782E+01 -0.16541540485E+02 -0.59440714359E+01  0.72461562864E+02  0.69999990320E+02 0.  0.
         12    1    1    2    0    0  0.64594814782E+01  0.16541540485E+02  0.59440714359E+01  0.18726437136E+02  0.00000000000E+00 0. -1.
         11    1    3    3    0    0 -0.84494401275E+01  0.33930891491E+01  0.77326315643E-01  0.91056066280E+01  0.51100000000E-03 0. -1.
        -11    1    3    3    0    0 -0.27490437197E+00 -0.24348532155E+02  0.23249876218E+02  0.33667244243E+02  0.51100000000E-03 0.  1.
         12    1    3    3    0    0  0.22648630213E+01  0.44139025211E+01 -0.29271273970E+02  0.29688711993E+02  0.00000000000E+00 0. -1.
</event>
<event>
 7    1  0.3196678E-013  0.7246141E+02  0.7816164E-02  0.1226708E+00
        -11   -1    0    0    0    0  0.00000000000E+00  0.00000000000E+00  0.45593999997E+02  0.45594000000E+02  0.51100000000E-03 0.  1.
         11   -1    0    0    0    0 -0.00000000000E+00 -0.00000000000E+00 -0.45593999997E+02  0.45594000000E+02  0.51100000000E-03 0. -1.
    9900012    2    1    2    0    0 -0.17658795094E+01  0.92950276046E+01  0.16160729192E+02  0.72461413642E+02  0.69999795931E+02 0.  0.
         12    1    1    2    0    0  0.17658795094E+01 -0.92950276046E+01 -0.16160729192E+02  0.18726586358E+02  0.00000000000E+00 0. -1.
         11    1    3    3    0    0 -0.10983009155E+01 -0.16392641375E+01 -0.83780393413E+01  0.86072640995E+01  0.51100000000E-03 0. -1.
        -11    1    3    3    0    0  0.26833694965E+02 -0.47661649738E+01  0.12362512441E+02  0.29926497091E+02  0.51100000000E-03 0.  1.
         12    1    3    3    0    0 -0.27501273559E+02  0.15700456716E+02  0.12176256092E+02  0.33927652452E+02  0.00000000000E+00 0. -1.
</event>
<event>
 7    1  0.3196678E-013  0.7246160E+02  0.7816164E-02  0.1226708E+00
        -11   -1    0    0    0    0  0.00000000000E+00  0.00000000000E+00  0.45593999997E+02  0.45594000000E+02  0.51100000000E-03 0.  1.
         11   -1    0    0    0    0 -0.00000000000E+00 -0.00000000000E+00 -0.45593999997E+02  0.45594000000E+02  0.51100000000E-03 0. -1.
    9900012    2    1    2    0    0  0.11002920982E+01 -0.18615726644E+02  0.17093962528E+01  0.72461602676E+02  0.70000042183E+02 0.  0.
         12    1    1    2    0    0 -0.11002920982E+01  0.18615726644E+02 -0.17093962528E+01  0.18726397324E+02  0.00000000000E+00 0. -1.
         11    1    3    3    0    0  0.27929109818E+02 -0.93722306373E+01  0.75295718892E+01  0.30406715302E+02  0.51100000000E-03 0. -1.
        -11    1    3    3    0    0 -0.15498094299E+02 -0.12990282131E+02  0.97395952152E+01  0.22445446575E+02  0.51100000000E-03 0.  1.
        -12    1    3    3    0    0 -0.11330723420E+02  0.37467861237E+01 -0.15559770852E+02  0.19609440799E+02  0.00000000000E+00 0.  1.
</event>
<event>
 7    1  0.3196678E-013  0.7246153E+02  0.7816164E-02  0.1226708E+00
        -11   -1    0    0    0    0  0.00000000000E+00  0.00000000000E+00  0.45593999997E+02  0.45594000000E+02  0.51100000000E-03 0.  1.
         11   -1    0    0    0    0 -0.00000000000E+00 -0.00000000000E+00 -0.45593999997E+02  0.45594000000E+02  0.51100000000E-03 0. -1.
    9900012    2    1    2    0    0  0.69233147204E+00  0.16595285923E+02  0.86485690892E+01  0.72461532500E+02  0.69999950766E+02 0.  0.
         12    1    1    2    0    0 -0.69233147204E+00 -0.16595285923E+02 -0.86485690892E+01  0.18726467500E+02  0.00000000000E+00 0. -1.
         11    1    3    3    0    0  0.61808563560E+01  0.24024544829E+02  0.83660538770E+01  0.26179621793E+02  0.51100000000E-03 0. -1.
        -11    1    3    3    0    0  0.51273269985E+01  0.67073433260E+01  0.18843835061E+02  0.20648681718E+02  0.51100000000E-03 0.  1.
         12    1    3    3    0    0 -0.10615851882E+02 -0.14136602231E+02 -0.18561319849E+02  0.25633228988E+02  0.00000000000E+00 0. -1.
</event>
<event>
 7    1  0.3196678E-013  0.7246156E+02  0.7816164E-02  0.1226708E+00
        -11   -1    0    0    0    0  0.00000000000E+00  0.00000000000E+00  0.45593999997E+02  0.45594000000E+02  0.51100000000E-03 0.  1.
         11   -1    0    0    0    0 -0.00000000000E+00 -0.00000000000E+00 -0.45593999997E+02  0.45594000000E+02  0.51100000000E-03 0. -1.
    9900012    2    1    2    0    0 -0.15399290155E+02  0.10507944530E+02  0.17676319787E+01  0.72461559913E+02  0.69999986476E+02 0.  0.
         12    1    1    2    0    0  0.15399290155E+02 -0.10507944530E+02 -0.17676319787E+01  0.18726440087E+02  0.00000000000E+00 0. -1.
         11    1    3    3    0    0  0.57371300866E+00 -0.68787053023E+01 -0.12258288932E+02  0.14068097990E+02  0.51100000000E-03 0. -1.
        -11    1    3    3    0    0 -0.31036325740E+02 -0.31005640758E+01  0.91072180663E+01  0.32493205970E+02  0.51100000000E-03 0.  1.
         12    1    3    3    0    0  0.15063322576E+02  0.20487213908E+02  0.49187028449E+01  0.25900255953E+02  0.00000000000E+00 0. -1.
</event>
<event>
 7    1  0.3196678E-013  0.7246155E+02  0.7816164E-02  0.1226708E+00
        -11   -1    0    0    0    0  0.00000000000E+00  0.00000000000E+00  0.45593999997E+02  0.45594000000E+02  0.51100000000E-03 0. -1.
         11   -1    0    0    0    0 -0.00000000000E+00 -0.00000000000E+00 -0.45593999997E+02  0.45594000000E+02  0.51100000000E-03 0.  1.
    9900012    2    1    2    0    0 -0.49691914852E+00  0.77797080091E+01 -0.17026717861E+02  0.72461550618E+02  0.69999974368E+02 0.  0.
         12    1    1    2    0    0  0.49691914852E+00 -0.77797080091E+01  0.17026717861E+02  0.18726449382E+02  0.00000000000E+00 0. -1.
         11    1    3    3    0    0  0.11838365682E+02  0.61045269204E+00 -0.48632171281E+01  0.12812901139E+02  0.51100000000E-03 0. -1.
        -11    1    3    3    0    0  0.17409032831E+02  0.38192764525E+00 -0.21570937447E+02  0.27722294917E+02  0.51100000000E-03 0.  1.
         12    1    3    3    0    0 -0.29744317662E+02  0.67873276718E+01  0.94074367141E+01  0.31926354562E+02  0.00000000000E+00 0. -1.
</event>
<event>
 7    1  0.3196678E-013  0.7246164E+02  0.7816164E-02  0.1226708E+00
        -11   -1    0    0    0    0  0.00000000000E+00  0.00000000000E+00  0.45593999997E+02  0.45594000000E+02  0.51100000000E-03 0.  1.
         11   -1    0    0    0    0 -0.00000000000E+00 -0.00000000000E+00 -0.45593999997E+02  0.45594000000E+02  0.51100000000E-03 0. -1.
    9900012    2    1    2    0    0  0.93393661853E+01 -0.60112107689E+01  0.15077077245E+02  0.72461636928E+02  0.70000086802E+02 0.  0.
         12    1    1    2    0    0 -0.93393661853E+01  0.60112107689E+01 -0.15077077245E+02  0.18726363072E+02  0.00000000000E+00 0. -1.
         11    1    3    3    0    0 -0.19021127392E+01 -0.75360303357E+01  0.27253281627E+01  0.82363341329E+01  0.51100000000E-03 0. -1.
        -11    1    3    3    0    0  0.19819690510E+02 -0.26837578175E+02  0.55147275300E+01  0.33815498728E+02  0.51100000000E-03 0.  1.
        -12    1    3    3    0    0 -0.85782115853E+01  0.28362397742E+02  0.68370215527E+01  0.30409804067E+02  0.00000000000E+00 0.  1.
</event>
<event>
 7    1  0.3196678E-013  0.7246200E+02  0.7816164E-02  0.1226707E+00
        -11   -1    0    0    0    0  0.00000000000E+00  0.00000000000E+00  0.45593999997E+02  0.45594000000E+02  0.51100000000E-03 0. -1.
         11   -1    0    0    0    0 -0.00000000000E+00 -0.00000000000E+00 -0.45593999997E+02  0.45594000000E+02  0.51100000000E-03 0.  1.
    9900012    2    1    2    0    0  0.16188282179E+02 -0.59301536642E+01 -0.73099886445E+01  0.72461998388E+02  0.70000557669E+02 0.  0.
         12    1    1    2    0    0 -0.16188282179E+02  0.59301536642E+01  0.73099886445E+01  0.18726001612E+02  0.00000000000E+00 0. -1.
         11    1    3    3    0    0  0.22623632819E+01  0.13447747712E+02 -0.10512582278E+02  0.17218437576E+02  0.51100000000E-03 0. -1.
        -11    1    3    3    0    0 -0.14233309504E+02  0.73114007813E+01  0.37791532117E+01  0.16441583868E+02  0.51100000000E-03 0.  1.
        -12    1    3    3    0    0  0.28159228402E+02 -0.26689302157E+02 -0.57655957842E+00  0.38801976944E+02  0.00000000000E+00 0.  1.
</event>
<event>
 7    1  0.3196678E-013  0.7246157E+02  0.7816164E-02  0.1226708E+00
        -11   -1    0    0    0    0  0.00000000000E+00  0.00000000000E+00  0.45593999997E+02  0.45594000000E+02  0.51100000000E-03 0. -1.
         11   -1    0    0    0    0 -0.00000000000E+00 -0.00000000000E+00 -0.45593999997E+02  0.45594000000E+02  0.51100000000E-03 0.  1.
    9900012    2    1    2    0    0  0.15247682433E+02 -0.47911297330E+01 -0.97587096026E+01  0.72461570634E+02  0.70000000442E+02 0.  0.
         12    1    1    2    0    0 -0.15247682433E+02  0.47911297330E+01  0.97587096026E+01  0.18726429366E+02  0.00000000000E+00 0. -1.
         11    1    3    3    0    0 -0.20798925319E+01 -0.53006965066E+01  0.12957150529E+02  0.14153129919E+02  0.51100000000E-03 0. -1.
        -11    1    3    3    0    0  0.94911374741E+01  0.56168513389E+01 -0.38451898073E+02  0.40002239627E+02  0.51100000000E-03 0.  1.
         12    1    3    3    0    0  0.78364374911E+01 -0.51072845652E+01  0.15736037941E+02  0.18306201088E+02  0.00000000000E+00 0. -1.
</event>
<event>
 7    1  0.3196678E-013  0.7246153E+02  0.7816164E-02  0.1226708E+00
        -11   -1    0    0    0    0  0.00000000000E+00  0.00000000000E+00  0.45593999997E+02  0.45594000000E+02  0.51100000000E-03 0. -1.
         11   -1    0    0    0    0 -0.00000000000E+00 -0.00000000000E+00 -0.45593999997E+02  0.45594000000E+02  0.51100000000E-03 0.  1.
    9900012    2    1    2    0    0  0.19423024342E+01  0.13775805118E+02 -0.12535365092E+02  0.72461528805E+02  0.69999945953E+02 0.  0.
         12    1    1    2    0    0 -0.19423024342E+01 -0.13775805118E+02  0.12535365092E+02  0.18726471195E+02  0.00000000000E+00 0. -1.
         11    1    3    3    0    0 -0.58707201129E+01  0.20222927603E+02  0.16690648301E+02  0.26870241838E+02  0.51100000000E-03 0. -1.
        -11    1    3    3    0    0 -0.50982470471E+00  0.21563309494E+01  0.70506844300E+01  0.73906586706E+01  0.51100000000E-03 0.  1.
        -12    1    3    3    0    0  0.83228472518E+01 -0.86034534338E+01 -0.36276697823E+02  0.38200628297E+02  0.00000000000E+00 0.  1.
</event>
<event>
 7    1  0.3196678E-013  0.7246170E+02  0.7816164E-02  0.1226708E+00
        -11   -1    0    0    0    0  0.00000000000E+00  0.00000000000E+00  0.45593999997E+02  0.45594000000E+02  0.51100000000E-03 0. -1.
         11   -1    0    0    0    0 -0.00000000000E+00 -0.00000000000E+00 -0.45593999997E+02  0.45594000000E+02  0.51100000000E-03 0.  1.
    9900012    2    1    2    0    0  0.12677620180E+02 -0.12400358055E+02 -0.60152534287E+01  0.72461702792E+02  0.70000172602E+02 0.  0.
         12    1    1    2    0    0 -0.12677620180E+02  0.12400358055E+02  0.60152534287E+01  0.18726297208E+02  0.00000000000E+00 0. -1.
         11    1    3    3    0    0 -0.18735561337E+02  0.72519512510E+01  0.31186044000E+01  0.20330709511E+02  0.51100000000E-03 0. -1.
        -11    1    3    3    0    0  0.24139586161E+02 -0.14086731588E+02  0.10981210243E+02  0.30029029380E+02  0.51100000000E-03 0.  1.
        -12    1    3    3    0    0  0.72735953562E+01 -0.55655777182E+01 -0.20115068072E+02  0.22101963901E+02  0.00000000000E+00 0.  1.
</event>
<event>
 7    1  0.3196678E-013  0.7246145E+02  0.7816164E-02  0.1226708E+00
        -11   -1    0    0    0    0  0.00000000000E+00  0.00000000000E+00  0.45593999997E+02  0.45594000000E+02  0.51100000000E-03 0.  1.
         11   -1    0    0    0    0 -0.00000000000E+00 -0.00000000000E+00 -0.45593999997E+02  0.45594000000E+02  0.51100000000E-03 0. -1.
    9900012    2    1    2    0    0  0.83983893002E+00 -0.14690641546E+01  0.18649942183E+02  0.72461446063E+02  0.69999838166E+02 0.  0.
         12    1    1    2    0    0 -0.83983893002E+00  0.14690641546E+01 -0.18649942183E+02  0.18726553937E+02  0.00000000000E+00 0. -1.
         11    1    3    3    0    0  0.16270278803E+01  0.21350699223E+02  0.76439898692E+01  0.22736098135E+02  0.51100000000E-03 0. -1.
        -11    1    3    3    0    0 -0.17443009261E+02  0.30611184296E+01  0.36671014330E+01  0.18085260609E+02  0.51100000000E-03 0.  1.
        -12    1    3    3    0    0  0.16655820311E+02 -0.25880881807E+02  0.73388508808E+01  0.31640087319E+02  0.00000000000E+00 0.  1.
</event>
<event>
 7    1  0.3245795E-013  0.7246161E+02  0.7816164E-02  0.1226708E+00
        -11   -1    0    0    0    0  0.00000000000E+00  0.00000000000E+00  0.45593999997E+02  0.45594000000E+02  0.51100000000E-03 0.  1.
         11   -1    0    0    0    0 -0.00000000000E+00 -0.00000000000E+00 -0.45593999997E+02  0.45594000000E+02  0.51100000000E-03 0. -1.
    9900012    2    1    2    0    0  0.17338447459E+02 -0.64447919125E+01  0.29190220292E+01  0.72461607056E+02  0.70000047890E+02 0.  0.
         12    1    1    2    0    0 -0.17338447459E+02  0.64447919125E+01 -0.29190220292E+01  0.18726392944E+02  0.00000000000E+00 0. -1.
         11    1    3    3    0    0 -0.37239694179E+01  0.14666143274E+01  0.72594641308E+01  0.82896758404E+01  0.51100000000E-03 0. -1.
        -11    1    3    3    0    0 -0.17481457815E+02  0.59783143358E+01 -0.12619096348E+02  0.22373716780E+02  0.51100000000E-03 0.  1.
         12    1    3    3    0    0  0.38543874692E+02 -0.13889720576E+02  0.82786542469E+01  0.41798214436E+02  0.00000000000E+00 0. -1.
</event>
<event>
 7    1  0.3196678E-013  0.7246179E+02  0.7816164E-02  0.1226707E+00
        -11   -1    0    0    0    0  0.00000000000E+00  0.00000000000E+00  0.45593999997E+02  0.45594000000E+02  0.51100000000E-03 0.  1.
         11   -1    0    0    0    0 -0.00000000000E+00 -0.00000000000E+00 -0.45593999997E+02  0.45594000000E+02  0.51100000000E-03 0. -1.
    9900012    2    1    2    0    0  0.60646139269E+01  0.47345291903E+01  0.17072659036E+02  0.72461788549E+02  0.70000284316E+02 0.  0.
         12    1    1    2    0    0 -0.60646139269E+01 -0.47345291903E+01 -0.17072659036E+02  0.18726211451E+02  0.00000000000E+00 0. -1.
         11    1    3    3    0    0  0.10686708478E+02  0.83139394032E+01  0.25891026612E+02  0.29217675913E+02  0.51100000000E-03 0. -1.
        -11    1    3    3    0    0  0.16060896263E+02  0.67354251634E+01 -0.10034091751E+02  0.20099784537E+02  0.51100000000E-03 0.  1.
         12    1    3    3    0    0 -0.20682990814E+02 -0.10314835376E+02  0.12157241757E+01  0.23144328099E+02  0.00000000000E+00 0. -1.
</event>
<event>
 7    1  0.3196678E-013  0.7246206E+02  0.7816164E-02  0.1226707E+00
        -11   -1    0    0    0    0  0.00000000000E+00  0.00000000000E+00  0.45593999997E+02  0.45594000000E+02  0.51100000000E-03 0.  1.
         11   -1    0    0    0    0 -0.00000000000E+00 -0.00000000000E+00 -0.45593999997E+02  0.45594000000E+02  0.51100000000E-03 0. -1.
    9900012    2    1    2    0    0 -0.17729640088E+02 -0.40058259751E+01  0.45026909954E+01  0.72462055282E+02  0.70000631783E+02 0.  0.
         12    1    1    2    0    0  0.17729640088E+02  0.40058259751E+01 -0.45026909954E+01  0.18725944718E+02  0.00000000000E+00 0. -1.
         11    1    3    3    0    0 -0.41993835576E+01  0.18804930748E+01  0.45923579260E+01  0.65008328735E+01  0.51100000000E-03 0. -1.
        -11    1    3    3    0    0 -0.14262295571E+02  0.24225606734E+02  0.15439485122E+02  0.32072898180E+02  0.51100000000E-03 0.  1.
         12    1    3    3    0    0  0.73203904067E+00 -0.30111925783E+02 -0.15529152052E+02  0.33888324228E+02  0.00000000000E+00 0. -1.
</event>
<event>
 7    1  0.3196678E-013  0.7246153E+02  0.7816164E-02  0.1226708E+00
        -11   -1    0    0    0    0  0.00000000000E+00  0.00000000000E+00  0.45593999997E+02  0.45594000000E+02  0.51100000000E-03 0.  1.
         11   -1    0    0    0    0 -0.00000000000E+00 -0.00000000000E+00 -0.45593999997E+02  0.45594000000E+02  0.51100000000E-03 0. -1.
    9900012    2    1    2    0    0 -0.78970695314E+01  0.16907142560E+02 -0.15701720924E+01  0.72461531643E+02  0.69999949649E+02 0.  0.
         12    1    1    2    0    0  0.78970695314E+01 -0.16907142560E+02  0.15701720924E+01  0.18726468357E+02  0.00000000000E+00 0. -1.
         11    1    3    3    0    0  0.44678121531E+01  0.82714978862E+01  0.14833727290E+02  0.17561847519E+02  0.51100000000E-03 0. -1.
        -11    1    3    3    0    0  0.95595011702E+01  0.83727263131E+01  0.13027390027E+02  0.18198887321E+02  0.51100000000E-03 0.  1.
         12    1    3    3    0    0 -0.21924382855E+02  0.26291836087E+00 -0.29431289410E+02  0.36700796803E+02  0.00000000000E+00 0. -1.
</event>
<event>
 7    1  0.3196678E-013  0.7246152E+02  0.7816164E-02  0.1226708E+00
        -11   -1    0    0    0    0  0.00000000000E+00  0.00000000000E+00  0.45593999997E+02  0.45594000000E+02  0.51100000000E-03 0. -1.
         11   -1    0    0    0    0 -0.00000000000E+00 -0.00000000000E+00 -0.45593999997E+02  0.45594000000E+02  0.51100000000E-03 0.  1.
    9900012    2    1    2    0    0  0.89084692339E+01  0.32096993850E+01 -0.16156047741E+02  0.72461524816E+02  0.69999940756E+02 0.  0.
         12    1    1    2    0    0 -0.89084692339E+01 -0.32096993850E+01  0.16156047741E+02  0.18726475184E+02  0.00000000000E+00 0. -1.
         11    1    3    3    0    0  0.12450586575E+02 -0.27432549199E+01  0.17291886941E+01  0.12865949145E+02  0.51100000000E-03 0. -1.
        -11    1    3    3    0    0  0.16427352354E+02  0.38169965236E+01 -0.31223026080E+02  0.35486683780E+02  0.51100000000E-03 0.  1.
         12    1    3    3    0    0 -0.19969469695E+02  0.21359577814E+01  0.13337789646E+02  0.24108891890E+02  0.00000000000E+00 0. -1.
</event>
<event>
 7    1  0.3196678E-013  0.7246158E+02  0.7816164E-02  0.1226708E+00
        -11   -1    0    0    0    0  0.00000000000E+00  0.00000000000E+00  0.45593999997E+02  0.45594000000E+02  0.51100000000E-03 0.  1.
         11   -1    0    0    0    0 -0.00000000000E+00 -0.00000000000E+00 -0.45593999997E+02  0.45594000000E+02  0.51100000000E-03 0. -1.
    9900012    2    1    2    0    0 -0.90454181952E+01 -0.13961975210E+02  0.85978279303E+01  0.72461575162E+02  0.70000006342E+02 0.  0.
         12    1    1    2    0    0  0.90454181952E+01  0.13961975210E+02 -0.85978279303E+01  0.18726424838E+02  0.00000000000E+00 0. -1.
         11    1    3    3    0    0  0.20588507462E+01 -0.40817143146E+01 -0.11288417987E+02  0.12178983499E+02  0.51100000000E-03 0. -1.
        -11    1    3    3    0    0  0.45690187715E+00  0.12563439240E+02 -0.13485773017E+02  0.18436779517E+02  0.51100000000E-03 0.  1.
        -12    1    3    3    0    0 -0.11561170819E+02 -0.22443700135E+02  0.33372018934E+02  0.41845812146E+02  0.00000000000E+00 0.  1.
</event>
<event>
 7    1  0.3196678E-013  0.7246157E+02  0.7816164E-02  0.1226708E+00
        -11   -1    0    0    0    0  0.00000000000E+00  0.00000000000E+00  0.45593999997E+02  0.45594000000E+02  0.51100000000E-03 0.  1.
         11   -1    0    0    0    0 -0.00000000000E+00 -0.00000000000E+00 -0.45593999997E+02  0.45594000000E+02  0.51100000000E-03 0. -1.
    9900012    2    1    2    0    0  0.14296260545E+01  0.17908849839E+02  0.52828487919E+01  0.72461568825E+02  0.69999998085E+02 0.  0.
         12    1    1    2    0    0 -0.14296260545E+01 -0.17908849839E+02 -0.52828487919E+01  0.18726431175E+02  0.00000000000E+00 0. -1.
         11    1    3    3    0    0  0.21099390481E+02 -0.58771079209E+01 -0.17311248238E+02  0.27917807793E+02  0.51100000000E-03 0. -1.
        -11    1    3    3    0    0  0.22177924778E+01 -0.29411265363E+01  0.34565042122E+01  0.50513612430E+01  0.51100000000E-03 0.  1.
        -12    1    3    3    0    0 -0.21887556904E+02  0.26727084296E+02  0.19137592817E+02  0.39492399788E+02  0.00000000000E+00 0.  1.
</event>
<event>
 7    1  0.3196678E-013  0.7246147E+02  0.7816164E-02  0.1226708E+00
        -11   -1    0    0    0    0  0.00000000000E+00  0.00000000000E+00  0.45593999997E+02  0.45594000000E+02  0.51100000000E-03 0.  1.
         11   -1    0    0    0    0 -0.00000000000E+00 -0.00000000000E+00 -0.45593999997E+02  0.45594000000E+02  0.51100000000E-03 0. -1.
    9900012    2    1    2    0    0 -0.16634953347E+02  0.54796442185E+01  0.66283312936E+01  0.72461469372E+02  0.69999868529E+02 0.  0.
         12    1    1    2    0    0  0.16634953347E+02 -0.54796442185E+01 -0.66283312936E+01  0.18726530628E+02  0.00000000000E+00 0. -1.
         11    1    3    3    0    0 -0.21625323178E+02  0.26002452606E+02 -0.62339456109E+01  0.34389594679E+02  0.51100000000E-03 0. -1.
        -11    1    3    3    0    0 -0.25390827445E+01  0.60427315162E+01  0.74706869716E+01  0.99384460279E+01  0.51100000000E-03 0.  1.
        -12    1    3    3    0    0  0.75294525749E+01 -0.26565539903E+02  0.53915899329E+01  0.28133428665E+02  0.00000000000E+00 0.  1.
</event>
<event>
 7    1  0.3196678E-013  0.7246161E+02  0.7816164E-02  0.1226708E+00
        -11   -1    0    0    0    0  0.00000000000E+00  0.00000000000E+00  0.45593999997E+02  0.45594000000E+02  0.51100000000E-03 0. -1.
         11   -1    0    0    0    0 -0.00000000000E+00 -0.00000000000E+00 -0.45593999997E+02  0.45594000000E+02  0.51100000000E-03 0.  1.
    9900012    2    1    2    0    0 -0.52999422981E+01 -0.86244705714E+01 -0.15754583397E+02  0.72461607421E+02  0.70000048365E+02 0.  0.
         12    1    1    2    0    0  0.52999422981E+01  0.86244705714E+01  0.15754583397E+02  0.18726392579E+02  0.00000000000E+00 0. -1.
         11    1    3    3    0    0 -0.13506108002E+02  0.90277428920E+01  0.13810953951E+02  0.21322700213E+02  0.51100000000E-03 0. -1.
        -11    1    3    3    0    0  0.98770245426E+01  0.99191285740E+01 -0.11691113110E+02  0.18238060519E+02  0.51100000000E-03 0.  1.
        -12    1    3    3    0    0 -0.16708588387E+01 -0.27571342037E+02 -0.17874424238E+02  0.32900846689E+02  0.00000000000E+00 0.  1.
</event>
<event>
 7    1  0.3196678E-013  0.7246156E+02  0.7816164E-02  0.1226708E+00
        -11   -1    0    0    0    0  0.00000000000E+00  0.00000000000E+00  0.45593999997E+02  0.45594000000E+02  0.51100000000E-03 0.  1.
         11   -1    0    0    0    0 -0.00000000000E+00 -0.00000000000E+00 -0.45593999997E+02  0.45594000000E+02  0.51100000000E-03 0. -1.
    9900012    2    1    2    0    0  0.88247681963E-01 -0.88759766487E+01  0.16489053514E+02  0.72461557868E+02  0.69999983813E+02 0.  0.
         12    1    1    2    0    0 -0.88247681963E-01  0.88759766487E+01 -0.16489053514E+02  0.18726442132E+02  0.00000000000E+00 0. -1.
         11    1    3    3    0    0  0.24404877928E+01  0.12450230340E+02  0.20493625526E+02  0.24102964624E+02  0.51100000000E-03 0. -1.
        -11    1    3    3    0    0  0.79359164128E+00 -0.12119381132E+02 -0.23565733816E+02  0.26511374865E+02  0.51100000000E-03 0.  1.
         12    1    3    3    0    0 -0.31458317521E+01 -0.92068258571E+01  0.19561161804E+02  0.21847218379E+02  0.00000000000E+00 0. -1.
</event>
<event>
 7    1  0.3196678E-013  0.7246150E+02  0.7816164E-02  0.1226708E+00
        -11   -1    0    0    0    0  0.00000000000E+00  0.00000000000E+00  0.45593999997E+02  0.45594000000E+02  0.51100000000E-03 0.  1.
         11   -1    0    0    0    0 -0.00000000000E+00 -0.00000000000E+00 -0.45593999997E+02  0.45594000000E+02  0.51100000000E-03 0. -1.
    9900012    2    1    2    0    0  0.95773635784E+01 -0.12418460264E+02  0.10234145302E+02  0.72461500634E+02  0.69999909254E+02 0.  0.
         12    1    1    2    0    0 -0.95773635784E+01  0.12418460264E+02 -0.10234145302E+02  0.18726499366E+02  0.00000000000E+00 0. -1.
         11    1    3    3    0    0  0.24409553038E+02 -0.51300697884E+01  0.13981824427E+02  0.28594323040E+02  0.51100000000E-03 0. -1.
        -11    1    3    3    0    0  0.89446955220E+01  0.96963214269E+01 -0.61368156360E+01  0.14549458189E+02  0.51100000000E-03 0.  1.
        -12    1    3    3    0    0 -0.23776884981E+02 -0.16984711903E+02  0.23891365108E+01  0.29317719405E+02  0.00000000000E+00 0.  1.
</event>
<event>
 7    1  0.3196678E-013  0.7246151E+02  0.7816164E-02  0.1226708E+00
        -11   -1    0    0    0    0  0.00000000000E+00  0.00000000000E+00  0.45593999997E+02  0.45594000000E+02  0.51100000000E-03 0.  1.
         11   -1    0    0    0    0 -0.00000000000E+00 -0.00000000000E+00 -0.45593999997E+02  0.45594000000E+02  0.51100000000E-03 0. -1.
    9900012    2    1    2    0    0  0.39591291801E+01  0.10336054838E+02  0.15105383410E+02  0.72461512303E+02  0.69999924456E+02 0.  0.
         12    1    1    2    0    0 -0.39591291801E+01 -0.10336054838E+02 -0.15105383410E+02  0.18726487697E+02  0.00000000000E+00 0. -1.
         11    1    3    3    0    0 -0.12883974054E+01 -0.55186251031E+01 -0.41197444222E+01  0.70062461610E+01  0.51100000000E-03 0. -1.
        -11    1    3    3    0    0  0.30189101894E+02 -0.25224077310E+01  0.16128786686E+02  0.34320288084E+02  0.51100000000E-03 0.  1.
         12    1    3    3    0    0 -0.24941575309E+02  0.18377087672E+02  0.30963411464E+01  0.31134978058E+02  0.00000000000E+00 0. -1.
</event>
<event>
 7    1  0.3196678E-013  0.7246158E+02  0.7816164E-02  0.1226708E+00
        -11   -1    0    0    0    0  0.00000000000E+00  0.00000000000E+00  0.45593999997E+02  0.45594000000E+02  0.51100000000E-03 0. -1.
         11   -1    0    0    0    0 -0.00000000000E+00 -0.00000000000E+00 -0.45593999997E+02  0.45594000000E+02  0.51100000000E-03 0.  1.
    9900012    2    1    2    0    0  0.76643901410E+00 -0.18360071770E+02  0.36054314577E+01  0.72461580157E+02  0.70000012848E+02 0.  0.
         12    1    1    2    0    0 -0.76643901410E+00  0.18360071770E+02 -0.36054314577E+01  0.18726419843E+02  0.00000000000E+00 0. -1.
         11    1    3    3    0    0  0.16130682123E+02  0.39073689359E+01 -0.16069171719E+02  0.23101617211E+02  0.51100000000E-03 0. -1.
        -11    1    3    3    0    0 -0.13927880135E+01  0.24594501361E+01 -0.87397316737E+01  0.91854049128E+01  0.51100000000E-03 0.  1.
         12    1    3    3    0    0 -0.13971455095E+02 -0.24726890842E+02  0.28414334850E+02  0.40174558033E+02  0.00000000000E+00 0. -1.
</event>
<event>
 7    1  0.3196678E-013  0.7246131E+02  0.7816164E-02  0.1226709E+00
        -11   -1    0    0    0    0  0.00000000000E+00  0.00000000000E+00  0.45593999997E+02  0.45594000000E+02  0.51100000000E-03 0.  1.
         11   -1    0    0    0    0 -0.00000000000E+00 -0.00000000000E+00 -0.45593999997E+02  0.45594000000E+02  0.51100000000E-03 0. -1.
    9900012    2    1    2    0    0 -0.12425381215E+02  0.11697477269E+02  0.77115393939E+01  0.72461310154E+02  0.69999661118E+02 0.  0.
         12    1    1    2    0    0  0.12425381215E+02 -0.11697477269E+02 -0.77115393939E+01  0.18726689846E+02  0.00000000000E+00 0. -1.
         11    1    3    3    0    0 -0.12680992876E+02  0.61984438084E+01  0.62747065658E+01  0.15446689895E+02  0.51100000000E-03 0. -1.
        -11    1    3    3    0    0  0.36828983221E+01 -0.23969996431E+02  0.98527851587E+01  0.26176360415E+02  0.51100000000E-03 0.  1.
         12    1    3    3    0    0 -0.34272866613E+01  0.29469029891E+02 -0.84159523305E+01  0.30838259844E+02  0.00000000000E+00 0. -1.
</event>
<event>
 7    1  0.3196678E-013  0.7246158E+02  0.7816164E-02  0.1226708E+00
        -11   -1    0    0    0    0  0.00000000000E+00  0.00000000000E+00  0.45593999997E+02  0.45594000000E+02  0.51100000000E-03 0.  1.
         11   -1    0    0    0    0 -0.00000000000E+00 -0.00000000000E+00 -0.45593999997E+02  0.45594000000E+02  0.51100000000E-03 0. -1.
    9900012    2    1    2    0    0  0.18334853057E+02  0.33121999465E+01 -0.18818482945E+01  0.72461578609E+02  0.70000010832E+02 0.  0.
         12    1    1    2    0    0 -0.18334853057E+02 -0.33121999465E+01  0.18818482945E+01  0.18726421391E+02  0.00000000000E+00 0. -1.
         11    1    3    3    0    0 -0.10700667006E+02 -0.13495599983E+02 -0.23301539887E+02  0.28975804641E+02  0.51100000000E-03 0. -1.
        -11    1    3    3    0    0  0.22273679830E+01 -0.62977346231E+00  0.88102973812E+01  0.91092877302E+01  0.51100000000E-03 0.  1.
        -12    1    3    3    0    0  0.26808152080E+02  0.17437573391E+02  0.12609394211E+02  0.34376486238E+02  0.00000000000E+00 0.  1.
</event>
<event>
 7    1  0.3196678E-013  0.7246178E+02  0.7816164E-02  0.1226707E+00
        -11   -1    0    0    0    0  0.00000000000E+00  0.00000000000E+00  0.45593999997E+02  0.45594000000E+02  0.51100000000E-03 0.  1.
         11   -1    0    0    0    0 -0.00000000000E+00 -0.00000000000E+00 -0.45593999997E+02  0.45594000000E+02  0.51100000000E-03 0. -1.
    9900012    2    1    2    0    0  0.18514201551E+02  0.27316295414E+01 -0.65857244150E+00  0.72461783706E+02  0.70000278007E+02 0.  0.
         12    1    1    2    0    0 -0.18514201551E+02 -0.27316295414E+01  0.65857244150E+00  0.18726216294E+02  0.00000000000E+00 0. -1.
         11    1    3    3    0    0 -0.10379518178E+02  0.10852253347E+02 -0.12859095211E+02  0.19770233439E+02  0.51100000000E-03 0. -1.
        -11    1    3    3    0    0  0.15451195699E+02 -0.24141142980E+02  0.37153403845E+00  0.28664826368E+02  0.51100000000E-03 0.  1.
         12    1    3    3    0    0  0.13442524030E+02  0.16020519175E+02  0.11828988731E+02  0.24026723899E+02  0.00000000000E+00 0. -1.
</event>
<event>
 7    1  0.3196678E-013  0.7246157E+02  0.7816164E-02  0.1226708E+00
        -11   -1    0    0    0    0  0.00000000000E+00  0.00000000000E+00  0.45593999997E+02  0.45594000000E+02  0.51100000000E-03 0. -1.
         11   -1    0    0    0    0 -0.00000000000E+00 -0.00000000000E+00 -0.45593999997E+02  0.45594000000E+02  0.51100000000E-03 0.  1.
    9900012    2    1    2    0    0  0.17810255269E+02 -0.49170853770E+01 -0.30489682689E+01  0.72461571380E+02  0.70000001414E+02 0.  0.
         12    1    1    2    0    0 -0.17810255269E+02  0.49170853770E+01  0.30489682689E+01  0.18726428620E+02  0.00000000000E+00 0. -1.
         11    1    3    3    0    0  0.19912541680E+02 -0.80867552289E+01  0.18225814939E+02  0.28179518391E+02  0.51100000000E-03 0. -1.
        -11    1    3    3    0    0 -0.18402437196E+02 -0.64038894388E+01 -0.74413282790E+01  0.20857441394E+02  0.51100000000E-03 0.  1.
        -12    1    3    3    0    0  0.16300150785E+02  0.95735592907E+01 -0.13833454929E+02  0.23424611595E+02  0.00000000000E+00 0.  1.
</event>
<event>
 7    1  0.3196678E-013  0.7246173E+02  0.7816164E-02  0.1226708E+00
        -11   -1    0    0    0    0  0.00000000000E+00  0.00000000000E+00  0.45593999997E+02  0.45594000000E+02  0.51100000000E-03 0.  1.
         11   -1    0    0    0    0 -0.00000000000E+00 -0.00000000000E+00 -0.45593999997E+02  0.45594000000E+02  0.51100000000E-03 0. -1.
    9900012    2    1    2    0    0 -0.11335462519E+02 -0.87075874811E+00  0.14880262976E+02  0.72461730816E+02  0.70000209109E+02 0.  0.
         12    1    1    2    0    0  0.11335462519E+02  0.87075874811E+00 -0.14880262976E+02  0.18726269184E+02  0.00000000000E+00 0. -1.
         11    1    3    3    0    0  0.20637448308E+01 -0.16335616295E+02  0.20954358323E+02  0.26649512855E+02  0.51100000000E-03 0. -1.
        -11    1    3    3    0    0 -0.81058853685E+01  0.85414969171E+01  0.17265377846E+02  0.20898703778E+02  0.51100000000E-03 0.  1.
         12    1    3    3    0    0 -0.52933219812E+01  0.69233606295E+01 -0.23339473193E+02  0.24913514182E+02  0.00000000000E+00 0. -1.
</event>
<event>
 7    1  0.3196678E-013  0.7246170E+02  0.7816164E-02  0.1226708E+00
        -11   -1    0    0    0    0  0.00000000000E+00  0.00000000000E+00  0.45593999997E+02  0.45594000000E+02  0.51100000000E-03 0.  1.
         11   -1    0    0    0    0 -0.00000000000E+00 -0.00000000000E+00 -0.45593999997E+02  0.45594000000E+02  0.51100000000E-03 0. -1.
    9900012    2    1    2    0    0 -0.11073175338E+02 -0.13563170540E+02  0.66407354200E+01  0.72461703674E+02  0.70000173752E+02 0.  0.
         12    1    1    2    0    0  0.11073175338E+02  0.13563170540E+02 -0.66407354200E+01  0.18726296326E+02  0.00000000000E+00 0. -1.
         11    1    3    3    0    0  0.40607670113E+01 -0.28168952191E+01 -0.71726281100E+01  0.87104145516E+01  0.51100000000E-03 0. -1.
        -11    1    3    3    0    0  0.22555718006E+02 -0.90993973603E+01  0.78488628708E+01  0.25557075257E+02  0.51100000000E-03 0.  1.
        -12    1    3    3    0    0 -0.37689660355E+02 -0.16468779607E+01  0.59645006592E+01  0.38194213865E+02  0.00000000000E+00 0.  1.
</event>
<event>
 7    1  0.3196678E-013  0.7246117E+02  0.7816164E-02  0.1226709E+00
        -11   -1    0    0    0    0  0.00000000000E+00  0.00000000000E+00  0.45593999997E+02  0.45594000000E+02  0.51100000000E-03 0.  1.
         11   -1    0    0    0    0 -0.00000000000E+00 -0.00000000000E+00 -0.45593999997E+02  0.45594000000E+02  0.51100000000E-03 0. -1.
    9900012    2    1    2    0    0  0.13394683363E+02  0.42872128115E+01  0.12365126015E+02  0.72461172253E+02  0.69999481475E+02 0.  0.
         12    1    1    2    0    0 -0.13394683363E+02 -0.42872128115E+01 -0.12365126015E+02  0.18726827747E+02  0.00000000000E+00 0. -1.
         11    1    3    3    0    0 -0.94840517383E+01 -0.12249887858E+02  0.30647348005E+01  0.15792390243E+02  0.51100000000E-03 0.  1.
        -11    1    3    3    0    0  0.20605086000E+02  0.26208707110E+02 -0.10131649673E+02  0.34844170571E+02  0.51100000000E-03 0. -1.
         12    1    3    3    0    0  0.22736491019E+01 -0.96716064402E+01  0.19432040888E+02  0.21824611439E+02  0.00000000000E+00 0. -1.
</event>
<event>
 7    1  0.3196678E-013  0.7246161E+02  0.7816164E-02  0.1226708E+00
        -11   -1    0    0    0    0  0.00000000000E+00  0.00000000000E+00  0.45593999997E+02  0.45594000000E+02  0.51100000000E-03 0.  1.
         11   -1    0    0    0    0 -0.00000000000E+00 -0.00000000000E+00 -0.45593999997E+02  0.45594000000E+02  0.51100000000E-03 0. -1.
    9900012    2    1    2    0    0 -0.92621704040E+01 -0.63573128929E+01  0.14982474635E+02  0.72461607555E+02  0.70000048539E+02 0.  0.
         12    1    1    2    0    0  0.92621704040E+01  0.63573128929E+01 -0.14982474635E+02  0.18726392445E+02  0.00000000000E+00 0. -1.
         11    1    3    3    0    0 -0.14454639659E+02 -0.21060760473E+01  0.70116718774E+01  0.16202953643E+02  0.51100000000E-03 0. -1.
        -11    1    3    3    0    0 -0.72273540429E+00  0.14143791342E+00  0.31548230695E+02  0.31556825116E+02  0.51100000000E-03 0.  1.
         12    1    3    3    0    0  0.59152046592E+01 -0.43926747590E+01 -0.23577427937E+02  0.24701828795E+02  0.00000000000E+00 0. -1.
</event>
<event>
 7    1  0.3196678E-013  0.7246155E+02  0.7816164E-02  0.1226708E+00
        -11   -1    0    0    0    0  0.00000000000E+00  0.00000000000E+00  0.45593999997E+02  0.45594000000E+02  0.51100000000E-03 0. -1.
         11   -1    0    0    0    0 -0.00000000000E+00 -0.00000000000E+00 -0.45593999997E+02  0.45594000000E+02  0.51100000000E-03 0.  1.
    9900012    2    1    2    0    0  0.16657445740E+02 -0.74692003002E+01 -0.41738066381E+01  0.72461545088E+02  0.69999967164E+02 0.  0.
         12    1    1    2    0    0 -0.16657445740E+02  0.74692003002E+01  0.41738066381E+01  0.18726454912E+02  0.00000000000E+00 0. -1.
         11    1    3    3    0    0  0.88014923708E+01  0.16463514886E+02 -0.16732014166E+02  0.25069381497E+02  0.51100000000E-03 0. -1.
        -11    1    3    3    0    0 -0.19708670248E+01 -0.43555471676E+01 -0.12929361621E+02  0.13784901165E+02  0.51100000000E-03 0.  1.
         12    1    3    3    0    0  0.98268203941E+01 -0.19577168018E+02  0.25487569148E+02  0.33607262426E+02  0.00000000000E+00 0. -1.
</event>
<event>
 7    1  0.3196678E-013  0.7246156E+02  0.7816164E-02  0.1226708E+00
        -11   -1    0    0    0    0  0.00000000000E+00  0.00000000000E+00  0.45593999997E+02  0.45594000000E+02  0.51100000000E-03 0.  1.
         11   -1    0    0    0    0 -0.00000000000E+00 -0.00000000000E+00 -0.45593999997E+02  0.45594000000E+02  0.51100000000E-03 0. -1.
    9900012    2    1    2    0    0 -0.86883171240E+00  0.16395249276E+02  0.90066854128E+01  0.72461562819E+02  0.69999990262E+02 0.  0.
         12    1    1    2    0    0  0.86883171240E+00 -0.16395249276E+02 -0.90066854128E+01  0.18726437181E+02  0.00000000000E+00 0. -1.
         11    1    3    3    0    0  0.24838679163E+02  0.67551342399E+01  0.14652107138E+02  0.29618846449E+02  0.51100000000E-03 0. -1.
        -11    1    3    3    0    0 -0.39408709736E+01  0.13468982897E+01  0.12589853766E+02  0.13260807560E+02  0.51100000000E-03 0.  1.
        -12    1    3    3    0    0 -0.21766639902E+02  0.82932167465E+01 -0.18235275491E+02  0.29581908810E+02  0.00000000000E+00 0.  1.
</event>
<event>
 7    1  0.3196678E-013  0.7246158E+02  0.7816164E-02  0.1226708E+00
        -11   -1    0    0    0    0  0.00000000000E+00  0.00000000000E+00  0.45593999997E+02  0.45594000000E+02  0.51100000000E-03 0. -1.
         11   -1    0    0    0    0 -0.00000000000E+00 -0.00000000000E+00 -0.45593999997E+02  0.45594000000E+02  0.51100000000E-03 0.  1.
    9900012    2    1    2    0    0  0.14886605119E+01 -0.67403779060E+01 -0.17407756041E+02  0.72461580833E+02  0.70000013728E+02 0.  0.
         12    1    1    2    0    0 -0.14886605119E+01  0.67403779060E+01  0.17407756041E+02  0.18726419167E+02  0.00000000000E+00 0. -1.
         11    1    3    3    0    0 -0.77789304104E+01  0.50548658724E+00  0.33099529372E+01  0.84689470259E+01  0.51100000000E-03 0. -1.
        -11    1    3    3    0    0 -0.16636580854E+02  0.14962532856E+02  0.28032667238E+01  0.22550199923E+02  0.51100000000E-03 0.  1.
        -12    1    3    3    0    0  0.25904171776E+02 -0.22208397350E+02 -0.23520975702E+02  0.41442433884E+02  0.00000000000E+00 0.  1.
</event>
<event>
 7    1  0.3196678E-013  0.7246144E+02  0.7816164E-02  0.1226708E+00
        -11   -1    0    0    0    0  0.00000000000E+00  0.00000000000E+00  0.45593999997E+02  0.45594000000E+02  0.51100000000E-03 0. -1.
         11   -1    0    0    0    0 -0.00000000000E+00 -0.00000000000E+00 -0.45593999997E+02  0.45594000000E+02  0.51100000000E-03 0.  1.
    9900012    2    1    2    0    0 -0.60627971166E+01 -0.14538445106E+02  0.10127194284E+02  0.72461442414E+02  0.69999833412E+02 0.  0.
         12    1    1    2    0    0  0.60627971166E+01  0.14538445106E+02 -0.10127194284E+02  0.18726557586E+02  0.00000000000E+00 0. -1.
         11    1    3    3    0    0  0.86821146668E+01 -0.31986378070E+01  0.51274382552E+01  0.10578327951E+02  0.51100000000E-03 0.  1.
        -11    1    3    3    0    0 -0.28539215914E+02 -0.26953054732E+02 -0.34381092952E+01  0.39405261072E+02  0.51100000000E-03 0. -1.
         12    1    3    3    0    0  0.13794304131E+02  0.15613247433E+02  0.84378653237E+01  0.22477853391E+02  0.00000000000E+00 0. -1.
</event>
<event>
 7    1  0.3196678E-013  0.7246157E+02  0.7816164E-02  0.1226708E+00
        -11   -1    0    0    0    0  0.00000000000E+00  0.00000000000E+00  0.45593999997E+02  0.45594000000E+02  0.51100000000E-03 0.  1.
         11   -1    0    0    0    0 -0.00000000000E+00 -0.00000000000E+00 -0.45593999997E+02  0.45594000000E+02  0.51100000000E-03 0. -1.
    9900012    2    1    2    0    0  0.13902183377E+02  0.95761425047E+01  0.81059176675E+01  0.72461571906E+02  0.70000002100E+02 0.  0.
         12    1    1    2    0    0 -0.13902183377E+02 -0.95761425047E+01 -0.81059176675E+01  0.18726428094E+02  0.00000000000E+00 0. -1.
         11    1    3    3    0    0  0.26727911385E+02  0.53284912716E+01  0.26252742162E+02  0.37841518700E+02  0.51100000000E-03 0. -1.
        -11    1    3    3    0    0  0.81652068035E+01  0.78906597144E+00 -0.53564987688E+01  0.97972091216E+01  0.51100000000E-03 0.  1.
         12    1    3    3    0    0 -0.20990934812E+02  0.34585852616E+01 -0.12790325726E+02  0.24822844085E+02  0.00000000000E+00 0. -1.
</event>
<event>
 7    1  0.3196678E-013  0.7246154E+02  0.7816164E-02  0.1226708E+00
        -11   -1    0    0    0    0  0.00000000000E+00  0.00000000000E+00  0.45593999997E+02  0.45594000000E+02  0.51100000000E-03 0.  1.
         11   -1    0    0    0    0 -0.00000000000E+00 -0.00000000000E+00 -0.45593999997E+02  0.45594000000E+02  0.51100000000E-03 0. -1.
    9900012    2    1    2    0    0  0.15275278666E+02  0.13647923836E+01  0.10746322481E+02  0.72461541621E+02  0.69999962647E+02 0.  0.
         12    1    1    2    0    0 -0.15275278666E+02 -0.13647923836E+01 -0.10746322481E+02  0.18726458379E+02  0.00000000000E+00 0. -1.
         11    1    3    3    0    0  0.14015460283E+02  0.10429551293E+02  0.18275423515E+02  0.25282400441E+02  0.51100000000E-03 0.  1.
        -11    1    3    3    0    0  0.19011775637E+01  0.96705409641E+01  0.14951760490E+02  0.17907791060E+02  0.51100000000E-03 0. -1.
        -12    1    3    3    0    0 -0.64135918070E+00 -0.18735299874E+02 -0.22480861524E+02  0.29271350119E+02  0.00000000000E+00 0.  1.
</event>
<event>
 7    1  0.3196678E-013  0.7246151E+02  0.7816164E-02  0.1226708E+00
        -11   -1    0    0    0    0  0.00000000000E+00  0.00000000000E+00  0.45593999997E+02  0.45594000000E+02  0.51100000000E-03 0. -1.
         11   -1    0    0    0    0 -0.00000000000E+00 -0.00000000000E+00 -0.45593999997E+02  0.45594000000E+02  0.51100000000E-03 0.  1.
    9900012    2    1    2    0    0 -0.14709540769E+02  0.60153782084E+01  0.99058693043E+01  0.72461505099E+02  0.69999915071E+02 0.  0.
         12    1    1    2    0    0  0.14709540769E+02 -0.60153782084E+01 -0.99058693043E+01  0.18726494901E+02  0.00000000000E+00 0. -1.
         11    1    3    3    0    0 -0.11436649541E+02 -0.28421470223E+01 -0.10281829223E+02  0.15639397842E+02  0.51100000000E-03 0. -1.
        -11    1    3    3    0    0 -0.27659112168E+02  0.39723408613E+01  0.76569315326E+01  0.28972997405E+02  0.51100000000E-03 0.  1.
        -12    1    3    3    0    0  0.24386220941E+02  0.48851843695E+01  0.12530766994E+02  0.27849109852E+02  0.00000000000E+00 0.  1.
</event>
<event>
 7    1  0.3196678E-013  0.7246152E+02  0.7816164E-02  0.1226708E+00
        -11   -1    0    0    0    0  0.00000000000E+00  0.00000000000E+00  0.45593999997E+02  0.45594000000E+02  0.51100000000E-03 0. -1.
         11   -1    0    0    0    0 -0.00000000000E+00 -0.00000000000E+00 -0.45593999997E+02  0.45594000000E+02  0.51100000000E-03 0.  1.
    9900012    2    1    2    0    0  0.27776319855E+01 -0.57206867005E+01 -0.17613618480E+02  0.72461520039E+02  0.69999934533E+02 0.  0.
         12    1    1    2    0    0 -0.27776319855E+01  0.57206867005E+01  0.17613618480E+02  0.18726479961E+02  0.00000000000E+00 0. -1.
         11    1    3    3    0    0 -0.13799376847E+01 -0.31910872915E+02 -0.12395734749E+01  0.31964739649E+02  0.51100000000E-03 0. -1.
        -11    1    3    3    0    0 -0.73608007890E+01  0.11820268793E+01  0.15882375461E+01  0.76224060875E+01  0.51100000000E-03 0.  1.
        -12    1    3    3    0    0  0.11518370459E+02  0.25008159335E+02 -0.17962282551E+02  0.32874374303E+02  0.00000000000E+00 0.  1.
</event>
<event>
 7    1  0.3196678E-013  0.7246160E+02  0.7816164E-02  0.1226708E+00
        -11   -1    0    0    0    0  0.00000000000E+00  0.00000000000E+00  0.45593999997E+02  0.45594000000E+02  0.51100000000E-03 0.  1.
         11   -1    0    0    0    0 -0.00000000000E+00 -0.00000000000E+00 -0.45593999997E+02  0.45594000000E+02  0.51100000000E-03 0. -1.
    9900012    2    1    2    0    0  0.18375274617E+02  0.36092456716E+01  0.27077563134E-01  0.72461598724E+02  0.70000037035E+02 0.  0.
         12    1    1    2    0    0 -0.18375274617E+02 -0.36092456716E+01 -0.27077563134E-01  0.18726401276E+02  0.00000000000E+00 0. -1.
         11    1    3    3    0    0 -0.91367312865E+01  0.10947291751E+02 -0.44743559008E+01  0.14944661799E+02  0.51100000000E-03 0. -1.
        -11    1    3    3    0    0  0.13912818736E+02  0.16654137593E+02  0.16678722571E+02  0.27369812038E+02  0.51100000000E-03 0.  1.
         12    1    3    3    0    0  0.13599187167E+02 -0.23992183673E+02 -0.12177289107E+02  0.30147124887E+02  0.00000000000E+00 0. -1.
</event>
<event>
 7    1  0.3196678E-013  0.7246154E+02  0.7816164E-02  0.1226708E+00
        -11   -1    0    0    0    0  0.00000000000E+00  0.00000000000E+00  0.45593999997E+02  0.45594000000E+02  0.51100000000E-03 0. -1.
         11   -1    0    0    0    0 -0.00000000000E+00 -0.00000000000E+00 -0.45593999997E+02  0.45594000000E+02  0.51100000000E-03 0.  1.
    9900012    2    1    2    0    0  0.17233186839E+02  0.36794087455E+01  0.63371641809E+01  0.72461536714E+02  0.69999956256E+02 0.  0.
         12    1    1    2    0    0 -0.17233186839E+02 -0.36794087455E+01 -0.63371641809E+01  0.18726463286E+02  0.00000000000E+00 0. -1.
         11    1    3    3    0    0  0.99482114058E+01  0.22489143068E+02  0.29460981674E+02  0.38375485763E+02  0.51100000000E-03 0. -1.
        -11    1    3    3    0    0  0.54190355243E+01 -0.11275593801E+02 -0.35114887139E+01  0.12993672107E+02  0.51100000000E-03 0.  1.
        -12    1    3    3    0    0  0.18659399085E+01 -0.75341405216E+01 -0.19612328779E+02  0.21092378844E+02  0.00000000000E+00 0.  1.
</event>
<event>
 7    1  0.3196678E-013  0.7246160E+02  0.7816164E-02  0.1226708E+00
        -11   -1    0    0    0    0  0.00000000000E+00  0.00000000000E+00  0.45593999997E+02  0.45594000000E+02  0.51100000000E-03 0.  1.
         11   -1    0    0    0    0 -0.00000000000E+00 -0.00000000000E+00 -0.45593999997E+02  0.45594000000E+02  0.51100000000E-03 0. -1.
    9900012    2    1    2    0    0 -0.59980379945E+01 -0.29042428571E+00  0.17737448539E+02  0.72461604546E+02  0.70000044619E+02 0.  0.
         12    1    1    2    0    0  0.59980379945E+01  0.29042428571E+00 -0.17737448539E+02  0.18726395454E+02  0.00000000000E+00 0. -1.
         11    1    3    3    0    0 -0.94115364838E+01  0.86949851161E+01 -0.38515281579E+01  0.13379613394E+02  0.51100000000E-03 0. -1.
        -11    1    3    3    0    0  0.24124782429E+02  0.72558716072E+01  0.24196724364E+00  0.25193478292E+02  0.51100000000E-03 0.  1.
        -12    1    3    3    0    0 -0.20711283940E+02 -0.16241281009E+02  0.21347009453E+02  0.33888512860E+02  0.00000000000E+00 0.  1.
</event>
<event>
 7    1  0.3196678E-013  0.7246154E+02  0.7816164E-02  0.1226708E+00
        -11   -1    0    0    0    0  0.00000000000E+00  0.00000000000E+00  0.45593999997E+02  0.45594000000E+02  0.51100000000E-03 0.  1.
         11   -1    0    0    0    0 -0.00000000000E+00 -0.00000000000E+00 -0.45593999997E+02  0.45594000000E+02  0.51100000000E-03 0. -1.
    9900012    2    1    2    0    0  0.12381700736E+02  0.95533031248E+01  0.10300886113E+02  0.72461538283E+02  0.69999958299E+02 0.  0.
         12    1    1    2    0    0 -0.12381700736E+02 -0.95533031248E+01 -0.10300886113E+02  0.18726461717E+02  0.00000000000E+00 0. -1.
         11    1    3    3    0    0 -0.71645756824E+01  0.41091947293E+01  0.25254940236E+01  0.86368250159E+01  0.51100000000E-03 0. -1.
        -11    1    3    3    0    0 -0.17258014503E+02  0.16841530517E+02 -0.16162935781E+01  0.24167925437E+02  0.51100000000E-03 0.  1.
         12    1    3    3    0    0  0.36804290922E+02 -0.11397422122E+02  0.93916856679E+01  0.39656787830E+02  0.00000000000E+00 0. -1.
</event>
<event>
 7    1  0.3196678E-013  0.7246146E+02  0.7816164E-02  0.1226708E+00
        -11   -1    0    0    0    0  0.00000000000E+00  0.00000000000E+00  0.45593999997E+02  0.45594000000E+02  0.51100000000E-03 0.  1.
         11   -1    0    0    0    0 -0.00000000000E+00 -0.00000000000E+00 -0.45593999997E+02  0.45594000000E+02  0.51100000000E-03 0. -1.
    9900012    2    1    2    0    0  0.17223745235E+02 -0.65693227822E+01 -0.32969253127E+01  0.72461464863E+02  0.69999862656E+02 0.  0.
         12    1    1    2    0    0 -0.17223745235E+02  0.65693227822E+01  0.32969253127E+01  0.18726535137E+02  0.00000000000E+00 0. -1.
         11    1    3    3    0    0  0.87657104620E+01  0.61801355035E+01 -0.54499604586E+01  0.12030537145E+02  0.51100000000E-03 0. -1.
        -11    1    3    3    0    0  0.12620662227E+02 -0.21891297173E+02  0.24955130068E+02  0.35514342510E+02  0.51100000000E-03 0.  1.
         12    1    3    3    0    0 -0.41626274539E+01  0.91418388869E+01 -0.22802094922E+02  0.24916585207E+02  0.00000000000E+00 0. -1.
</event>
<event>
 7    1  0.3196678E-013  0.7246163E+02  0.7816164E-02  0.1226708E+00
        -11   -1    0    0    0    0  0.00000000000E+00  0.00000000000E+00  0.45593999997E+02  0.45594000000E+02  0.51100000000E-03 0. -1.
         11   -1    0    0    0    0 -0.00000000000E+00 -0.00000000000E+00 -0.45593999997E+02  0.45594000000E+02  0.51100000000E-03 0.  1.
    9900012    2    1    2    0    0 -0.40919516157E+00  0.58527363756E+00 -0.18712751313E+02  0.72461626950E+02  0.70000073804E+02 0.  0.
         12    1    1    2    0    0  0.40919516157E+00 -0.58527363756E+00  0.18712751313E+02  0.18726373050E+02  0.00000000000E+00 0. -1.
         11    1    3    3    0    0 -0.47321753301E+01 -0.12114966034E+02  0.83259673562E+01  0.15443044325E+02  0.51100000000E-03 0. -1.
        -11    1    3    3    0    0  0.21249457946E+02 -0.58165134549E+01 -0.29305490348E+01  0.22225197630E+02  0.51100000000E-03 0.  1.
        -12    1    3    3    0    0 -0.16926477778E+02  0.18516753126E+02 -0.24108169634E+02  0.34793384995E+02  0.00000000000E+00 0.  1.
</event>
<event>
 7    1  0.3196678E-013  0.7246153E+02  0.7816164E-02  0.1226708E+00
        -11   -1    0    0    0    0  0.00000000000E+00  0.00000000000E+00  0.45593999997E+02  0.45594000000E+02  0.51100000000E-03 0. -1.
         11   -1    0    0    0    0 -0.00000000000E+00 -0.00000000000E+00 -0.45593999997E+02  0.45594000000E+02  0.51100000000E-03 0.  1.
    9900012    2    1    2    0    0  0.64844488679E+01  0.17487673263E+02  0.16774810316E+01  0.72461528472E+02  0.69999945519E+02 0.  0.
         12    1    1    2    0    0 -0.64844488679E+01 -0.17487673263E+02 -0.16774810316E+01  0.18726471528E+02  0.00000000000E+00 0. -1.
         11    1    3    3    0    0  0.59475369816E+01  0.70071823976E+01 -0.14365324281E+02  0.17053924571E+02  0.51100000000E-03 0. -1.
        -11    1    3    3    0    0  0.10285294719E+02  0.27690127602E+02 -0.62045861224E+00  0.29545142126E+02  0.51100000000E-03 0.  1.
         12    1    3    3    0    0 -0.97483828323E+01 -0.17209636737E+02  0.16663263925E+02  0.25862461776E+02  0.00000000000E+00 0. -1.
</event>
<event>
 7    1  0.3196678E-013  0.7246157E+02  0.7816164E-02  0.1226708E+00
        -11   -1    0    0    0    0  0.00000000000E+00  0.00000000000E+00  0.45593999997E+02  0.45594000000E+02  0.51100000000E-03 0. -1.
         11   -1    0    0    0    0 -0.00000000000E+00 -0.00000000000E+00 -0.45593999997E+02  0.45594000000E+02  0.51100000000E-03 0.  1.
    9900012    2    1    2    0    0  0.12961280666E+02  0.10864503304E+02 -0.80403368846E+01  0.72461568259E+02  0.69999997349E+02 0.  0.
         12    1    1    2    0    0 -0.12961280666E+02 -0.10864503304E+02  0.80403368846E+01  0.18726431741E+02  0.00000000000E+00 0. -1.
         11    1    3    3    0    0  0.85413821318E+01 -0.13371258083E+01 -0.13505468887E+02  0.16035610505E+02  0.51100000000E-03 0. -1.
        -11    1    3    3    0    0 -0.10758663632E+02 -0.17573918315E+02  0.96326780734E+01  0.22745987233E+02  0.51100000000E-03 0.  1.
         12    1    3    3    0    0  0.15178562166E+02  0.29775547427E+02 -0.41675460713E+01  0.33679970521E+02  0.00000000000E+00 0. -1.
</event>
<event>
 7    1  0.3196678E-013  0.7246160E+02  0.7816164E-02  0.1226708E+00
        -11   -1    0    0    0    0  0.00000000000E+00  0.00000000000E+00  0.45593999997E+02  0.45594000000E+02  0.51100000000E-03 0. -1.
         11   -1    0    0    0    0 -0.00000000000E+00 -0.00000000000E+00 -0.45593999997E+02  0.45594000000E+02  0.51100000000E-03 0.  1.
    9900012    2    1    2    0    0 -0.16164681816E+02  0.74015324305E+01  0.58820519838E+01  0.72461597353E+02  0.70000035249E+02 0.  0.
         12    1    1    2    0    0  0.16164681816E+02 -0.74015324305E+01 -0.58820519838E+01  0.18726402647E+02  0.00000000000E+00 0. -1.
         11    1    3    3    0    0 -0.12139409684E+02 -0.11476307182E+02  0.14542881126E+02  0.22148731018E+02  0.51100000000E-03 0. -1.
        -11    1    3    3    0    0 -0.10521821542E+02  0.32585155223E+01 -0.24672957417E+02  0.27020019984E+02  0.51100000000E-03 0.  1.
         12    1    3    3    0    0  0.64965494100E+01  0.15619324090E+02  0.16012128275E+02  0.23292846352E+02  0.00000000000E+00 0. -1.
</event>
<event>
 7    1  0.3196678E-013  0.7246158E+02  0.7816164E-02  0.1226708E+00
        -11   -1    0    0    0    0  0.00000000000E+00  0.00000000000E+00  0.45593999997E+02  0.45594000000E+02  0.51100000000E-03 0.  1.
         11   -1    0    0    0    0 -0.00000000000E+00 -0.00000000000E+00 -0.45593999997E+02  0.45594000000E+02  0.51100000000E-03 0. -1.
    9900012    2    1    2    0    0  0.12244740650E+01  0.11331707262E+02  0.14858392306E+02  0.72461581546E+02  0.70000014657E+02 0.  0.
         12    1    1    2    0    0 -0.12244740650E+01 -0.11331707262E+02 -0.14858392306E+02  0.18726418454E+02  0.00000000000E+00 0. -1.
         11    1    3    3    0    0 -0.81960120551E+01  0.21337272038E+02 -0.71009690015E+01  0.23934860615E+02  0.51100000000E-03 0. -1.
        -11    1    3    3    0    0 -0.13109716162E+02 -0.48321867174E+01  0.21209562962E+02  0.25398036295E+02  0.51100000000E-03 0.  1.
        -12    1    3    3    0    0  0.22530202282E+02 -0.51733780585E+01  0.74979834533E+00  0.23128684636E+02  0.00000000000E+00 0.  1.
</event>
<event>
 7    1  0.3196678E-013  0.7246182E+02  0.7816164E-02  0.1226707E+00
        -11   -1    0    0    0    0  0.00000000000E+00  0.00000000000E+00  0.45593999997E+02  0.45594000000E+02  0.51100000000E-03 0.  1.
         11   -1    0    0    0    0 -0.00000000000E+00 -0.00000000000E+00 -0.45593999997E+02  0.45594000000E+02  0.51100000000E-03 0. -1.
    9900012    2    1    2    0    0 -0.48732419536E+01  0.13521677237E+02  0.12003564350E+02  0.72461820476E+02  0.70000325908E+02 0.  0.
         12    1    1    2    0    0  0.48732419536E+01 -0.13521677237E+02 -0.12003564350E+02  0.18726179524E+02  0.00000000000E+00 0. -1.
         11    1    3    3    0    0 -0.13861965363E+02 -0.39116716605E+01 -0.15021679229E+02  0.20811201456E+02  0.51100000000E-03 0. -1.
        -11    1    3    3    0    0 -0.10091558800E+02 -0.33322866013E+01  0.19906098962E+02  0.22565382096E+02  0.51100000000E-03 0.  1.
         12    1    3    3    0    0  0.19080282210E+02  0.20765635499E+02  0.71191446179E+01  0.29085236925E+02  0.00000000000E+00 0. -1.
</event>
<event>
 7    1  0.3196678E-013  0.7246162E+02  0.7816164E-02  0.1226708E+00
        -11   -1    0    0    0    0  0.00000000000E+00  0.00000000000E+00  0.45593999997E+02  0.45594000000E+02  0.51100000000E-03 0.  1.
         11   -1    0    0    0    0 -0.00000000000E+00 -0.00000000000E+00 -0.45593999997E+02  0.45594000000E+02  0.51100000000E-03 0. -1.
    9900012    2    1    2    0    0 -0.86724002423E+01  0.30225279952E+01  0.16319653168E+02  0.72461620719E+02  0.70000065688E+02 0.  0.
         12    1    1    2    0    0  0.86724002423E+01 -0.30225279952E+01 -0.16319653168E+02  0.18726379281E+02  0.00000000000E+00 0. -1.
         11    1    3    3    0    0 -0.19481327376E+02  0.57723168659E+01  0.11546667313E+01  0.20351290225E+02  0.51100000000E-03 0. -1.
        -11    1    3    3    0    0 -0.15665946506E+01  0.69852424444E+01 -0.15814334565E+02  0.17359176501E+02  0.51100000000E-03 0.  1.
        -12    1    3    3    0    0  0.12375521784E+02 -0.97350313151E+01  0.30979321001E+02  0.34751153993E+02  0.00000000000E+00 0.  1.
</event>
<event>
 7    1  0.3196678E-013  0.7246167E+02  0.7816164E-02  0.1226708E+00
        -11   -1    0    0    0    0  0.00000000000E+00  0.00000000000E+00  0.45593999997E+02  0.45594000000E+02  0.51100000000E-03 0. -1.
         11   -1    0    0    0    0 -0.00000000000E+00 -0.00000000000E+00 -0.45593999997E+02  0.45594000000E+02  0.51100000000E-03 0.  1.
    9900012    2    1    2    0    0  0.19855384754E+01  0.75326655968E+01 -0.17029149192E+02  0.72461672644E+02  0.70000133329E+02 0.  0.
         12    1    1    2    0    0 -0.19855384754E+01 -0.75326655968E+01  0.17029149192E+02  0.18726327356E+02  0.00000000000E+00 0. -1.
         11    1    3    3    0    0  0.23775156794E+01 -0.20845059170E+01 -0.84639890110E+01  0.90353116140E+01  0.51100000000E-03 0. -1.
        -11    1    3    3    0    0  0.64018936896E+01 -0.13079279142E+02 -0.28798443405E+02  0.32270762751E+02  0.51100000000E-03 0.  1.
         12    1    3    3    0    0 -0.67938708937E+01  0.22696450656E+02  0.20233283224E+02  0.31155598279E+02  0.00000000000E+00 0. -1.
</event>
<event>
 7    1  0.3196678E-013  0.7246156E+02  0.7816164E-02  0.1226708E+00
        -11   -1    0    0    0    0  0.00000000000E+00  0.00000000000E+00  0.45593999997E+02  0.45594000000E+02  0.51100000000E-03 0.  1.
         11   -1    0    0    0    0 -0.00000000000E+00 -0.00000000000E+00 -0.45593999997E+02  0.45594000000E+02  0.51100000000E-03 0. -1.
    9900012    2    1    2    0    0  0.13613056030E+02 -0.50156450502E+01  0.11840926594E+02  0.72461560606E+02  0.69999987379E+02 0.  0.
         12    1    1    2    0    0 -0.13613056030E+02  0.50156450502E+01 -0.11840926594E+02  0.18726439394E+02  0.00000000000E+00 0. -1.
         11    1    3    3    0    0 -0.72110109241E+01 -0.13842601925E+01 -0.13521115221E+02  0.15386208497E+02  0.51100000000E-03 0. -1.
        -11    1    3    3    0    0  0.10118419865E+02 -0.24711198087E+02  0.18403168563E+02  0.32429960606E+02  0.51100000000E-03 0.  1.
         12    1    3    3    0    0  0.10705647089E+02  0.21079813230E+02  0.69588732525E+01  0.24645391503E+02  0.00000000000E+00 0. -1.
</event>
<event>
 7    1  0.3196678E-013  0.7246154E+02  0.7816164E-02  0.1226708E+00
        -11   -1    0    0    0    0  0.00000000000E+00  0.00000000000E+00  0.45593999997E+02  0.45594000000E+02  0.51100000000E-03 0. -1.
         11   -1    0    0    0    0 -0.00000000000E+00 -0.00000000000E+00 -0.45593999997E+02  0.45594000000E+02  0.51100000000E-03 0.  1.
    9900012    2    1    2    0    0 -0.14728480725E+02 -0.57557337171E+01 -0.10031135866E+02  0.72461540061E+02  0.69999960615E+02 0.  0.
         12    1    1    2    0    0  0.14728480725E+02  0.57557337171E+01  0.10031135866E+02  0.18726459939E+02  0.00000000000E+00 0. -1.
         11    1    3    3    0    0 -0.97603808411E+01 -0.71443774790E+01  0.19633544472E+02  0.23060425679E+02  0.51100000000E-03 0. -1.
        -11    1    3    3    0    0  0.41500203089E+00  0.18034671413E+02 -0.42269543198E+01  0.18528052859E+02  0.51100000000E-03 0.  1.
         12    1    3    3    0    0 -0.53831019145E+01 -0.16646027651E+02 -0.25437726019E+02  0.30873061523E+02  0.00000000000E+00 0. -1.
</event>
<event>
 7    1  0.3196678E-013  0.7246167E+02  0.7816164E-02  0.1226708E+00
        -11   -1    0    0    0    0  0.00000000000E+00  0.00000000000E+00  0.45593999997E+02  0.45594000000E+02  0.51100000000E-03 0. -1.
         11   -1    0    0    0    0 -0.00000000000E+00 -0.00000000000E+00 -0.45593999997E+02  0.45594000000E+02  0.51100000000E-03 0.  1.
    9900012    2    1    2    0    0  0.57765690098E+00  0.18566010870E+02  0.23759353551E+01  0.72461667846E+02  0.70000127079E+02 0.  0.
         12    1    1    2    0    0 -0.57765690098E+00 -0.18566010870E+02 -0.23759353551E+01  0.18726332154E+02  0.00000000000E+00 0. -1.
         11    1    3    3    0    0  0.37538884076E+01 -0.57183519200E+01  0.16591914226E+02  0.17946666676E+02  0.51100000000E-03 0. -1.
        -11    1    3    3    0    0 -0.13968927450E+01  0.70367220678E+01  0.17197518697E+02  0.18633878190E+02  0.51100000000E-03 0.  1.
        -12    1    3    3    0    0 -0.17793387617E+01  0.17247640722E+02 -0.31413497567E+02  0.35881122980E+02  0.00000000000E+00 0.  1.
</event>
<event>
 7    1  0.3196678E-013  0.7246150E+02  0.7816164E-02  0.1226708E+00
        -11   -1    0    0    0    0  0.00000000000E+00  0.00000000000E+00  0.45593999997E+02  0.45594000000E+02  0.51100000000E-03 0. -1.
         11   -1    0    0    0    0 -0.00000000000E+00 -0.00000000000E+00 -0.45593999997E+02  0.45594000000E+02  0.51100000000E-03 0.  1.
    9900012    2    1    2    0    0 -0.82876690318E+01 -0.16417533734E+02 -0.35300107697E+01  0.72461498781E+02  0.69999906840E+02 0.  0.
         12    1    1    2    0    0  0.82876690318E+01  0.16417533734E+02  0.35300107697E+01  0.18726501219E+02  0.00000000000E+00 0. -1.
         11    1    3    3    0    0 -0.59187803087E+01  0.11542819913E+02 -0.74045022285E+01  0.14936375243E+02  0.51100000000E-03 0. -1.
        -11    1    3    3    0    0  0.91894137658E+01  0.54758387880E+01 -0.14215497952E+02  0.17790742482E+02  0.51100000000E-03 0.  1.
         12    1    3    3    0    0 -0.11558302489E+02 -0.33436192435E+02  0.18089989410E+02  0.39734381055E+02  0.00000000000E+00 0. -1.
</event>
<event>
 7    1  0.3196678E-013  0.7246173E+02  0.7816164E-02  0.1226708E+00
        -11   -1    0    0    0    0  0.00000000000E+00  0.00000000000E+00  0.45593999997E+02  0.45594000000E+02  0.51100000000E-03 0. -1.
         11   -1    0    0    0    0 -0.00000000000E+00 -0.00000000000E+00 -0.45593999997E+02  0.45594000000E+02  0.51100000000E-03 0.  1.
    9900012    2    1    2    0    0 -0.74472476504E+01  0.91350615036E+00 -0.17157424628E+02  0.72461729391E+02  0.70000207252E+02 0.  0.
         12    1    1    2    0    0  0.74472476504E+01 -0.91350615036E+00  0.17157424628E+02  0.18726270609E+02  0.00000000000E+00 0. -1.
         11    1    3    3    0    0  0.18777612089E+02  0.64267312670E+01 -0.84528941439E+01  0.21572042328E+02  0.51100000000E-03 0. -1.
        -11    1    3    3    0    0  0.41806540089E+01  0.65730765845E+01 -0.15613194752E+02  0.17448640473E+02  0.51100000000E-03 0.  1.
        -12    1    3    3    0    0 -0.30405513748E+02 -0.12086301701E+02  0.69086642674E+01  0.33441046590E+02  0.00000000000E+00 0.  1.
</event>
<event>
 7    1  0.3196678E-013  0.7246158E+02  0.7816164E-02  0.1226708E+00
        -11   -1    0    0    0    0  0.00000000000E+00  0.00000000000E+00  0.45593999997E+02  0.45594000000E+02  0.51100000000E-03 0. -1.
         11   -1    0    0    0    0 -0.00000000000E+00 -0.00000000000E+00 -0.45593999997E+02  0.45594000000E+02  0.51100000000E-03 0.  1.
    9900012    2    1    2    0    0  0.59209464155E+01 -0.53797055750E+01 -0.16931621769E+02  0.72461584052E+02  0.70000017922E+02 0.  0.
         12    1    1    2    0    0 -0.59209464155E+01  0.53797055750E+01  0.16931621769E+02  0.18726415948E+02  0.00000000000E+00 0. -1.
         11    1    3    3    0    0  0.32855060617E+01 -0.19719993514E+02  0.12588974122E+01  0.20031413261E+02  0.51100000000E-03 0. -1.
        -11    1    3    3    0    0  0.24581077575E+02  0.88659401976E+01 -0.13166704466E+02  0.29260833500E+02  0.51100000000E-03 0.  1.
        -12    1    3    3    0    0 -0.21945637221E+02  0.54743477414E+01 -0.50238147146E+01  0.23169337292E+02  0.00000000000E+00 0.  1.
</event>
<event>
 7    1  0.3196678E-013  0.7246155E+02  0.7816164E-02  0.1226708E+00
        -11   -1    0    0    0    0  0.00000000000E+00  0.00000000000E+00  0.45593999997E+02  0.45594000000E+02  0.51100000000E-03 0. -1.
         11   -1    0    0    0    0 -0.00000000000E+00 -0.00000000000E+00 -0.45593999997E+02  0.45594000000E+02  0.51100000000E-03 0.  1.
    9900012    2    1    2    0    0  0.17244610864E+02 -0.60834297004E+01 -0.40367507296E+01  0.72461546058E+02  0.69999968428E+02 0.  0.
         12    1    1    2    0    0 -0.17244610864E+02  0.60834297004E+01  0.40367507296E+01  0.18726453942E+02  0.00000000000E+00 0. -1.
         11    1    3    3    0    0  0.15608480061E+00  0.80931104276E+01  0.17096878690E+02  0.18916290864E+02  0.51100000000E-03 0. -1.
        -11    1    3    3    0    0 -0.14010904207E+01  0.45484973990E+00  0.12435776574E+02  0.12522718632E+02  0.51100000000E-03 0.  1.
        -12    1    3    3    0    0  0.18489616485E+02 -0.14631389868E+02 -0.33569405994E+02  0.41022536562E+02  0.00000000000E+00 0.  1.
</event>
<event>
 7    1  0.3196678E-013  0.7246155E+02  0.7816164E-02  0.1226708E+00
        -11   -1    0    0    0    0  0.00000000000E+00  0.00000000000E+00  0.45593999997E+02  0.45594000000E+02  0.51100000000E-03 0. -1.
         11   -1    0    0    0    0 -0.00000000000E+00 -0.00000000000E+00 -0.45593999997E+02  0.45594000000E+02  0.51100000000E-03 0.  1.
    9900012    2    1    2    0    0 -0.55712839126E+01  0.10450022623E+02 -0.14506475342E+02  0.72461548011E+02  0.69999970972E+02 0.  0.
         12    1    1    2    0    0  0.55712839126E+01 -0.10450022623E+02  0.14506475342E+02  0.18726451989E+02  0.00000000000E+00 0. -1.
         11    1    3    3    0    0 -0.21759646600E+02  0.66321725873E+01 -0.72458328027E+00  0.22759458574E+02  0.51100000000E-03 0. -1.
        -11    1    3    3    0    0 -0.43157775282E+01  0.14168976978E+02 -0.20935309620E+02  0.25645136643E+02  0.51100000000E-03 0.  1.
        -12    1    3    3    0    0  0.20504140216E+02 -0.10351126943E+02  0.71534175583E+01  0.24056952794E+02  0.00000000000E+00 0.  1.
</event>
<event>
 7    1  0.3196678E-013  0.7246097E+02  0.7816164E-02  0.1226710E+00
        -11   -1    0    0    0    0  0.00000000000E+00  0.00000000000E+00  0.45593999997E+02  0.45594000000E+02  0.51100000000E-03 0.  1.
         11   -1    0    0    0    0 -0.00000000000E+00 -0.00000000000E+00 -0.45593999997E+02  0.45594000000E+02  0.51100000000E-03 0. -1.
    9900012    2    1    2    0    0 -0.99760475208E+01  0.82655338133E+01  0.13522619517E+02  0.72460965746E+02  0.69999212459E+02 0.  0.
         12    1    1    2    0    0  0.99760475208E+01 -0.82655338133E+01 -0.13522619517E+02  0.18727034254E+02  0.00000000000E+00 0. -1.
         11    1    3    3    0    0 -0.29234649208E+01 -0.40487804299E+01  0.63759246956E+01  0.80988694333E+01  0.51100000000E-03 0. -1.
        -11    1    3    3    0    0 -0.14432156474E+02 -0.78370222485E+00  0.32114740266E+02  0.35217295073E+02  0.51100000000E-03 0.  1.
         12    1    3    3    0    0  0.73795738744E+01  0.13098016468E+02 -0.24968045444E+02  0.29144801239E+02  0.00000000000E+00 0. -1.
</event>
<event>
 7    1  0.3196678E-013  0.7246154E+02  0.7816164E-02  0.1226708E+00
        -11   -1    0    0    0    0  0.00000000000E+00  0.00000000000E+00  0.45593999997E+02  0.45594000000E+02  0.51100000000E-03 0. -1.
         11   -1    0    0    0    0 -0.00000000000E+00 -0.00000000000E+00 -0.45593999997E+02  0.45594000000E+02  0.51100000000E-03 0.  1.
    9900012    2    1    2    0    0 -0.81816589455E+01  0.13723189307E+02 -0.97680576936E+01  0.72461536934E+02  0.69999956542E+02 0.  0.
         12    1    1    2    0    0  0.81816589455E+01 -0.13723189307E+02  0.97680576936E+01  0.18726463066E+02  0.00000000000E+00 0. -1.
         11    1    3    3    0    0 -0.16862595662E+02 -0.24921870775E+01 -0.10663818438E+02  0.20106594760E+02  0.51100000000E-03 0. -1.
        -11    1    3    3    0    0 -0.17075321895E+02 -0.53420193506E+01  0.48461021040E+01  0.18536140224E+02  0.51100000000E-03 0.  1.
        -12    1    3    3    0    0  0.25756258611E+02  0.21557395735E+02 -0.39503413595E+01  0.33818801950E+02  0.00000000000E+00 0.  1.
</event>
<event>
 7    1  0.3196678E-013  0.7246155E+02  0.7816164E-02  0.1226708E+00
        -11   -1    0    0    0    0  0.00000000000E+00  0.00000000000E+00  0.45593999997E+02  0.45594000000E+02  0.51100000000E-03 0.  1.
         11   -1    0    0    0    0 -0.00000000000E+00 -0.00000000000E+00 -0.45593999997E+02  0.45594000000E+02  0.51100000000E-03 0. -1.
    9900012    2    1    2    0    0  0.55355211104E+01  0.17140301505E+02 -0.51232936868E+01  0.72461546309E+02  0.69999968755E+02 0.  0.
         12    1    1    2    0    0 -0.55355211104E+01 -0.17140301505E+02  0.51232936868E+01  0.18726453691E+02  0.00000000000E+00 0. -1.
         11    1    3    3    0    0  0.54250990078E+00  0.33252502757E+02 -0.46352111301E+01  0.33578392444E+02  0.51100000000E-03 0. -1.
        -11    1    3    3    0    0 -0.43712579991E+01  0.97724813961E+01 -0.33271270188E+01  0.11210667402E+02  0.51100000000E-03 0.  1.
        -12    1    3    3    0    0  0.93642692087E+01 -0.25884682649E+02  0.28390444621E+01  0.27672486464E+02  0.00000000000E+00 0.  1.
</event>
<event>
 7    1  0.3196678E-013  0.7246162E+02  0.7816164E-02  0.1226708E+00
        -11   -1    0    0    0    0  0.00000000000E+00  0.00000000000E+00  0.45593999997E+02  0.45594000000E+02  0.51100000000E-03 0. -1.
         11   -1    0    0    0    0 -0.00000000000E+00 -0.00000000000E+00 -0.45593999997E+02  0.45594000000E+02  0.51100000000E-03 0.  1.
    9900012    2    1    2    0    0  0.57253116394E-02 -0.15479484762E+02 -0.10538629502E+02  0.72461623067E+02  0.70000068746E+02 0.  0.
         12    1    1    2    0    0 -0.57253116394E-02  0.15479484762E+02  0.10538629502E+02  0.18726376933E+02  0.00000000000E+00 0. -1.
         11    1    3    3    0    0  0.80399766880E+01  0.13118584757E+02  0.81260926993E+01  0.17400341203E+02  0.51100000000E-03 0. -1.
        -11    1    3    3    0    0 -0.95748122256E+01  0.94905733423E+01 -0.70372738811E+01  0.15207604527E+02  0.51100000000E-03 0.  1.
        -12    1    3    3    0    0  0.15405608492E+01 -0.38088642862E+02 -0.11627448320E+02  0.39853677336E+02  0.00000000000E+00 0.  1.
</event>
<event>
 7    1  0.3196678E-013  0.7246227E+02  0.7816164E-02  0.1226706E+00
        -11   -1    0    0    0    0  0.00000000000E+00  0.00000000000E+00  0.45593999997E+02  0.45594000000E+02  0.51100000000E-03 0.  1.
         11   -1    0    0    0    0 -0.00000000000E+00 -0.00000000000E+00 -0.45593999997E+02  0.45594000000E+02  0.51100000000E-03 0. -1.
    9900012    2    1    2    0    0  0.51378729127E+01 -0.39373435213E+01  0.17571358599E+02  0.72462267569E+02  0.70000908324E+02 0.  0.
         12    1    1    2    0    0 -0.51378729127E+01  0.39373435213E+01 -0.17571358599E+02  0.18725732431E+02  0.00000000000E+00 0. -1.
         11    1    3    3    0    0 -0.22588324980E+01 -0.72505770495E+01  0.47205344923E+01  0.89418475697E+01  0.51100000000E-03 0. -1.
        -11    1    3    3    0    0  0.20090609389E+02 -0.14793438703E+02  0.27394650906E+02  0.37053276681E+02  0.51100000000E-03 0.  1.
         12    1    3    3    0    0 -0.12693903978E+02  0.18106672231E+02 -0.14543826799E+02  0.26467143319E+02  0.00000000000E+00 0. -1.
</event>
<event>
 7    1  0.3196678E-013  0.7246158E+02  0.7816164E-02  0.1226708E+00
        -11   -1    0    0    0    0  0.00000000000E+00  0.00000000000E+00  0.45593999997E+02  0.45594000000E+02  0.51100000000E-03 0.  1.
         11   -1    0    0    0    0 -0.00000000000E+00 -0.00000000000E+00 -0.45593999997E+02  0.45594000000E+02  0.51100000000E-03 0. -1.
    9900012    2    1    2    0    0  0.13354147901E+02  0.10432732858E+02  0.79689049084E+01  0.72461584793E+02  0.70000018887E+02 0.  0.
         12    1    1    2    0    0 -0.13354147901E+02 -0.10432732858E+02 -0.79689049084E+01  0.18726415207E+02  0.00000000000E+00 0. -1.
         11    1    3    3    0    0 -0.15977135623E+02 -0.85656497457E+01 -0.19248529963E+02  0.26441352542E+02  0.51100000000E-03 0. -1.
        -11    1    3    3    0    0  0.13606612501E+01 -0.17752787283E+01  0.21118437859E+01  0.30761823804E+01  0.51100000000E-03 0.  1.
        -12    1    3    3    0    0  0.27970622274E+02  0.20773661332E+02  0.25105591086E+02  0.42944049870E+02  0.00000000000E+00 0.  1.
</event>
<event>
 7    1  0.3196678E-013  0.7246137E+02  0.7816164E-02  0.1226709E+00
        -11   -1    0    0    0    0  0.00000000000E+00  0.00000000000E+00  0.45593999997E+02  0.45594000000E+02  0.51100000000E-03 0.  1.
         11   -1    0    0    0    0 -0.00000000000E+00 -0.00000000000E+00 -0.45593999997E+02  0.45594000000E+02  0.51100000000E-03 0. -1.
    9900012    2    1    2    0    0 -0.61595583775E+01  0.29839219525E+00  0.17682127794E+02  0.72461365475E+02  0.69999733184E+02 0.  0.
         12    1    1    2    0    0  0.61595583775E+01 -0.29839219525E+00 -0.17682127794E+02  0.18726634525E+02  0.00000000000E+00 0. -1.
         11    1    3    3    0    0  0.11548252705E+00 -0.10258188967E+02 -0.16347160980E+02  0.19299571225E+02  0.51100000000E-03 0. -1.
        -11    1    3    3    0    0 -0.15407493496E+02 -0.95405459661E+01  0.20082508189E+02  0.27050323632E+02  0.51100000000E-03 0.  1.
         12    1    3    3    0    0  0.91324525916E+01  0.20097127128E+02  0.13946780585E+02  0.26111470618E+02  0.00000000000E+00 0. -1.
</event>
<event>
 7    1  0.3196678E-013  0.7246162E+02  0.7816164E-02  0.1226708E+00
        -11   -1    0    0    0    0  0.00000000000E+00  0.00000000000E+00  0.45593999997E+02  0.45594000000E+02  0.51100000000E-03 0.  1.
         11   -1    0    0    0    0 -0.00000000000E+00 -0.00000000000E+00 -0.45593999997E+02  0.45594000000E+02  0.51100000000E-03 0. -1.
    9900012    2    1    2    0    0  0.12245807288E+02 -0.18000046559E+01 -0.14052664874E+02  0.72461622802E+02  0.70000068401E+02 0.  0.
         12    1    1    2    0    0 -0.12245807288E+02  0.18000046559E+01  0.14052664874E+02  0.18726377198E+02  0.00000000000E+00 0. -1.
         11    1    3    3    0    0 -0.22137916630E+02 -0.12268793257E+02 -0.15802797776E+02  0.29838549873E+02  0.51100000000E-03 0. -1.
        -11    1    3    3    0    0  0.19621900676E+02 -0.56788110606E+01  0.32915174068E+01  0.20690625131E+02  0.51100000000E-03 0.  1.
        -12    1    3    3    0    0  0.14761823242E+02  0.16147599661E+02 -0.15413845053E+01  0.21932447799E+02  0.00000000000E+00 0.  1.
</event>
<event>
 7    1  0.3196678E-013  0.7246160E+02  0.7816164E-02  0.1226708E+00
        -11   -1    0    0    0    0  0.00000000000E+00  0.00000000000E+00  0.45593999997E+02  0.45594000000E+02  0.51100000000E-03 0.  1.
         11   -1    0    0    0    0 -0.00000000000E+00 -0.00000000000E+00 -0.45593999997E+02  0.45594000000E+02  0.51100000000E-03 0. -1.
    9900012    2    1    2    0    0  0.14085469893E+02  0.75221607362E+01  0.97823597264E+01  0.72461603495E+02  0.70000043250E+02 0.  0.
         12    1    1    2    0    0 -0.14085469893E+02 -0.75221607362E+01 -0.97823597264E+01  0.18726396505E+02  0.00000000000E+00 0. -1.
         11    1    3    3    0    0 -0.63897684233E+01 -0.59420000837E+01 -0.60674890172E+01  0.10627837444E+02  0.51100000000E-03 0. -1.
        -11    1    3    3    0    0 -0.88318825725E+01 -0.15333049838E+02 -0.27100428108E+00  0.17696836177E+02  0.51100000000E-03 0.  1.
        -12    1    3    3    0    0  0.29307120889E+02  0.28797210658E+02  0.16120853025E+02  0.44136929874E+02  0.00000000000E+00 0.  1.
</event>
<event>
 7    1  0.3196678E-013  0.7246160E+02  0.7816164E-02  0.1226708E+00
        -11   -1    0    0    0    0  0.00000000000E+00  0.00000000000E+00  0.45593999997E+02  0.45594000000E+02  0.51100000000E-03 0.  1.
         11   -1    0    0    0    0 -0.00000000000E+00 -0.00000000000E+00 -0.45593999997E+02  0.45594000000E+02  0.51100000000E-03 0. -1.
    9900012    2    1    2    0    0 -0.31157907781E+01 -0.75703258817E+01  0.16842205586E+02  0.72461604855E+02  0.70000045022E+02 0.  0.
         12    1    1    2    0    0  0.31157907781E+01  0.75703258817E+01 -0.16842205586E+02  0.18726395145E+02  0.00000000000E+00 0. -1.
         11    1    3    3    0    0 -0.26012771899E+02 -0.22901860184E+02 -0.80383828126E+00  0.34667068783E+02  0.51100000000E-03 0. -1.
        -11    1    3    3    0    0  0.40566259736E+01  0.13694641309E+02  0.54269787913E+01  0.15279120195E+02  0.51100000000E-03 0.  1.
        -12    1    3    3    0    0  0.18840355148E+02  0.16368929927E+01  0.12219065076E+02  0.22515415877E+02  0.00000000000E+00 0.  1.
</event>
<event>
 7    1  0.3196678E-013  0.7246177E+02  0.7816164E-02  0.1226707E+00
        -11   -1    0    0    0    0  0.00000000000E+00  0.00000000000E+00  0.45593999997E+02  0.45594000000E+02  0.51100000000E-03 0. -1.
         11   -1    0    0    0    0 -0.00000000000E+00 -0.00000000000E+00 -0.45593999997E+02  0.45594000000E+02  0.51100000000E-03 0.  1.
    9900012    2    1    2    0    0  0.15000665883E+02  0.98748721274E+00  0.11165863219E+02  0.72461772154E+02  0.70000262959E+02 0.  0.
         12    1    1    2    0    0 -0.15000665883E+02 -0.98748721274E+00 -0.11165863219E+02  0.18726227846E+02  0.00000000000E+00 0. -1.
         11    1    3    3    0    0 -0.12142428095E+01 -0.12003897869E+02  0.29070906387E+02  0.31475157634E+02  0.51100000000E-03 0. -1.
        -11    1    3    3    0    0  0.14913328570E+01 -0.93277903425E+01 -0.83029377740E+01  0.12576586274E+02  0.51100000000E-03 0.  1.
        -12    1    3    3    0    0  0.14723575835E+02  0.22319175424E+02 -0.96021053944E+01  0.28410028247E+02  0.00000000000E+00 0.  1.
</event>
<event>
 7    1  0.3196678E-013  0.7246158E+02  0.7816164E-02  0.1226708E+00
        -11   -1    0    0    0    0  0.00000000000E+00  0.00000000000E+00  0.45593999997E+02  0.45594000000E+02  0.51100000000E-03 0.  1.
         11   -1    0    0    0    0 -0.00000000000E+00 -0.00000000000E+00 -0.45593999997E+02  0.45594000000E+02  0.51100000000E-03 0. -1.
    9900012    2    1    2    0    0  0.12967040644E+02 -0.13501472814E+02  0.49497605317E+00  0.72461577157E+02  0.70000008939E+02 0.  0.
         12    1    1    2    0    0 -0.12967040644E+02  0.13501472814E+02 -0.49497605317E+00  0.18726422843E+02  0.00000000000E+00 0. -1.
         11    1    3    3    0    0 -0.53959184923E+01  0.12922305724E+02  0.43839440950E-01  0.14003708214E+02  0.51100000000E-03 0. -1.
        -11    1    3    3    0    0 -0.13422778985E+02 -0.44187899223E+01  0.11534319463E+02  0.18241086201E+02  0.51100000000E-03 0.  1.
        -12    1    3    3    0    0  0.31785738122E+02 -0.22004988615E+02 -0.11083182851E+02  0.40216782741E+02  0.00000000000E+00 0.  1.
</event>
<event>
 7    1  0.3196678E-013  0.7246180E+02  0.7816164E-02  0.1226707E+00
        -11   -1    0    0    0    0  0.00000000000E+00  0.00000000000E+00  0.45593999997E+02  0.45594000000E+02  0.51100000000E-03 0. -1.
         11   -1    0    0    0    0 -0.00000000000E+00 -0.00000000000E+00 -0.45593999997E+02  0.45594000000E+02  0.51100000000E-03 0.  1.
    9900012    2    1    2    0    0 -0.24927827849E+01  0.97996602415E+01 -0.15761444411E+02  0.72461803462E+02  0.70000303744E+02 0.  0.
         12    1    1    2    0    0  0.24927827849E+01 -0.97996602415E+01  0.15761444411E+02  0.18726196538E+02  0.00000000000E+00 0. -1.
         11    1    3    3    0    0 -0.15731041784E+02 -0.55405964143E+01  0.16660351164E+02  0.23573951417E+02  0.51100000000E-03 0. -1.
        -11    1    3    3    0    0 -0.51408133196E+01  0.93983514987E+01  0.49320310328E+00  0.10723815648E+02  0.51100000000E-03 0.  1.
        -12    1    3    3    0    0  0.18379072319E+02  0.59419051571E+01 -0.32914998678E+02  0.38164036398E+02  0.00000000000E+00 0.  1.
</event>
<event>
 7    1  0.3196678E-013  0.7246136E+02  0.7816164E-02  0.1226709E+00
        -11   -1    0    0    0    0  0.00000000000E+00  0.00000000000E+00  0.45593999997E+02  0.45594000000E+02  0.51100000000E-03 0.  1.
         11   -1    0    0    0    0 -0.00000000000E+00 -0.00000000000E+00 -0.45593999997E+02  0.45594000000E+02  0.51100000000E-03 0. -1.
    9900012    2    1    2    0    0 -0.13133427227E+02  0.12937532981E+01  0.13286321356E+02  0.72461360058E+02  0.69999726128E+02 0.  0.
         12    1    1    2    0    0  0.13133427227E+02 -0.12937532981E+01 -0.13286321356E+02  0.18726639942E+02  0.00000000000E+00 0. -1.
         11    1    3    3    0    0 -0.23047932666E+02 -0.62275120875E+01  0.41021449182E+01  0.24224299787E+02  0.51100000000E-03 0. -1.
        -11    1    3    3    0    0 -0.14354595050E+02  0.14434598624E+02  0.10621767956E+02  0.22961576410E+02  0.51100000000E-03 0.  1.
        -12    1    3    3    0    0  0.24269100489E+02 -0.69133332382E+01 -0.14375915174E+01  0.25275483861E+02  0.00000000000E+00 0.  1.
</event>
<event>
 7    1  0.3196678E-013  0.7246131E+02  0.7816164E-02  0.1226709E+00
        -11   -1    0    0    0    0  0.00000000000E+00  0.00000000000E+00  0.45593999997E+02  0.45594000000E+02  0.51100000000E-03 0. -1.
         11   -1    0    0    0    0 -0.00000000000E+00 -0.00000000000E+00 -0.45593999997E+02  0.45594000000E+02  0.51100000000E-03 0.  1.
    9900012    2    1    2    0    0 -0.50518684191E+01 -0.12636758332E+01 -0.17988069801E+02  0.72461310322E+02  0.69999661336E+02 0.  0.
         12    1    1    2    0    0  0.50518684191E+01  0.12636758332E+01  0.17988069801E+02  0.18726689678E+02  0.00000000000E+00 0. -1.
         11    1    3    3    0    0 -0.71190197722E+00  0.41830374146E+01  0.43883589853E+01  0.61042854850E+01  0.51100000000E-03 0. -1.
        -11    1    3    3    0    0 -0.64918800324E+00  0.79912352385E+01  0.20106912772E+02  0.21646459922E+02  0.51100000000E-03 0.  1.
        -12    1    3    3    0    0 -0.36907784386E+01 -0.13437948486E+02 -0.42483341558E+02  0.44710564914E+02  0.00000000000E+00 0.  1.
</event>
<event>
 7    1  0.3196678E-013  0.7246166E+02  0.7816164E-02  0.1226708E+00
        -11   -1    0    0    0    0  0.00000000000E+00  0.00000000000E+00  0.45593999997E+02  0.45594000000E+02  0.51100000000E-03 0. -1.
         11   -1    0    0    0    0 -0.00000000000E+00 -0.00000000000E+00 -0.45593999997E+02  0.45594000000E+02  0.51100000000E-03 0.  1.
    9900012    2    1    2    0    0  0.69010591334E+01  0.90382929335E+01 -0.14878186473E+02  0.72461660554E+02  0.70000117580E+02 0.  0.
         12    1    1    2    0    0 -0.69010591334E+01 -0.90382929335E+01  0.14878186473E+02  0.18726339446E+02  0.00000000000E+00 0. -1.
         11    1    3    3    0    0 -0.13200282922E+02 -0.85534463784E+01 -0.46100249909E+01  0.16390889080E+02  0.51100000000E-03 0. -1.
        -11    1    3    3    0    0 -0.14903962091E+02  0.80435482761E+01 -0.10231473397E+02  0.19786606657E+02  0.51100000000E-03 0.  1.
        -12    1    3    3    0    0  0.35005304146E+02  0.95481910358E+01 -0.36688085047E-01  0.36284164817E+02  0.00000000000E+00 0.  1.
</event>
<event>
 7    1  0.6372238E-013  0.7246155E+02  0.7816164E-02  0.1226708E+00
        -11   -1    0    0    0    0  0.00000000000E+00  0.00000000000E+00  0.45593999997E+02  0.45594000000E+02  0.51100000000E-03 0. -1.
         11   -1    0    0    0    0 -0.00000000000E+00 -0.00000000000E+00 -0.45593999997E+02  0.45594000000E+02  0.51100000000E-03 0.  1.
    9900012    2    1    2    0    0 -0.23396859289E+01  0.14945904225E+02 -0.11037471924E+02  0.72461548926E+02  0.69999972164E+02 0.  0.
         12    1    1    2    0    0  0.23396859289E+01 -0.14945904225E+02  0.11037471924E+02  0.18726451074E+02  0.00000000000E+00 0. -1.
         11    1    3    3    0    0  0.17173756395E+01  0.62732586781E+01 -0.16753011939E+01  0.67163820530E+01  0.51100000000E-03 0. -1.
        -11    1    3    3    0    0 -0.12095607561E+02  0.17797762997E+02 -0.32864616839E+02  0.39282911428E+02  0.51100000000E-03 0.  1.
         12    1    3    3    0    0  0.80385459921E+01 -0.91251174502E+01  0.23502446109E+02  0.26462255445E+02  0.00000000000E+00 0. -1.
</event>
<event>
 7    1  0.3196678E-013  0.7246150E+02  0.7816164E-02  0.1226708E+00
        -11   -1    0    0    0    0  0.00000000000E+00  0.00000000000E+00  0.45593999997E+02  0.45594000000E+02  0.51100000000E-03 0.  1.
         11   -1    0    0    0    0 -0.00000000000E+00 -0.00000000000E+00 -0.45593999997E+02  0.45594000000E+02  0.51100000000E-03 0. -1.
    9900012    2    1    2    0    0 -0.12085706452E+02 -0.12233620103E+02  0.74132260039E+01  0.72461503235E+02  0.69999912643E+02 0.  0.
         12    1    1    2    0    0  0.12085706452E+02  0.12233620103E+02 -0.74132260039E+01  0.18726496765E+02  0.00000000000E+00 0. -1.
         11    1    3    3    0    0 -0.24446069410E+02 -0.38306420791E+01 -0.21170562788E+01  0.24834775133E+02  0.51100000000E-03 0. -1.
        -11    1    3    3    0    0 -0.15192778444E+02 -0.10554346719E+02  0.34147240708E+00  0.18502198658E+02  0.51100000000E-03 0.  1.
        -12    1    3    3    0    0  0.27553141402E+02  0.21513686949E+01  0.91888098756E+01  0.29124529444E+02  0.00000000000E+00 0.  1.
</event>
<event>
 7    1  0.3196678E-013  0.7246154E+02  0.7816164E-02  0.1226708E+00
        -11   -1    0    0    0    0  0.00000000000E+00  0.00000000000E+00  0.45593999997E+02  0.45594000000E+02  0.51100000000E-03 0. -1.
         11   -1    0    0    0    0 -0.00000000000E+00 -0.00000000000E+00 -0.45593999997E+02  0.45594000000E+02  0.51100000000E-03 0.  1.
    9900012    2    1    2    0    0  0.15092754961E+02  0.76504495584E+01  0.80224374193E+01  0.72461544572E+02  0.69999966491E+02 0.  0.
         12    1    1    2    0    0 -0.15092754961E+02 -0.76504495584E+01 -0.80224374193E+01  0.18726455428E+02  0.00000000000E+00 0. -1.
         11    1    3    3    0    0  0.27906463628E+01  0.41438296035E+01  0.32930947920E+01  0.59836029678E+01  0.51100000000E-03 0. -1.
        -11    1    3    3    0    0  0.37257731512E+02  0.36620483817E+01 -0.82690433201E+01  0.38339617023E+02  0.51100000000E-03 0.  1.
         12    1    3    3    0    0 -0.24955622913E+02 -0.15542842688E+00  0.12998385947E+02  0.28138324581E+02  0.00000000000E+00 0. -1.
</event>
<event>
 7    1  0.3196678E-013  0.7246150E+02  0.7816164E-02  0.1226708E+00
        -11   -1    0    0    0    0  0.00000000000E+00  0.00000000000E+00  0.45593999997E+02  0.45594000000E+02  0.51100000000E-03 0. -1.
         11   -1    0    0    0    0 -0.00000000000E+00 -0.00000000000E+00 -0.45593999997E+02  0.45594000000E+02  0.51100000000E-03 0.  1.
    9900012    2    1    2    0    0  0.14549033406E+01  0.18087100859E+02 -0.46283905672E+01  0.72461495775E+02  0.69999902925E+02 0.  0.
         12    1    1    2    0    0 -0.14549033406E+01 -0.18087100859E+02  0.46283905672E+01  0.18726504225E+02  0.00000000000E+00 0. -1.
         11    1    3    3    0    0  0.84542072967E+01  0.85393499854E+01 -0.77839559434E+01  0.14317265436E+02  0.51100000000E-03 0. -1.
        -11    1    3    3    0    0  0.16465314460E+02  0.23539596494E+02 -0.59707888274E+01  0.29340577753E+02  0.51100000000E-03 0.  1.
         12    1    3    3    0    0 -0.23464618416E+02 -0.13991845620E+02  0.91263542037E+01  0.28803652586E+02  0.00000000000E+00 0. -1.
</event>
<event>
 7    1  0.3196678E-013  0.7246154E+02  0.7816164E-02  0.1226708E+00
        -11   -1    0    0    0    0  0.00000000000E+00  0.00000000000E+00  0.45593999997E+02  0.45594000000E+02  0.51100000000E-03 0.  1.
         11   -1    0    0    0    0 -0.00000000000E+00 -0.00000000000E+00 -0.45593999997E+02  0.45594000000E+02  0.51100000000E-03 0. -1.
    9900012    2    1    2    0    0  0.14261197533E+02 -0.21952441000E+01  0.11936477410E+02  0.72461538917E+02  0.69999959126E+02 0.  0.
         12    1    1    2    0    0 -0.14261197533E+02  0.21952441000E+01 -0.11936477410E+02  0.18726461083E+02  0.00000000000E+00 0. -1.
         11    1    3    3    0    0  0.11695542362E+02 -0.49946661513E+01 -0.16266421860E+02  0.20647733083E+02  0.51100000000E-03 0. -1.
        -11    1    3    3    0    0 -0.22515063691E+01  0.14302729793E+02 -0.57989814568E+01  0.15596972355E+02  0.51100000000E-03 0.  1.
        -12    1    3    3    0    0  0.48171615393E+01 -0.11503307742E+02  0.34001880726E+02  0.36216833479E+02  0.00000000000E+00 0.  1.
</event>
<event>
 7    1  0.3196678E-013  0.7246159E+02  0.7816164E-02  0.1226708E+00
        -11   -1    0    0    0    0  0.00000000000E+00  0.00000000000E+00  0.45593999997E+02  0.45594000000E+02  0.51100000000E-03 0.  1.
         11   -1    0    0    0    0 -0.00000000000E+00 -0.00000000000E+00 -0.45593999997E+02  0.45594000000E+02  0.51100000000E-03 0. -1.
    9900012    2    1    2    0    0  0.52329688611E+01 -0.15992939885E+02  0.82170709000E+01  0.72461592351E+02  0.70000028732E+02 0.  0.
         12    1    1    2    0    0 -0.52329688611E+01  0.15992939885E+02 -0.82170709000E+01  0.18726407649E+02  0.00000000000E+00 0. -1.
         11    1    3    3    0    0  0.12829039803E+02  0.22180917940E+02 -0.11001714121E+01  0.25647373361E+02  0.51100000000E-03 0. -1.
        -11    1    3    3    0    0  0.31486560480E+00 -0.92027973606E+01 -0.79561210309E+01  0.12169243269E+02  0.51100000000E-03 0.  1.
        -12    1    3    3    0    0 -0.79109365463E+01 -0.28971060465E+02  0.17273363343E+02  0.34644975721E+02  0.00000000000E+00 0.  1.
</event>
<event>
 7    1  0.3196678E-013  0.7246141E+02  0.7816164E-02  0.1226708E+00
        -11   -1    0    0    0    0  0.00000000000E+00  0.00000000000E+00  0.45593999997E+02  0.45594000000E+02  0.51100000000E-03 0. -1.
         11   -1    0    0    0    0 -0.00000000000E+00 -0.00000000000E+00 -0.45593999997E+02  0.45594000000E+02  0.51100000000E-03 0.  1.
    9900012    2    1    2    0    0 -0.77745192791E+01  0.12932652721E+02 -0.11090017317E+02  0.72461410869E+02  0.69999792318E+02 0.  0.
         12    1    1    2    0    0  0.77745192791E+01 -0.12932652721E+02  0.11090017317E+02  0.18726589131E+02  0.00000000000E+00 0. -1.
         11    1    3    3    0    0 -0.20397430203E+02 -0.13441142353E+02  0.53003294948E+01  0.24996258913E+02  0.51100000000E-03 0. -1.
        -11    1    3    3    0    0  0.11041999611E+02  0.19828422872E+02  0.64974547623E+01  0.23607393496E+02  0.51100000000E-03 0.  1.
        -12    1    3    3    0    0  0.15809113131E+01  0.65453722017E+01 -0.22887801574E+02  0.23857758460E+02  0.00000000000E+00 0.  1.
</event>
<event>
 7    1  0.3196678E-013  0.7246155E+02  0.7816164E-02  0.1226708E+00
        -11   -1    0    0    0    0  0.00000000000E+00  0.00000000000E+00  0.45593999997E+02  0.45594000000E+02  0.51100000000E-03 0. -1.
         11   -1    0    0    0    0 -0.00000000000E+00 -0.00000000000E+00 -0.45593999997E+02  0.45594000000E+02  0.51100000000E-03 0.  1.
    9900012    2    1    2    0    0 -0.14644146653E+02  0.25784829300E+01 -0.11383330277E+02  0.72461553097E+02  0.69999977597E+02 0.  0.
         12    1    1    2    0    0  0.14644146653E+02 -0.25784829300E+01  0.11383330277E+02  0.18726446903E+02  0.00000000000E+00 0. -1.
         11    1    3    3    0    0  0.17835444290E+01 -0.28262287956E+02 -0.52494266932E+01  0.28800944986E+02  0.51100000000E-03 0. -1.
        -11    1    3    3    0    0 -0.21702597865E+01 -0.27418249167E+01  0.44623367778E+01  0.56692222743E+01  0.51100000000E-03 0.  1.
        -12    1    3    3    0    0 -0.14257431295E+02  0.33582595803E+02 -0.10596240362E+02  0.37991385837E+02  0.00000000000E+00 0.  1.
</event>
<event>
 7    1  0.3196678E-013  0.7246153E+02  0.7816164E-02  0.1226708E+00
        -11   -1    0    0    0    0  0.00000000000E+00  0.00000000000E+00  0.45593999997E+02  0.45594000000E+02  0.51100000000E-03 0. -1.
         11   -1    0    0    0    0 -0.00000000000E+00 -0.00000000000E+00 -0.45593999997E+02  0.45594000000E+02  0.51100000000E-03 0.  1.
    9900012    2    1    2    0    0 -0.84830025121E+01  0.30783570696E+01 -0.16408629235E+02  0.72461528703E+02  0.69999945820E+02 0.  0.
         12    1    1    2    0    0  0.84830025121E+01 -0.30783570696E+01  0.16408629235E+02  0.18726471297E+02  0.00000000000E+00 0. -1.
         11    1    3    3    0    0 -0.14769361910E+02  0.29818381301E+02  0.40881522003E+01  0.33525854252E+02  0.51100000000E-03 0. -1.
        -11    1    3    3    0    0  0.53487141362E+01 -0.29296715105E+01  0.17411151738E+01  0.63421763126E+01  0.51100000000E-03 0.  1.
        -12    1    3    3    0    0  0.93764526135E+00 -0.23810352721E+02 -0.22237896609E+02  0.32593498139E+02  0.00000000000E+00 0.  1.
</event>
<event>
 7    1  0.3196678E-013  0.7246160E+02  0.7816164E-02  0.1226708E+00
        -11   -1    0    0    0    0  0.00000000000E+00  0.00000000000E+00  0.45593999997E+02  0.45594000000E+02  0.51100000000E-03 0. -1.
         11   -1    0    0    0    0 -0.00000000000E+00 -0.00000000000E+00 -0.45593999997E+02  0.45594000000E+02  0.51100000000E-03 0.  1.
    9900012    2    1    2    0    0 -0.15003019019E+02  0.96330427168E+01 -0.57264424024E+01  0.72461595266E+02  0.70000032531E+02 0.  0.
         12    1    1    2    0    0  0.15003019019E+02 -0.96330427168E+01  0.57264424024E+01  0.18726404734E+02  0.00000000000E+00 0. -1.
         11    1    3    3    0    0  0.15849621528E+02  0.84923222605E+01 -0.38123361105E+01  0.18381075780E+02  0.51100000000E-03 0. -1.
        -11    1    3    3    0    0 -0.78154126891E+01  0.13523571716E+02 -0.17640868824E+02  0.23562001625E+02  0.51100000000E-03 0.  1.
         12    1    3    3    0    0 -0.23037227858E+02 -0.12382851259E+02  0.15726762532E+02  0.30518517861E+02  0.00000000000E+00 0. -1.
</event>
<event>
 7    1  0.3196678E-013  0.7246143E+02  0.7816164E-02  0.1226708E+00
        -11   -1    0    0    0    0  0.00000000000E+00  0.00000000000E+00  0.45593999997E+02  0.45594000000E+02  0.51100000000E-03 0. -1.
         11   -1    0    0    0    0 -0.00000000000E+00 -0.00000000000E+00 -0.45593999997E+02  0.45594000000E+02  0.51100000000E-03 0.  1.
    9900012    2    1    2    0    0  0.55591693056E+01 -0.12295731959E+02 -0.12984419308E+02  0.72461427101E+02  0.69999813464E+02 0.  0.
         12    1    1    2    0    0 -0.55591693056E+01  0.12295731959E+02  0.12984419308E+02  0.18726572899E+02  0.00000000000E+00 0. -1.
         11    1    3    3    0    0 -0.59927750202E+00  0.23802912026E-01 -0.30344314428E+00  0.67214440857E+00  0.51100000000E-03 0. -1.
        -11    1    3    3    0    0 -0.12393913005E+02 -0.25245862016E+02 -0.31603006110E+02  0.42304995260E+02  0.51100000000E-03 0.  1.
         12    1    3    3    0    0  0.18552359812E+02  0.12926327145E+02  0.18922029947E+02  0.29484287432E+02  0.00000000000E+00 0. -1.
</event>
<event>
 7    1  0.3196678E-013  0.7246155E+02  0.7816164E-02  0.1226708E+00
        -11   -1    0    0    0    0  0.00000000000E+00  0.00000000000E+00  0.45593999997E+02  0.45594000000E+02  0.51100000000E-03 0. -1.
         11   -1    0    0    0    0 -0.00000000000E+00 -0.00000000000E+00 -0.45593999997E+02  0.45594000000E+02  0.51100000000E-03 0.  1.
    9900012    2    1    2    0    0  0.16856357431E+01 -0.17972561845E+02 -0.49825461255E+01  0.72461545103E+02  0.69999967184E+02 0.  0.
         12    1    1    2    0    0 -0.16856357431E+01  0.17972561845E+02  0.49825461255E+01  0.18726454897E+02  0.00000000000E+00 0. -1.
         11    1    3    3    0    0 -0.49101156089E+01 -0.49980449342E+01  0.97266329938E+01  0.11987371610E+02  0.51100000000E-03 0. -1.
        -11    1    3    3    0    0 -0.17369824283E+02 -0.22025546595E+02 -0.19826825694E+02  0.34350233125E+02  0.51100000000E-03 0.  1.
         12    1    3    3    0    0  0.23965575635E+02  0.90510296846E+01  0.51176465744E+01  0.26123940368E+02  0.00000000000E+00 0. -1.
</event>
<event>
 7    1  0.3196678E-013  0.7246159E+02  0.7816164E-02  0.1226708E+00
        -11   -1    0    0    0    0  0.00000000000E+00  0.00000000000E+00  0.45593999997E+02  0.45594000000E+02  0.51100000000E-03 0. -1.
         11   -1    0    0    0    0 -0.00000000000E+00 -0.00000000000E+00 -0.45593999997E+02  0.45594000000E+02  0.51100000000E-03 0.  1.
    9900012    2    1    2    0    0 -0.14731554108E+02 -0.93160472255E+01 -0.68462417696E+01  0.72461589540E+02  0.70000025071E+02 0.  0.
         12    1    1    2    0    0  0.14731554108E+02  0.93160472255E+01  0.68462417696E+01  0.18726410460E+02  0.00000000000E+00 0. -1.
         11    1    3    3    0    0  0.23209155917E+01  0.87044623798E+01 -0.22621729322E+01  0.92882582404E+01  0.51100000000E-03 0. -1.
        -11    1    3    3    0    0 -0.64053669240E+01  0.21238938560E+02  0.42945394887E+00  0.22187962221E+02  0.51100000000E-03 0.  1.
         12    1    3    3    0    0 -0.10647102776E+02 -0.39259448165E+02 -0.50135227863E+01  0.40985369078E+02  0.00000000000E+00 0. -1.
</event>
<event>
 7    1  0.3196678E-013  0.7246197E+02  0.7816164E-02  0.1226707E+00
        -11   -1    0    0    0    0  0.00000000000E+00  0.00000000000E+00  0.45593999997E+02  0.45594000000E+02  0.51100000000E-03 0.  1.
         11   -1    0    0    0    0 -0.00000000000E+00 -0.00000000000E+00 -0.45593999997E+02  0.45594000000E+02  0.51100000000E-03 0. -1.
    9900012    2    1    2    0    0 -0.53522295149E+01  0.82949796593E+01 -0.15912604016E+02  0.72461974931E+02  0.70000527112E+02 0.  0.
         12    1    1    2    0    0  0.53522295149E+01 -0.82949796593E+01  0.15912604016E+02  0.18726025069E+02  0.00000000000E+00 0. -1.
         11    1    3    3    0    0  0.21135914781E+01  0.24948525096E+02 -0.27276478283E+02  0.37025699739E+02  0.51100000000E-03 0. -1.
        -11    1    3    3    0    0  0.75339837066E+01  0.14412177368E+01 -0.25979766687E+01  0.80986111209E+01  0.51100000000E-03 0.  1.
        -12    1    3    3    0    0 -0.14999804700E+02 -0.18094763173E+02  0.13961850936E+02  0.27337664071E+02  0.00000000000E+00 0.  1.
</event>
<event>
 7    1  0.3196678E-013  0.7246157E+02  0.7816164E-02  0.1226708E+00
        -11   -1    0    0    0    0  0.00000000000E+00  0.00000000000E+00  0.45593999997E+02  0.45594000000E+02  0.51100000000E-03 0.  1.
         11   -1    0    0    0    0 -0.00000000000E+00 -0.00000000000E+00 -0.45593999997E+02  0.45594000000E+02  0.51100000000E-03 0. -1.
    9900012    2    1    2    0    0  0.96407059036E+01  0.97427866174E+01  0.12759861871E+02  0.72461570112E+02  0.69999999762E+02 0.  0.
         12    1    1    2    0    0 -0.96407059036E+01 -0.97427866174E+01 -0.12759861871E+02  0.18726429888E+02  0.00000000000E+00 0. -1.
         11    1    3    3    0    0  0.16048615220E+02  0.21697981957E+02  0.14539785161E+02  0.30655600211E+02  0.51100000000E-03 0.  1.
        -11    1    3    3    0    0 -0.16366447993E+02 -0.11654287612E+02  0.13036972945E+02  0.23950901935E+02  0.51100000000E-03 0. -1.
        -12    1    3    3    0    0  0.99585386763E+01 -0.30090772763E+00 -0.14816896235E+02  0.17855067966E+02  0.00000000000E+00 0.  1.
</event>
<event>
 7    1  0.3196678E-013  0.7246159E+02  0.7816164E-02  0.1226708E+00
        -11   -1    0    0    0    0  0.00000000000E+00  0.00000000000E+00  0.45593999997E+02  0.45594000000E+02  0.51100000000E-03 0. -1.
         11   -1    0    0    0    0 -0.00000000000E+00 -0.00000000000E+00 -0.45593999997E+02  0.45594000000E+02  0.51100000000E-03 0.  1.
    9900012    2    1    2    0    0  0.17937925624E+02  0.23790783483E+01  0.48217294648E+01  0.72461594458E+02  0.70000031478E+02 0.  0.
         12    1    1    2    0    0 -0.17937925624E+02 -0.23790783483E+01 -0.48217294648E+01  0.18726405542E+02  0.00000000000E+00 0. -1.
         11    1    3    3    0    0  0.47256205828E+01 -0.29395165611E+01  0.15275625794E+01  0.57711086631E+01  0.51100000000E-03 0. -1.
        -11    1    3    3    0    0  0.35691593823E+02  0.20473433107E+01  0.17597271303E+02  0.39846523585E+02  0.51100000000E-03 0.  1.
         12    1    3    3    0    0 -0.22479288781E+02  0.32712515987E+01 -0.14303104418E+02  0.26843962210E+02  0.00000000000E+00 0. -1.
</event>
<event>
 7    1  0.3196678E-013  0.7246153E+02  0.7816164E-02  0.1226708E+00
        -11   -1    0    0    0    0  0.00000000000E+00  0.00000000000E+00  0.45593999997E+02  0.45594000000E+02  0.51100000000E-03 0. -1.
         11   -1    0    0    0    0 -0.00000000000E+00 -0.00000000000E+00 -0.45593999997E+02  0.45594000000E+02  0.51100000000E-03 0.  1.
    9900012    2    1    2    0    0  0.12173031225E+02  0.69405157088E+01 -0.12422851674E+02  0.72461529665E+02  0.69999947072E+02 0.  0.
         12    1    1    2    0    0 -0.12173031225E+02 -0.69405157088E+01  0.12422851674E+02  0.18726470335E+02  0.00000000000E+00 0. -1.
         11    1    3    3    0    0  0.54360020300E+01 -0.18965063823E+01  0.10260775292E+02  0.11765643390E+02  0.51100000000E-03 0. -1.
        -11    1    3    3    0    0 -0.59756063762E+01  0.14538569843E+02  0.14253226326E+02  0.21218679167E+02  0.51100000000E-03 0.  1.
         12    1    3    3    0    0  0.12712635572E+02 -0.57015477522E+01 -0.36936853291E+02  0.39477207107E+02  0.00000000000E+00 0. -1.
</event>
<event>
 7    1  0.3196678E-013  0.7246156E+02  0.7816164E-02  0.1226708E+00
        -11   -1    0    0    0    0  0.00000000000E+00  0.00000000000E+00  0.45593999997E+02  0.45594000000E+02  0.51100000000E-03 0. -1.
         11   -1    0    0    0    0 -0.00000000000E+00 -0.00000000000E+00 -0.45593999997E+02  0.45594000000E+02  0.51100000000E-03 0.  1.
    9900012    2    1    2    0    0  0.18341173214E+02 -0.30441095036E+01  0.22392350355E+01  0.72461563844E+02  0.69999991598E+02 0.  0.
         12    1    1    2    0    0 -0.18341173214E+02  0.30441095036E+01 -0.22392350355E+01  0.18726436156E+02  0.00000000000E+00 0. -1.
         11    1    3    3    0    0  0.23342486957E+02 -0.11922234255E+02  0.13441505093E+02  0.29456500580E+02  0.51100000000E-03 0. -1.
        -11    1    3    3    0    0  0.14929108319E+02  0.93699374203E+00  0.53725423318E+01  0.15894037997E+02  0.51100000000E-03 0.  1.
         12    1    3    3    0    0 -0.19930422062E+02  0.79411310098E+01 -0.16574812390E+02  0.27111025267E+02  0.00000000000E+00 0. -1.
</event>
<event>
 7    1  0.3196678E-013  0.7246157E+02  0.7816164E-02  0.1226708E+00
        -11   -1    0    0    0    0  0.00000000000E+00  0.00000000000E+00  0.45593999997E+02  0.45594000000E+02  0.51100000000E-03 0. -1.
         11   -1    0    0    0    0 -0.00000000000E+00 -0.00000000000E+00 -0.45593999997E+02  0.45594000000E+02  0.51100000000E-03 0.  1.
    9900012    2    1    2    0    0  0.10212535238E+02 -0.14688455989E+02 -0.55346615375E+01  0.72461572320E+02  0.70000002639E+02 0.  0.
         12    1    1    2    0    0 -0.10212535238E+02  0.14688455989E+02  0.55346615375E+01  0.18726427680E+02  0.00000000000E+00 0. -1.
         11    1    3    3    0    0  0.19742729378E+02  0.13689344654E+02  0.11828014615E+02  0.26778264514E+02  0.51100000000E-03 0. -1.
        -11    1    3    3    0    0  0.28536097951E+01 -0.11244254324E+02  0.69039612081E+01  0.13499667581E+02  0.51100000000E-03 0.  1.
        -12    1    3    3    0    0 -0.12383803935E+02 -0.17133546319E+02 -0.24266637361E+02  0.32183640225E+02  0.00000000000E+00 0.  1.
</event>
<event>
 7    1  0.3196678E-013  0.7246146E+02  0.7816164E-02  0.1226708E+00
        -11   -1    0    0    0    0  0.00000000000E+00  0.00000000000E+00  0.45593999997E+02  0.45594000000E+02  0.51100000000E-03 0. -1.
         11   -1    0    0    0    0 -0.00000000000E+00 -0.00000000000E+00 -0.45593999997E+02  0.45594000000E+02  0.51100000000E-03 0.  1.
    9900012    2    1    2    0    0 -0.15923631994E+02  0.46523070488E+00 -0.98440190533E+01  0.72461462503E+02  0.69999859582E+02 0.  0.
         12    1    1    2    0    0  0.15923631994E+02 -0.46523070488E+00  0.98440190533E+01  0.18726537497E+02  0.00000000000E+00 0. -1.
         11    1    3    3    0    0  0.10187621595E+02 -0.14254773354E+02 -0.34677552546E+01  0.17860893704E+02  0.51100000000E-03 0. -1.
        -11    1    3    3    0    0 -0.39861704109E+01 -0.11835578449E+02 -0.14456522007E+02  0.19103965572E+02  0.51100000000E-03 0.  1.
         12    1    3    3    0    0 -0.22125083178E+02  0.26555582508E+02  0.80802582088E+01  0.35496603227E+02  0.00000000000E+00 0. -1.
</event>
<event>
 7    1  0.3196678E-013  0.7246152E+02  0.7816164E-02  0.1226708E+00
        -11   -1    0    0    0    0  0.00000000000E+00  0.00000000000E+00  0.45593999997E+02  0.45594000000E+02  0.51100000000E-03 0.  1.
         11   -1    0    0    0    0 -0.00000000000E+00 -0.00000000000E+00 -0.45593999997E+02  0.45594000000E+02  0.51100000000E-03 0. -1.
    9900012    2    1    2    0    0  0.65286835730E+01 -0.62841690579E-01  0.17551451786E+02  0.72461518268E+02  0.69999932226E+02 0.  0.
         12    1    1    2    0    0 -0.65286835730E+01  0.62841690579E-01 -0.17551451786E+02  0.18726481732E+02  0.00000000000E+00 0. -1.
         11    1    3    3    0    0 -0.23798715464E+02  0.24132275731E+01 -0.10360165992E+02  0.26067902960E+02  0.51100000000E-03 0. -1.
        -11    1    3    3    0    0 -0.27859901560E+01  0.17767691326E+01  0.83442840026E+00  0.34080670058E+01  0.51100000000E-03 0.  1.
        -12    1    3    3    0    0  0.33113389193E+02 -0.42528383962E+01  0.27077189378E+02  0.42985548303E+02  0.00000000000E+00 0.  1.
</event>
<event>
 7    1  0.3196678E-013  0.7246161E+02  0.7816164E-02  0.1226708E+00
        -11   -1    0    0    0    0  0.00000000000E+00  0.00000000000E+00  0.45593999997E+02  0.45594000000E+02  0.51100000000E-03 0.  1.
         11   -1    0    0    0    0 -0.00000000000E+00 -0.00000000000E+00 -0.45593999997E+02  0.45594000000E+02  0.51100000000E-03 0. -1.
    9900012    2    1    2    0    0 -0.47878609119E+01 -0.17704093015E+02 -0.37840585575E+01  0.72461611646E+02  0.70000053869E+02 0.  0.
         12    1    1    2    0    0  0.47878609119E+01  0.17704093015E+02  0.37840585575E+01  0.18726388354E+02  0.00000000000E+00 0. -1.
         11    1    3    3    0    0  0.64389280433E+01  0.89091184127E+01 -0.14102982874E+02  0.17880892356E+02  0.51100000000E-03 0. -1.
        -11    1    3    3    0    0  0.14033454760E+02 -0.99400175624E+01  0.16338653410E+02  0.23721159271E+02  0.51100000000E-03 0.  1.
         12    1    3    3    0    0 -0.25260243715E+02 -0.16673193866E+02 -0.60197290933E+01  0.30859560019E+02  0.00000000000E+00 0. -1.
</event>
<event>
 7    1  0.3196678E-013  0.7246155E+02  0.7816164E-02  0.1226708E+00
        -11   -1    0    0    0    0  0.00000000000E+00  0.00000000000E+00  0.45593999997E+02  0.45594000000E+02  0.51100000000E-03 0. -1.
         11   -1    0    0    0    0 -0.00000000000E+00 -0.00000000000E+00 -0.45593999997E+02  0.45594000000E+02  0.51100000000E-03 0.  1.
    9900012    2    1    2    0    0  0.64791880350E+01 -0.59442821797E+01 -0.16533774320E+02  0.72461546478E+02  0.69999968975E+02 0.  0.
         12    1    1    2    0    0 -0.64791880350E+01  0.59442821797E+01  0.16533774320E+02  0.18726453522E+02  0.00000000000E+00 0. -1.
         11    1    3    3    0    0 -0.81794719772E+01 -0.60815768479E+01  0.51773198668E+01  0.11432146782E+02  0.51100000000E-03 0. -1.
        -11    1    3    3    0    0 -0.28203499132E+01  0.17875185848E+02  0.10026283296E+02  0.20688233364E+02  0.51100000000E-03 0.  1.
         12    1    3    3    0    0  0.17479009925E+02 -0.17737891180E+02 -0.31737377483E+02  0.40341166332E+02  0.00000000000E+00 0. -1.
</event>
<event>
 7    1  0.3196678E-013  0.7246155E+02  0.7816164E-02  0.1226708E+00
        -11   -1    0    0    0    0  0.00000000000E+00  0.00000000000E+00  0.45593999997E+02  0.45594000000E+02  0.51100000000E-03 0.  1.
         11   -1    0    0    0    0 -0.00000000000E+00 -0.00000000000E+00 -0.45593999997E+02  0.45594000000E+02  0.51100000000E-03 0. -1.
    9900012    2    1    2    0    0  0.56011113586E+01 -0.17673209795E+02  0.26391643462E+01  0.72461548618E+02  0.69999971762E+02 0.  0.
         12    1    1    2    0    0 -0.56011113586E+01  0.17673209795E+02 -0.26391643462E+01  0.18726451382E+02  0.00000000000E+00 0. -1.
         11    1    3    3    0    0  0.53880434613E+01  0.70037270798E+01 -0.29884733837E+01  0.93281390843E+01  0.51100000000E-03 0. -1.
        -11    1    3    3    0    0  0.71980479005E+01  0.18096754541E+02  0.30856413927E+01  0.19718661252E+02  0.51100000000E-03 0.  1.
         12    1    3    3    0    0 -0.69849800033E+01 -0.42773691416E+02  0.25419963373E+01  0.43414748282E+02  0.00000000000E+00 0. -1.
</event>
<event>
 7    1  0.3196678E-013  0.7246157E+02  0.7816164E-02  0.1226708E+00
        -11   -1    0    0    0    0  0.00000000000E+00  0.00000000000E+00  0.45593999997E+02  0.45594000000E+02  0.51100000000E-03 0. -1.
         11   -1    0    0    0    0 -0.00000000000E+00 -0.00000000000E+00 -0.45593999997E+02  0.45594000000E+02  0.51100000000E-03 0.  1.
    9900012    2    1    2    0    0 -0.12870815793E+02  0.10478328353E+02  0.86732929107E+01  0.72461567500E+02  0.69999996360E+02 0.  0.
         12    1    1    2    0    0  0.12870815793E+02 -0.10478328353E+02 -0.86732929107E+01  0.18726432500E+02  0.00000000000E+00 0. -1.
         11    1    3    3    0    0  0.11869427202E+02  0.51519231196E+01 -0.10098217435E+01  0.12978649935E+02  0.51100000000E-03 0. -1.
        -11    1    3    3    0    0 -0.67633174790E+01 -0.17569300274E+02 -0.12745490162E+02  0.22734781617E+02  0.51100000000E-03 0.  1.
         12    1    3    3    0    0 -0.17976925516E+02  0.22895705508E+02  0.22428604816E+02  0.36748135948E+02  0.00000000000E+00 0. -1.
</event>
<event>
 7    1  0.3196678E-013  0.7246166E+02  0.7816164E-02  0.1226708E+00
        -11   -1    0    0    0    0  0.00000000000E+00  0.00000000000E+00  0.45593999997E+02  0.45594000000E+02  0.51100000000E-03 0.  1.
         11   -1    0    0    0    0 -0.00000000000E+00 -0.00000000000E+00 -0.45593999997E+02  0.45594000000E+02  0.51100000000E-03 0. -1.
    9900012    2    1    2    0    0  0.22991771050E+01  0.63888933882E+01  0.17451983733E+02  0.72461657317E+02  0.70000113363E+02 0.  0.
         12    1    1    2    0    0 -0.22991771050E+01 -0.63888933882E+01 -0.17451983733E+02  0.18726342683E+02  0.00000000000E+00 0. -1.
         11    1    3    3    0    0 -0.26467994714E+02  0.45103074558E+01 -0.24917014280E+01  0.26964906709E+02  0.51100000000E-03 0.  1.
        -11    1    3    3    0    0 -0.35795004143E+01 -0.74156637799E+00 -0.38097506763E+01  0.52798621559E+01  0.51100000000E-03 0. -1.
        -12    1    3    3    0    0  0.32346672234E+02  0.26201523104E+01  0.23753435837E+02  0.40216888452E+02  0.00000000000E+00 0.  1.
</event>
<event>
 7    1  0.3196678E-013  0.7246160E+02  0.7816164E-02  0.1226708E+00
        -11   -1    0    0    0    0  0.00000000000E+00  0.00000000000E+00  0.45593999997E+02  0.45594000000E+02  0.51100000000E-03 0.  1.
         11   -1    0    0    0    0 -0.00000000000E+00 -0.00000000000E+00 -0.45593999997E+02  0.45594000000E+02  0.51100000000E-03 0. -1.
    9900012    2    1    2    0    0 -0.17885278909E+02 -0.51214685426E+01 -0.21367186747E+01  0.72461595957E+02  0.70000033431E+02 0.  0.
         12    1    1    2    0    0  0.17885278909E+02  0.51214685426E+01  0.21367186747E+01  0.18726404043E+02  0.00000000000E+00 0. -1.
         11    1    3    3    0    0  0.30178596020E+01  0.10894984618E+02  0.72994121671E+00  0.11328767843E+02  0.51100000000E-03 0. -1.
        -11    1    3    3    0    0  0.59082580003E+01  0.16044579927E+02 -0.82661995464E+01  0.18991211463E+02  0.51100000000E-03 0.  1.
         12    1    3    3    0    0 -0.26811396511E+02 -0.32061033087E+02  0.53995396549E+01  0.42141616651E+02  0.00000000000E+00 0. -1.
</event>
<event>
 7    1  0.3196678E-013  0.7246141E+02  0.7816164E-02  0.1226708E+00
        -11   -1    0    0    0    0  0.00000000000E+00  0.00000000000E+00  0.45593999997E+02  0.45594000000E+02  0.51100000000E-03 0.  1.
         11   -1    0    0    0    0 -0.00000000000E+00 -0.00000000000E+00 -0.45593999997E+02  0.45594000000E+02  0.51100000000E-03 0. -1.
    9900012    2    1    2    0    0 -0.50003647292E+01  0.11015680397E+02  0.14294625540E+02  0.72461409777E+02  0.69999790897E+02 0.  0.
         12    1    1    2    0    0  0.50003647292E+01 -0.11015680397E+02 -0.14294625540E+02  0.18726590223E+02  0.00000000000E+00 0. -1.
         11    1    3    3    0    0  0.36284050561E+01 -0.10830032946E+00 -0.11988344712E+01  0.38228597362E+01  0.51100000000E-03 0. -1.
        -11    1    3    3    0    0  0.27597994473E+02  0.68459982867E+01 -0.13343800675E+01  0.28465726091E+02  0.51100000000E-03 0.  1.
        -12    1    3    3    0    0 -0.36226764258E+02  0.42779824394E+01  0.16827840079E+02  0.40172823950E+02  0.00000000000E+00 0.  1.
</event>
<event>
 7    1  0.3196678E-013  0.7246159E+02  0.7816164E-02  0.1226708E+00
        -11   -1    0    0    0    0  0.00000000000E+00  0.00000000000E+00  0.45593999997E+02  0.45594000000E+02  0.51100000000E-03 0. -1.
         11   -1    0    0    0    0 -0.00000000000E+00 -0.00000000000E+00 -0.45593999997E+02  0.45594000000E+02  0.51100000000E-03 0.  1.
    9900012    2    1    2    0    0  0.38380131389E+01 -0.74042682561E+01 -0.16766780920E+02  0.72461588820E+02  0.70000024133E+02 0.  0.
         12    1    1    2    0    0 -0.38380131389E+01  0.74042682561E+01  0.16766780920E+02  0.18726411180E+02  0.00000000000E+00 0. -1.
         11    1    3    3    0    0  0.69018479309E+01 -0.91629718378E+01  0.20645551451E+02  0.23618517158E+02  0.51100000000E-03 0. -1.
        -11    1    3    3    0    0 -0.11179942587E+02  0.27037871458E+01 -0.10229858936E+01  0.11547643984E+02  0.51100000000E-03 0.  1.
        -12    1    3    3    0    0  0.81161077951E+01 -0.94508356406E+00 -0.36389346477E+02  0.37295427678E+02  0.00000000000E+00 0.  1.
</event>
<event>
 7    1  0.3196678E-013  0.7246158E+02  0.7816164E-02  0.1226708E+00
        -11   -1    0    0    0    0  0.00000000000E+00  0.00000000000E+00  0.45593999997E+02  0.45594000000E+02  0.51100000000E-03 0.  1.
         11   -1    0    0    0    0 -0.00000000000E+00 -0.00000000000E+00 -0.45593999997E+02  0.45594000000E+02  0.51100000000E-03 0. -1.
    9900012    2    1    2    0    0 -0.85006619254E+01 -0.25213331746E+01  0.16494255256E+02  0.72461579344E+02  0.70000011789E+02 0.  0.
         12    1    1    2    0    0  0.85006619254E+01  0.25213331746E+01 -0.16494255256E+02  0.18726420656E+02  0.00000000000E+00 0. -1.
         11    1    3    3    0    0  0.12399544738E+02 -0.26509037396E+02 -0.49663486316E+01  0.29684042723E+02  0.51100000000E-03 0. -1.
        -11    1    3    3    0    0 -0.18919232688E+02  0.95520536179E+01  0.17988429225E+02  0.27798609319E+02  0.51100000000E-03 0.  1.
        -12    1    3    3    0    0 -0.19809739751E+01  0.14435650603E+02  0.34721746621E+01  0.14978927302E+02  0.00000000000E+00 0.  1.
</event>
<event>
 7    1  0.3196678E-013  0.7246145E+02  0.7816164E-02  0.1226708E+00
        -11   -1    0    0    0    0  0.00000000000E+00  0.00000000000E+00  0.45593999997E+02  0.45594000000E+02  0.51100000000E-03 0. -1.
         11   -1    0    0    0    0 -0.00000000000E+00 -0.00000000000E+00 -0.45593999997E+02  0.45594000000E+02  0.51100000000E-03 0.  1.
    9900012    2    1    2    0    0 -0.89459571374E+01  0.94843569411E+00 -0.16424194824E+02  0.72461445191E+02  0.69999837030E+02 0.  0.
         12    1    1    2    0    0  0.89459571374E+01 -0.94843569411E+00  0.16424194824E+02  0.18726554809E+02  0.00000000000E+00 0. -1.
         11    1    3    3    0    0 -0.87743430712E+01 -0.15145911322E+02 -0.52986488800E+01  0.18288340721E+02  0.51100000000E-03 0. -1.
        -11    1    3    3    0    0 -0.71498787509E+01  0.33273957583E+02 -0.38361507756E+01  0.34248986444E+02  0.51100000000E-03 0.  1.
         12    1    3    3    0    0  0.69782646847E+01 -0.17179610567E+02 -0.72893951687E+01  0.19924118027E+02  0.00000000000E+00 0. -1.
</event>
<event>
 7    1  0.3196678E-013  0.7246184E+02  0.7816164E-02  0.1226707E+00
        -11   -1    0    0    0    0  0.00000000000E+00  0.00000000000E+00  0.45593999997E+02  0.45594000000E+02  0.51100000000E-03 0.  1.
         11   -1    0    0    0    0 -0.00000000000E+00 -0.00000000000E+00 -0.45593999997E+02  0.45594000000E+02  0.51100000000E-03 0. -1.
    9900012    2    1    2    0    0  0.14781278868E+02 -0.11048206178E+02  0.31811961658E+01  0.72461839855E+02  0.70000351152E+02 0.  0.
         12    1    1    2    0    0 -0.14781278868E+02  0.11048206178E+02 -0.31811961658E+01  0.18726160145E+02  0.00000000000E+00 0. -1.
         11    1    3    3    0    0 -0.39052050431E+01 -0.13073939000E+02 -0.16814000821E+01  0.13747931259E+02  0.51100000000E-03 0. -1.
        -11    1    3    3    0    0  0.88931130968E+01 -0.89143626878E+01  0.28346587969E+02  0.31017452707E+02  0.51100000000E-03 0.  1.
        -12    1    3    3    0    0  0.97933708144E+01  0.10940095510E+02 -0.23483991721E+02  0.27696455889E+02  0.00000000000E+00 0.  1.
</event>
<event>
 7    1  0.3196678E-013  0.7246148E+02  0.7816164E-02  0.1226708E+00
        -11   -1    0    0    0    0  0.00000000000E+00  0.00000000000E+00  0.45593999997E+02  0.45594000000E+02  0.51100000000E-03 0.  1.
         11   -1    0    0    0    0 -0.00000000000E+00 -0.00000000000E+00 -0.45593999997E+02  0.45594000000E+02  0.51100000000E-03 0. -1.
    9900012    2    1    2    0    0 -0.13801069493E+02  0.39106631887E+01  0.12038261096E+02  0.72461480410E+02  0.69999882909E+02 0.  0.
         12    1    1    2    0    0  0.13801069493E+02 -0.39106631887E+01 -0.12038261096E+02  0.18726519590E+02  0.00000000000E+00 0. -1.
         11    1    3    3    0    0  0.17848263863E+02 -0.38641150334E+01 -0.12373593815E+01  0.18303632602E+02  0.51100000000E-03 0. -1.
        -11    1    3    3    0    0  0.43419850199E+01  0.95942619345E+01  0.14711130196E+02  0.18091988500E+02  0.51100000000E-03 0.  1.
        -12    1    3    3    0    0 -0.35991318377E+02 -0.18194837124E+01 -0.14355097188E+01  0.36065859308E+02  0.00000000000E+00 0.  1.
</event>
<event>
 7    1  0.3196678E-013  0.7246170E+02  0.7816164E-02  0.1226708E+00
        -11   -1    0    0    0    0  0.00000000000E+00  0.00000000000E+00  0.45593999997E+02  0.45594000000E+02  0.51100000000E-03 0.  1.
         11   -1    0    0    0    0 -0.00000000000E+00 -0.00000000000E+00 -0.45593999997E+02  0.45594000000E+02  0.51100000000E-03 0. -1.
    9900012    2    1    2    0    0 -0.11494442294E+02 -0.16153997107E+01  0.14694985070E+02  0.72461700150E+02  0.70000169161E+02 0.  0.
         12    1    1    2    0    0  0.11494442294E+02  0.16153997107E+01 -0.14694985070E+02  0.18726299850E+02  0.00000000000E+00 0. -1.
         11    1    3    3    0    0 -0.11508703033E+02  0.17783941272E+02 -0.40750606956E+01  0.21571391531E+02  0.51100000000E-03 0. -1.
        -11    1    3    3    0    0 -0.11725930887E+02 -0.16460742163E+02 -0.78241134171E+01  0.21671876678E+02  0.51100000000E-03 0.  1.
        -12    1    3    3    0    0  0.11740191626E+02 -0.29385988195E+01  0.26594159182E+02  0.29218431940E+02  0.00000000000E+00 0.  1.
</event>
<event>
 7    1  0.3196678E-013  0.7246160E+02  0.7816164E-02  0.1226708E+00
        -11   -1    0    0    0    0  0.00000000000E+00  0.00000000000E+00  0.45593999997E+02  0.45594000000E+02  0.51100000000E-03 0.  1.
         11   -1    0    0    0    0 -0.00000000000E+00 -0.00000000000E+00 -0.45593999997E+02  0.45594000000E+02  0.51100000000E-03 0. -1.
    9900012    2    1    2    0    0  0.14344589007E+02 -0.71113222842E+01  0.97128752425E+01  0.72461599281E+02  0.70000037761E+02 0.  0.
         12    1    1    2    0    0 -0.14344589007E+02  0.71113222842E+01 -0.97128752425E+01  0.18726400719E+02  0.00000000000E+00 0. -1.
         11    1    3    3    0    0 -0.27574420919E+01  0.40423793864E+01 -0.21692531536E+02  0.22237586260E+02  0.51100000000E-03 0. -1.
        -11    1    3    3    0    0  0.18030198325E+01 -0.20349143669E+02  0.11328805487E+02  0.23359802281E+02  0.51100000000E-03 0.  1.
        -12    1    3    3    0    0  0.15299011266E+02  0.91954419983E+01  0.20076601291E+02  0.26864210740E+02  0.00000000000E+00 0.  1.
</event>
<event>
 7    1  0.3196678E-013  0.7246156E+02  0.7816164E-02  0.1226708E+00
        -11   -1    0    0    0    0  0.00000000000E+00  0.00000000000E+00  0.45593999997E+02  0.45594000000E+02  0.51100000000E-03 0. -1.
         11   -1    0    0    0    0 -0.00000000000E+00 -0.00000000000E+00 -0.45593999997E+02  0.45594000000E+02  0.51100000000E-03 0.  1.
    9900012    2    1    2    0    0  0.23413820907E+01 -0.81385375410E+01 -0.16702141995E+02  0.72461563857E+02  0.69999991614E+02 0.  0.
         12    1    1    2    0    0 -0.23413820907E+01  0.81385375410E+01  0.16702141995E+02  0.18726436143E+02  0.00000000000E+00 0. -1.
         11    1    3    3    0    0 -0.89651389963E+01  0.14855873354E+02  0.19573844661E+02  0.26157333301E+02  0.51100000000E-03 0. -1.
        -11    1    3    3    0    0  0.78924939867E+01 -0.12536363281E+02 -0.10152991069E+02  0.17959262055E+02  0.51100000000E-03 0.  1.
        -12    1    3    3    0    0  0.34140271003E+01 -0.10458047614E+02 -0.26122995586E+02  0.28344968501E+02  0.00000000000E+00 0.  1.
</event>
<event>
 7    1  0.3196678E-013  0.7246159E+02  0.7816164E-02  0.1226708E+00
        -11   -1    0    0    0    0  0.00000000000E+00  0.00000000000E+00  0.45593999997E+02  0.45594000000E+02  0.51100000000E-03 0. -1.
         11   -1    0    0    0    0 -0.00000000000E+00 -0.00000000000E+00 -0.45593999997E+02  0.45594000000E+02  0.51100000000E-03 0.  1.
    9900012    2    1    2    0    0  0.11509128752E+02 -0.14772015384E+02 -0.78319657658E-01  0.72461585044E+02  0.70000019214E+02 0.  0.
         12    1    1    2    0    0 -0.11509128752E+02  0.14772015384E+02  0.78319657658E-01  0.18726414956E+02  0.00000000000E+00 0. -1.
         11    1    3    3    0    0 -0.68800085154E+01  0.67287121298E+01  0.87570658015E+01  0.13011390618E+02  0.51100000000E-03 0. -1.
        -11    1    3    3    0    0  0.24573102487E+02  0.98164932620E+01 -0.53476332364E+00  0.26466712639E+02  0.51100000000E-03 0.  1.
        -12    1    3    3    0    0 -0.61839652205E+01 -0.31317220776E+02 -0.83006221355E+01  0.32983481788E+02  0.00000000000E+00 0.  1.
</event>
<event>
 7    1  0.3196678E-013  0.7246157E+02  0.7816164E-02  0.1226708E+00
        -11   -1    0    0    0    0  0.00000000000E+00  0.00000000000E+00  0.45593999997E+02  0.45594000000E+02  0.51100000000E-03 0.  1.
         11   -1    0    0    0    0 -0.00000000000E+00 -0.00000000000E+00 -0.45593999997E+02  0.45594000000E+02  0.51100000000E-03 0. -1.
    9900012    2    1    2    0    0 -0.10463217402E+02 -0.15392096731E+02  0.20696713014E+01  0.72461572165E+02  0.70000002436E+02 0.  0.
         12    1    1    2    0    0  0.10463217402E+02  0.15392096731E+02 -0.20696713014E+01  0.18726427835E+02  0.00000000000E+00 0. -1.
         11    1    3    3    0    0 -0.57286894662E+01  0.32608532816E+01 -0.80546458602E+00  0.66407695778E+01  0.51100000000E-03 0. -1.
        -11    1    3    3    0    0 -0.26588140352E+02  0.91589276107E+01  0.97972477184E+01  0.29779207939E+02  0.51100000000E-03 0.  1.
         12    1    3    3    0    0  0.21853612416E+02 -0.27811877623E+02 -0.69221118310E+01  0.36041594648E+02  0.00000000000E+00 0. -1.
</event>
<event>
 7    1  0.3196678E-013  0.7246157E+02  0.7816164E-02  0.1226708E+00
        -11   -1    0    0    0    0  0.00000000000E+00  0.00000000000E+00  0.45593999997E+02  0.45594000000E+02  0.51100000000E-03 0. -1.
         11   -1    0    0    0    0 -0.00000000000E+00 -0.00000000000E+00 -0.45593999997E+02  0.45594000000E+02  0.51100000000E-03 0.  1.
    9900012    2    1    2    0    0  0.13674816474E+02 -0.36497340729E+01 -0.12262051044E+02  0.72461573213E+02  0.70000003802E+02 0.  0.
         12    1    1    2    0    0 -0.13674816474E+02  0.36497340729E+01  0.12262051044E+02  0.18726426787E+02  0.00000000000E+00 0. -1.
         11    1    3    3    0    0  0.29672129145E+02  0.14948579588E+02 -0.77591155294E+01  0.34118897312E+02  0.51100000000E-03 0. -1.
        -11    1    3    3    0    0  0.52331878810E+01 -0.12658270343E+02  0.46601464701E+01  0.14468414870E+02  0.51100000000E-03 0.  1.
        -12    1    3    3    0    0 -0.21230500552E+02 -0.59400433181E+01 -0.91630819842E+01  0.23874261031E+02  0.00000000000E+00 0.  1.
</event>
<event>
 7    1  0.3196678E-013  0.7246183E+02  0.7816164E-02  0.1226707E+00
        -11   -1    0    0    0    0  0.00000000000E+00  0.00000000000E+00  0.45593999997E+02  0.45594000000E+02  0.51100000000E-03 0.  1.
         11   -1    0    0    0    0 -0.00000000000E+00 -0.00000000000E+00 -0.45593999997E+02  0.45594000000E+02  0.51100000000E-03 0. -1.
    9900012    2    1    2    0    0  0.11685524821E+01 -0.20425254365E+00  0.18688561596E+02  0.72461826645E+02  0.70000333943E+02 0.  0.
         12    1    1    2    0    0 -0.11685524821E+01  0.20425254365E+00 -0.18688561596E+02  0.18726173355E+02  0.00000000000E+00 0. -1.
         11    1    3    3    0    0  0.11283942134E+01 -0.34104643143E+01  0.98165169825E+01  0.10453159631E+02  0.51100000000E-03 0.  1.
        -11    1    3    3    0    0 -0.16001201255E+02 -0.23565842911E+02  0.11433102753E+02  0.30693700209E+02  0.51100000000E-03 0. -1.
         12    1    3    3    0    0  0.16041359524E+02  0.26772054681E+02 -0.25610581391E+01  0.31314966805E+02  0.00000000000E+00 0. -1.
</event>
<event>
 7    1  0.3196678E-013  0.7246157E+02  0.7816164E-02  0.1226708E+00
        -11   -1    0    0    0    0  0.00000000000E+00  0.00000000000E+00  0.45593999997E+02  0.45594000000E+02  0.51100000000E-03 0. -1.
         11   -1    0    0    0    0 -0.00000000000E+00 -0.00000000000E+00 -0.45593999997E+02  0.45594000000E+02  0.51100000000E-03 0.  1.
    9900012    2    1    2    0    0 -0.12157251251E+02 -0.11343370189E+01 -0.14198372816E+02  0.72461567636E+02  0.69999996537E+02 0.  0.
         12    1    1    2    0    0  0.12157251251E+02  0.11343370189E+01  0.14198372816E+02  0.18726432364E+02  0.00000000000E+00 0. -1.
         11    1    3    3    0    0  0.84303988571E+00 -0.19522439089E+02 -0.11882678495E+02  0.22869945184E+02  0.51100000000E-03 0. -1.
        -11    1    3    3    0    0  0.10986381663E+02 -0.77830962408E+01 -0.40166911174E+01  0.14050301667E+02  0.51100000000E-03 0.  1.
         12    1    3    3    0    0 -0.23986672800E+02  0.26171198311E+02  0.17009967960E+01  0.35541320785E+02  0.00000000000E+00 0. -1.
</event>
<event>
 7    1  0.3196678E-013  0.7246160E+02  0.7816164E-02  0.1226708E+00
        -11   -1    0    0    0    0  0.00000000000E+00  0.00000000000E+00  0.45593999997E+02  0.45594000000E+02  0.51100000000E-03 0.  1.
         11   -1    0    0    0    0 -0.00000000000E+00 -0.00000000000E+00 -0.45593999997E+02  0.45594000000E+02  0.51100000000E-03 0. -1.
    9900012    2    1    2    0    0 -0.10386767572E+02  0.15378530066E+02  0.25088069536E+01  0.72461595115E+02  0.70000032334E+02 0.  0.
         12    1    1    2    0    0  0.10386767572E+02 -0.15378530066E+02 -0.25088069536E+01  0.18726404885E+02  0.00000000000E+00 0. -1.
         11    1    3    3    0    0  0.15238426101E+02 -0.63080917463E+01 -0.20011143935E+02  0.25931593344E+02  0.51100000000E-03 0.  1.
        -11    1    3    3    0    0 -0.91177187255E+01  0.10437568270E+02 -0.29412712837E+01  0.14167805164E+02  0.51100000000E-03 0. -1.
        -12    1    3    3    0    0 -0.16507474947E+02  0.11249053542E+02  0.25461222172E+02  0.32362196607E+02  0.00000000000E+00 0.  1.
</event>
<event>
 7    1  0.3196678E-013  0.7246217E+02  0.7816164E-02  0.1226706E+00
        -11   -1    0    0    0    0  0.00000000000E+00  0.00000000000E+00  0.45593999997E+02  0.45594000000E+02  0.51100000000E-03 0. -1.
         11   -1    0    0    0    0 -0.00000000000E+00 -0.00000000000E+00 -0.45593999997E+02  0.45594000000E+02  0.51100000000E-03 0.  1.
    9900012    2    1    2    0    0  0.17241166100E+02  0.67678117413E+01 -0.27560462508E+01  0.72462165568E+02  0.70000775450E+02 0.  0.
         12    1    1    2    0    0 -0.17241166100E+02 -0.67678117413E+01  0.27560462508E+01  0.18725834432E+02  0.00000000000E+00 0. -1.
         11    1    3    3    0    0 -0.12548762058E+02 -0.12134456608E+02  0.15169699168E+02  0.23126526749E+02  0.51100000000E-03 0. -1.
        -11    1    3    3    0    0 -0.44710199071E+01  0.37507243718E+01 -0.91614733111E+01  0.10862345318E+02  0.51100000000E-03 0.  1.
        -12    1    3    3    0    0  0.34260948065E+02  0.15151543977E+02 -0.87642721073E+01  0.38473293501E+02  0.00000000000E+00 0.  1.
</event>
<event>
 7    1  0.3196678E-013  0.7246155E+02  0.7816164E-02  0.1226708E+00
        -11   -1    0    0    0    0  0.00000000000E+00  0.00000000000E+00  0.45593999997E+02  0.45594000000E+02  0.51100000000E-03 0.  1.
         11   -1    0    0    0    0 -0.00000000000E+00 -0.00000000000E+00 -0.45593999997E+02  0.45594000000E+02  0.51100000000E-03 0. -1.
    9900012    2    1    2    0    0 -0.12077234255E+02 -0.50514719223E+01 -0.13390407239E+02  0.72461549139E+02  0.69999972441E+02 0.  0.
         12    1    1    2    0    0  0.12077234255E+02  0.50514719223E+01  0.13390407239E+02  0.18726450861E+02  0.00000000000E+00 0. -1.
         11    1    3    3    0    0 -0.29462168224E+02  0.78098449388E+00 -0.61830777185E+01  0.30114112033E+02  0.51100000000E-03 0. -1.
        -11    1    3    3    0    0 -0.23027279272E+01 -0.70259100893E+01 -0.18286716015E+02  0.19724856181E+02  0.51100000000E-03 0.  1.
        -12    1    3    3    0    0  0.19687661896E+02  0.11934536730E+01  0.11079386494E+02  0.22622580925E+02  0.00000000000E+00 0.  1.
</event>
<event>
 7    1  0.3196678E-013  0.7246158E+02  0.7816164E-02  0.1226708E+00
        -11   -1    0    0    0    0  0.00000000000E+00  0.00000000000E+00  0.45593999997E+02  0.45594000000E+02  0.51100000000E-03 0. -1.
         11   -1    0    0    0    0 -0.00000000000E+00 -0.00000000000E+00 -0.45593999997E+02  0.45594000000E+02  0.51100000000E-03 0.  1.
    9900012    2    1    2    0    0  0.11069363065E+01 -0.56333375503E+01 -0.17824672583E+02  0.72461581426E+02  0.70000014500E+02 0.  0.
         12    1    1    2    0    0 -0.11069363065E+01  0.56333375503E+01  0.17824672583E+02  0.18726418574E+02  0.00000000000E+00 0. -1.
         11    1    3    3    0    0  0.65948046472E+01  0.15298434014E+01 -0.76279451259E+01  0.10198892894E+02  0.51100000000E-03 0. -1.
        -11    1    3    3    0    0  0.25494030912E+02 -0.86694903781E+01 -0.15079009979E+02  0.30862310635E+02  0.51100000000E-03 0.  1.
         12    1    3    3    0    0 -0.30981899252E+02  0.15063094264E+01  0.48822825219E+01  0.31400377896E+02  0.00000000000E+00 0. -1.
</event>
<event>
 7    1  0.3196678E-013  0.7246163E+02  0.7816164E-02  0.1226708E+00
        -11   -1    0    0    0    0  0.00000000000E+00  0.00000000000E+00  0.45593999997E+02  0.45594000000E+02  0.51100000000E-03 0.  1.
         11   -1    0    0    0    0 -0.00000000000E+00 -0.00000000000E+00 -0.45593999997E+02  0.45594000000E+02  0.51100000000E-03 0. -1.
    9900012    2    1    2    0    0  0.17318509207E+02  0.70992575323E+01  0.58896958407E+00  0.72461625449E+02  0.70000071849E+02 0.  0.
         12    1    1    2    0    0 -0.17318509207E+02 -0.70992575323E+01 -0.58896958407E+00  0.18726374551E+02  0.00000000000E+00 0. -1.
         11    1    3    3    0    0 -0.55378471028E+01 -0.10258959524E+02 -0.25579552822E+02  0.28110985822E+02  0.51100000000E-03 0. -1.
        -11    1    3    3    0    0  0.58009029229E+01  0.12979205409E+02  0.18647134464E+01  0.14338319437E+02  0.51100000000E-03 0.  1.
        -12    1    3    3    0    0  0.17055453387E+02  0.43790116469E+01  0.24303808960E+02  0.30012320190E+02  0.00000000000E+00 0.  1.
</event>
<event>
 7    1  0.3196678E-013  0.7246149E+02  0.7816164E-02  0.1226708E+00
        -11   -1    0    0    0    0  0.00000000000E+00  0.00000000000E+00  0.45593999997E+02  0.45594000000E+02  0.51100000000E-03 0.  1.
         11   -1    0    0    0    0 -0.00000000000E+00 -0.00000000000E+00 -0.45593999997E+02  0.45594000000E+02  0.51100000000E-03 0. -1.
    9900012    2    1    2    0    0  0.96003199132E+01  0.97924699803E+01  0.12752401373E+02  0.72461485334E+02  0.69999889324E+02 0.  0.
         12    1    1    2    0    0 -0.96003199132E+01 -0.97924699803E+01 -0.12752401373E+02  0.18726514666E+02  0.00000000000E+00 0. -1.
         11    1    3    3    0    0  0.11137119811E+02  0.84690007426E+01  0.86147761737E+01  0.16430878858E+02  0.51100000000E-03 0. -1.
        -11    1    3    3    0    0  0.81096976484E+01 -0.85381731285E+01  0.26928024688E+02  0.29390238349E+02  0.51100000000E-03 0.  1.
         12    1    3    3    0    0 -0.96464975467E+01  0.98616423662E+01 -0.22790399489E+02  0.26640368127E+02  0.00000000000E+00 0. -1.
</event>
<event>
 7    1  0.3196678E-013  0.7246157E+02  0.7816164E-02  0.1226708E+00
        -11   -1    0    0    0    0  0.00000000000E+00  0.00000000000E+00  0.45593999997E+02  0.45594000000E+02  0.51100000000E-03 0.  1.
         11   -1    0    0    0    0 -0.00000000000E+00 -0.00000000000E+00 -0.45593999997E+02  0.45594000000E+02  0.51100000000E-03 0. -1.
    9900012    2    1    2    0    0 -0.11442417093E+02 -0.11742788279E+02  0.90475040953E+01  0.72461566387E+02  0.69999994911E+02 0.  0.
         12    1    1    2    0    0  0.11442417093E+02  0.11742788279E+02 -0.90475040953E+01  0.18726433613E+02  0.00000000000E+00 0. -1.
         11    1    3    3    0    0 -0.20478186538E+02  0.94283463253E+01 -0.19940343980E+02  0.30097627093E+02  0.51100000000E-03 0. -1.
        -11    1    3    3    0    0  0.24959131215E-02  0.29241104531E+01 -0.76920376844E+00  0.30235910553E+01  0.51100000000E-03 0.  1.
        -12    1    3    3    0    0  0.90332735327E+01 -0.24095245058E+02  0.29757051844E+02  0.39340348239E+02  0.00000000000E+00 0.  1.
</event>
<event>
 7    1  0.3196678E-013  0.7246156E+02  0.7816164E-02  0.1226708E+00
        -11   -1    0    0    0    0  0.00000000000E+00  0.00000000000E+00  0.45593999997E+02  0.45594000000E+02  0.51100000000E-03 0.  1.
         11   -1    0    0    0    0 -0.00000000000E+00 -0.00000000000E+00 -0.45593999997E+02  0.45594000000E+02  0.51100000000E-03 0. -1.
    9900012    2    1    2    0    0  0.18127406580E+02  0.30277961594E+01  0.35929409477E+01  0.72461557638E+02  0.69999983513E+02 0.  0.
         12    1    1    2    0    0 -0.18127406580E+02 -0.30277961594E+01 -0.35929409477E+01  0.18726442362E+02  0.00000000000E+00 0. -1.
         11    1    3    3    0    0  0.12203445902E+01  0.79550435297E-01 -0.23044641425E+02  0.23077068009E+02  0.51100000000E-03 0. -1.
        -11    1    3    3    0    0  0.10288913604E+02  0.20056641809E+02  0.19125522745E+02  0.29562074426E+02  0.51100000000E-03 0.  1.
        -12    1    3    3    0    0  0.66181483856E+01 -0.17108396085E+02  0.75120596278E+01  0.19822415204E+02  0.00000000000E+00 0.  1.
</event>
<event>
 7    1  0.3196678E-013  0.7246157E+02  0.7816164E-02  0.1226708E+00
        -11   -1    0    0    0    0  0.00000000000E+00  0.00000000000E+00  0.45593999997E+02  0.45594000000E+02  0.51100000000E-03 0. -1.
         11   -1    0    0    0    0 -0.00000000000E+00 -0.00000000000E+00 -0.45593999997E+02  0.45594000000E+02  0.51100000000E-03 0.  1.
    9900012    2    1    2    0    0 -0.64407588700E+01 -0.42565184697E+01 -0.17061005252E+02  0.72461568826E+02  0.69999998088E+02 0.  0.
         12    1    1    2    0    0  0.64407588700E+01  0.42565184697E+01  0.17061005252E+02  0.18726431174E+02  0.00000000000E+00 0. -1.
         11    1    3    3    0    0 -0.62309970500E+01  0.16698065144E+02 -0.22943346567E+02  0.29052501713E+02  0.51100000000E-03 0. -1.
        -11    1    3    3    0    0 -0.31392747366E+01 -0.10582779885E+02 -0.15754369019E+02  0.19236694607E+02  0.51100000000E-03 0.  1.
         12    1    3    3    0    0  0.29295129167E+01 -0.10371803729E+02  0.21636710334E+02  0.24172372507E+02  0.00000000000E+00 0. -1.
</event>
<event>
 7    1  0.3196678E-013  0.7246156E+02  0.7816164E-02  0.1226708E+00
        -11   -1    0    0    0    0  0.00000000000E+00  0.00000000000E+00  0.45593999997E+02  0.45594000000E+02  0.51100000000E-03 0. -1.
         11   -1    0    0    0    0 -0.00000000000E+00 -0.00000000000E+00 -0.45593999997E+02  0.45594000000E+02  0.51100000000E-03 0.  1.
    9900012    2    1    2    0    0  0.13894461852E+02 -0.44704305078E+01 -0.11731956183E+02  0.72461558401E+02  0.69999984507E+02 0.  0.
         12    1    1    2    0    0 -0.13894461852E+02  0.44704305078E+01  0.11731956183E+02  0.18726441599E+02  0.00000000000E+00 0. -1.
         11    1    3    3    0    0 -0.62885688570E+01 -0.10151171280E+02  0.10405959325E+02  0.15839077195E+02  0.51100000000E-03 0. -1.
        -11    1    3    3    0    0 -0.13299092400E+02  0.70278852440E+01  0.22076623864E+01  0.15202986652E+02  0.51100000000E-03 0.  1.
        -12    1    3    3    0    0  0.33482123109E+02 -0.13471444713E+01 -0.24345577895E+02  0.41419494554E+02  0.00000000000E+00 0.  1.
</event>
<event>
 7    1  0.3196678E-013  0.7246156E+02  0.7816164E-02  0.1226708E+00
        -11   -1    0    0    0    0  0.00000000000E+00  0.00000000000E+00  0.45593999997E+02  0.45594000000E+02  0.51100000000E-03 0.  1.
         11   -1    0    0    0    0 -0.00000000000E+00 -0.00000000000E+00 -0.45593999997E+02  0.45594000000E+02  0.51100000000E-03 0. -1.
    9900012    2    1    2    0    0  0.30339829325E+01 -0.78796697734E+01  0.16714823391E+02  0.72461559623E+02  0.69999986099E+02 0.  0.
         12    1    1    2    0    0 -0.30339829325E+01  0.78796697734E+01 -0.16714823391E+02  0.18726440377E+02  0.00000000000E+00 0. -1.
         11    1    3    3    0    0  0.24064941581E+02  0.12175718682E+02 -0.45902635419E+00  0.26973695411E+02  0.51100000000E-03 0. -1.
        -11    1    3    3    0    0  0.14432416951E+01 -0.10066245452E+01 -0.71001489689E+01  0.73149405470E+01  0.51100000000E-03 0.  1.
        -12    1    3    3    0    0 -0.22474200343E+02 -0.19048763910E+02  0.24273998714E+02  0.38172923665E+02  0.00000000000E+00 0.  1.
</event>
<event>
 7    1  0.3196678E-013  0.7246163E+02  0.7816164E-02  0.1226708E+00
        -11   -1    0    0    0    0  0.00000000000E+00  0.00000000000E+00  0.45593999997E+02  0.45594000000E+02  0.51100000000E-03 0.  1.
         11   -1    0    0    0    0 -0.00000000000E+00 -0.00000000000E+00 -0.45593999997E+02  0.45594000000E+02  0.51100000000E-03 0. -1.
    9900012    2    1    2    0    0 -0.92362945539E+01  0.16001458767E+02 -0.30530247369E+01  0.72461634101E+02  0.70000083120E+02 0.  0.
         12    1    1    2    0    0  0.92362945539E+01 -0.16001458767E+02  0.30530247369E+01  0.18726365899E+02  0.00000000000E+00 0. -1.
         11    1    3    3    0    0  0.99522875139E+01 -0.12236305607E+02 -0.28217097536E+01  0.16023022432E+02  0.51100000000E-03 0. -1.
        -11    1    3    3    0    0 -0.74147017829E+01  0.10372158870E+02  0.22098304604E+02  0.25512635081E+02  0.51100000000E-03 0.  1.
        -12    1    3    3    0    0 -0.11773880285E+02  0.17865605504E+02 -0.22329619587E+02  0.30925976587E+02  0.00000000000E+00 0.  1.
</event>
<event>
 7    1  0.3196678E-013  0.7246149E+02  0.7816164E-02  0.1226708E+00
        -11   -1    0    0    0    0  0.00000000000E+00  0.00000000000E+00  0.45593999997E+02  0.45594000000E+02  0.51100000000E-03 0.  1.
         11   -1    0    0    0    0 -0.00000000000E+00 -0.00000000000E+00 -0.45593999997E+02  0.45594000000E+02  0.51100000000E-03 0. -1.
    9900012    2    1    2    0    0 -0.51691284255E+01 -0.17928509854E+02 -0.15908807119E+01  0.72461487893E+02  0.69999892657E+02 0.  0.
         12    1    1    2    0    0  0.51691284255E+01  0.17928509854E+02  0.15908807119E+01  0.18726512107E+02  0.00000000000E+00 0. -1.
         11    1    3    3    0    0 -0.50552760301E+01 -0.26445074070E+02  0.64879982427E+01  0.27694618245E+02  0.51100000000E-03 0. -1.
        -11    1    3    3    0    0  0.89043101986E+01  0.53543529979E+01  0.15877338762E+02  0.18974870818E+02  0.51100000000E-03 0.  1.
         12    1    3    3    0    0 -0.90181625940E+01  0.31622112178E+01 -0.23956217716E+02  0.25791998830E+02  0.00000000000E+00 0. -1.
</event>
<event>
 7    1  0.3196678E-013  0.7246151E+02  0.7816164E-02  0.1226708E+00
        -11   -1    0    0    0    0  0.00000000000E+00  0.00000000000E+00  0.45593999997E+02  0.45594000000E+02  0.51100000000E-03 0.  1.
         11   -1    0    0    0    0 -0.00000000000E+00 -0.00000000000E+00 -0.45593999997E+02  0.45594000000E+02  0.51100000000E-03 0. -1.
    9900012    2    1    2    0    0 -0.11294875170E+02 -0.10005237907E+02  0.11090643345E+02  0.72461511795E+02  0.69999923794E+02 0.  0.
         12    1    1    2    0    0  0.11294875170E+02  0.10005237907E+02 -0.11090643345E+02  0.18726488205E+02  0.00000000000E+00 0. -1.
         11    1    3    3    0    0 -0.12312123962E+02  0.27519367547E+01 -0.73818088031E+01  0.14616861969E+02  0.51100000000E-03 0. -1.
        -11    1    3    3    0    0  0.11235121078E+01  0.11356371004E+02  0.29275849508E+02  0.31421406820E+02  0.51100000000E-03 0.  1.
         12    1    3    3    0    0 -0.10626331600E+00 -0.24113545666E+02 -0.10803397360E+02  0.26423243007E+02  0.00000000000E+00 0. -1.
</event>
<event>
 7    1  0.3196678E-013  0.7246157E+02  0.7816164E-02  0.1226708E+00
        -11   -1    0    0    0    0  0.00000000000E+00  0.00000000000E+00  0.45593999997E+02  0.45594000000E+02  0.51100000000E-03 0. -1.
         11   -1    0    0    0    0 -0.00000000000E+00 -0.00000000000E+00 -0.45593999997E+02  0.45594000000E+02  0.51100000000E-03 0.  1.
    9900012    2    1    2    0    0 -0.11957440996E+02  0.55466773293E+01 -0.13301619451E+02  0.72461572028E+02  0.70000002258E+02 0.  0.
         12    1    1    2    0    0  0.11957440996E+02 -0.55466773293E+01  0.13301619451E+02  0.18726427972E+02  0.00000000000E+00 0. -1.
         11    1    3    3    0    0 -0.13999719844E+02 -0.24920629120E+02 -0.92617874813E+01  0.30046807136E+02  0.51100000000E-03 0. -1.
        -11    1    3    3    0    0  0.84078816077E+01 -0.28389280693E+00  0.49362758706E+01  0.97539678074E+01  0.51100000000E-03 0.  1.
        -12    1    3    3    0    0 -0.63656027596E+01  0.30751199257E+02 -0.89761078408E+01  0.32660797084E+02  0.00000000000E+00 0.  1.
</event>
<event>
 7    1  0.3196678E-013  0.7246156E+02  0.7816164E-02  0.1226708E+00
        -11   -1    0    0    0    0  0.00000000000E+00  0.00000000000E+00  0.45593999997E+02  0.45594000000E+02  0.51100000000E-03 0.  1.
         11   -1    0    0    0    0 -0.00000000000E+00 -0.00000000000E+00 -0.45593999997E+02  0.45594000000E+02  0.51100000000E-03 0. -1.
    9900012    2    1    2    0    0  0.13709084708E+02  0.47518998450E+01  0.11838917989E+02  0.72461560541E+02  0.69999987294E+02 0.  0.
         12    1    1    2    0    0 -0.13709084708E+02 -0.47518998450E+01 -0.11838917989E+02  0.18726439459E+02  0.00000000000E+00 0. -1.
         11    1    3    3    0    0 -0.71150647248E+01  0.21172387531E+02  0.14366849096E+02  0.26557494103E+02  0.51100000000E-03 0. -1.
        -11    1    3    3    0    0 -0.46639837717E+01  0.86364288335E+01  0.15245253152E+01  0.99330169292E+01  0.51100000000E-03 0.  1.
         12    1    3    3    0    0  0.25488133205E+02 -0.25056916519E+02 -0.40524564226E+01  0.35971049509E+02  0.00000000000E+00 0. -1.
</event>
<event>
 7    1  0.3196678E-013  0.7246154E+02  0.7816164E-02  0.1226708E+00
        -11   -1    0    0    0    0  0.00000000000E+00  0.00000000000E+00  0.45593999997E+02  0.45594000000E+02  0.51100000000E-03 0.  1.
         11   -1    0    0    0    0 -0.00000000000E+00 -0.00000000000E+00 -0.45593999997E+02  0.45594000000E+02  0.51100000000E-03 0. -1.
    9900012    2    1    2    0    0 -0.82671049259E+01 -0.56916231896E+00  0.16793188678E+02  0.72461543967E+02  0.69999965703E+02 0.  0.
         12    1    1    2    0    0  0.82671049259E+01  0.56916231896E+00 -0.16793188678E+02  0.18726456033E+02  0.00000000000E+00 0. -1.
         11    1    3    3    0    0  0.26740839829E+00  0.10935280209E+02 -0.11449797556E+02  0.15835078933E+02  0.51100000000E-03 0. -1.
        -11    1    3    3    0    0 -0.19333358646E+01 -0.29637964809E+02  0.15512717436E+02  0.33508075864E+02  0.51100000000E-03 0.  1.
         12    1    3    3    0    0 -0.66011774597E+01  0.18133522281E+02  0.12730268797E+02  0.23118389170E+02  0.00000000000E+00 0. -1.
</event>
<event>
 7    1  0.3196678E-013  0.7246155E+02  0.7816164E-02  0.1226708E+00
        -11   -1    0    0    0    0  0.00000000000E+00  0.00000000000E+00  0.45593999997E+02  0.45594000000E+02  0.51100000000E-03 0. -1.
         11   -1    0    0    0    0 -0.00000000000E+00 -0.00000000000E+00 -0.45593999997E+02  0.45594000000E+02  0.51100000000E-03 0.  1.
    9900012    2    1    2    0    0  0.27718113517E+01  0.16922399009E+01 -0.18442708118E+02  0.72461545536E+02  0.69999967748E+02 0.  0.
         12    1    1    2    0    0 -0.27718113517E+01 -0.16922399009E+01  0.18442708118E+02  0.18726454464E+02  0.00000000000E+00 0. -1.
         11    1    3    3    0    0  0.11587153270E+02 -0.12646310408E+02 -0.26820070326E+02  0.31835631930E+02  0.51100000000E-03 0. -1.
        -11    1    3    3    0    0  0.47063251941E+01  0.77427621184E+00 -0.11847456736E+02  0.12771500767E+02  0.51100000000E-03 0.  1.
         12    1    3    3    0    0 -0.13521667113E+02  0.13564274097E+02  0.20224818944E+02  0.27854412839E+02  0.00000000000E+00 0. -1.
</event>
<event>
 7    1  0.3196678E-013  0.7246159E+02  0.7816164E-02  0.1226708E+00
        -11   -1    0    0    0    0  0.00000000000E+00  0.00000000000E+00  0.45593999997E+02  0.45594000000E+02  0.51100000000E-03 0.  1.
         11   -1    0    0    0    0 -0.00000000000E+00 -0.00000000000E+00 -0.45593999997E+02  0.45594000000E+02  0.51100000000E-03 0. -1.
    9900012    2    1    2    0    0 -0.76580338918E+01  0.61506558971E+01  0.15943721598E+02  0.72461593258E+02  0.70000029915E+02 0.  0.
         12    1    1    2    0    0  0.76580338918E+01 -0.61506558971E+01 -0.15943721598E+02  0.18726406742E+02  0.00000000000E+00 0. -1.
         11    1    3    3    0    0  0.11007172683E+02 -0.41727179816E+01  0.14471322915E+02  0.18654452900E+02  0.51100000000E-03 0. -1.
        -11    1    3    3    0    0  0.15237340504E+02  0.30420711298E+01  0.95030855555E+01  0.18213714002E+02  0.51100000000E-03 0.  1.
         12    1    3    3    0    0 -0.33902547079E+02  0.72813027489E+01 -0.80306868723E+01  0.35593426357E+02  0.00000000000E+00 0. -1.
</event>
<event>
 7    1  0.3196678E-013  0.7246158E+02  0.7816164E-02  0.1226708E+00
        -11   -1    0    0    0    0  0.00000000000E+00  0.00000000000E+00  0.45593999997E+02  0.45594000000E+02  0.51100000000E-03 0.  1.
         11   -1    0    0    0    0 -0.00000000000E+00 -0.00000000000E+00 -0.45593999997E+02  0.45594000000E+02  0.51100000000E-03 0. -1.
    9900012    2    1    2    0    0 -0.21755666856E+01 -0.15805095441E+02  0.98053432004E+01  0.72461577822E+02  0.70000009806E+02 0.  0.
         12    1    1    2    0    0  0.21755666856E+01  0.15805095441E+02 -0.98053432004E+01  0.18726422178E+02  0.00000000000E+00 0. -1.
         11    1    3    3    0    0 -0.12179479506E+02 -0.12366575796E+01  0.49131635932E+01  0.13191217524E+02  0.51100000000E-03 0. -1.
        -11    1    3    3    0    0 -0.22444814141E+02 -0.13993671318E+02  0.43967845328E+01  0.26812762508E+02  0.51100000000E-03 0.  1.
        -12    1    3    3    0    0  0.32448726962E+02 -0.57476654384E+00  0.49539507449E+00  0.32457597790E+02  0.00000000000E+00 0.  1.
</event>
<event>
 7    1  0.3196678E-013  0.7246159E+02  0.7816164E-02  0.1226708E+00
        -11   -1    0    0    0    0  0.00000000000E+00  0.00000000000E+00  0.45593999997E+02  0.45594000000E+02  0.51100000000E-03 0.  1.
         11   -1    0    0    0    0 -0.00000000000E+00 -0.00000000000E+00 -0.45593999997E+02  0.45594000000E+02  0.51100000000E-03 0. -1.
    9900012    2    1    2    0    0  0.14083272383E+02  0.26108836587E+01  0.12063296800E+02  0.72461590729E+02  0.70000026620E+02 0.  0.
         12    1    1    2    0    0 -0.14083272383E+02 -0.26108836587E+01 -0.12063296800E+02  0.18726409271E+02  0.00000000000E+00 0. -1.
         11    1    3    3    0    0  0.56538571004E+01 -0.66510530062E+01  0.35870864934E+01  0.94376795864E+01  0.51100000000E-03 0. -1.
        -11    1    3    3    0    0 -0.66382583863E+01  0.18114359889E+02  0.29771544558E+02  0.35475926686E+02  0.51100000000E-03 0.  1.
         12    1    3    3    0    0  0.15067673669E+02 -0.88524232236E+01 -0.21295334252E+02  0.27547984457E+02  0.00000000000E+00 0. -1.
</event>
<event>
 7    1  0.3196678E-013  0.7246132E+02  0.7816164E-02  0.1226709E+00
        -11   -1    0    0    0    0  0.00000000000E+00  0.00000000000E+00  0.45593999997E+02  0.45594000000E+02  0.51100000000E-03 0.  1.
         11   -1    0    0    0    0 -0.00000000000E+00 -0.00000000000E+00 -0.45593999997E+02  0.45594000000E+02  0.51100000000E-03 0. -1.
    9900012    2    1    2    0    0 -0.53680690633E+00 -0.13556809928E+02  0.12907884148E+02  0.72461315023E+02  0.69999667460E+02 0.  0.
         12    1    1    2    0    0  0.53680690633E+00  0.13556809928E+02 -0.12907884148E+02  0.18726684977E+02  0.00000000000E+00 0. -1.
         11    1    3    3    0    0 -0.18393566561E+02  0.88693078344E+01 -0.11792694501E+02  0.23580830269E+02  0.51100000000E-03 0. -1.
        -11    1    3    3    0    0  0.61210901482E+00  0.75531187574E+01  0.39077261980E+01  0.85261131067E+01  0.51100000000E-03 0.  1.
        -12    1    3    3    0    0  0.17244650640E+02 -0.29979236520E+02  0.20792852451E+02  0.40354371647E+02  0.00000000000E+00 0.  1.
</event>
<event>
 7    1  0.3196678E-013  0.7246156E+02  0.7816164E-02  0.1226708E+00
        -11   -1    0    0    0    0  0.00000000000E+00  0.00000000000E+00  0.45593999997E+02  0.45594000000E+02  0.51100000000E-03 0. -1.
         11   -1    0    0    0    0 -0.00000000000E+00 -0.00000000000E+00 -0.45593999997E+02  0.45594000000E+02  0.51100000000E-03 0.  1.
    9900012    2    1    2    0    0  0.12694497451E+02  0.84187228093E+01 -0.10892858556E+02  0.72461560755E+02  0.69999987573E+02 0.  0.
         12    1    1    2    0    0 -0.12694497451E+02 -0.84187228093E+01  0.10892858556E+02  0.18726439245E+02  0.00000000000E+00 0. -1.
         11    1    3    3    0    0  0.90333455731E+01  0.18441030285E+02 -0.14587150763E+02  0.25188447706E+02  0.51100000000E-03 0. -1.
        -11    1    3    3    0    0 -0.12059751936E+02 -0.22288782389E+02 -0.44569668113E+01  0.25731148256E+02  0.51100000000E-03 0.  1.
         12    1    3    3    0    0  0.15720903814E+02  0.12266474914E+02  0.81512590185E+01  0.21541964793E+02  0.00000000000E+00 0. -1.
</event>
<event>
 7    1  0.3196678E-013  0.7246155E+02  0.7816164E-02  0.1226708E+00
        -11   -1    0    0    0    0  0.00000000000E+00  0.00000000000E+00  0.45593999997E+02  0.45594000000E+02  0.51100000000E-03 0. -1.
         11   -1    0    0    0    0 -0.00000000000E+00 -0.00000000000E+00 -0.45593999997E+02  0.45594000000E+02  0.51100000000E-03 0.  1.
    9900012    2    1    2    0    0 -0.99679982830E+01 -0.12486306696E+01 -0.15803789658E+02  0.72461552503E+02  0.69999976823E+02 0.  0.
         12    1    1    2    0    0  0.99679982830E+01  0.12486306696E+01  0.15803789658E+02  0.18726447497E+02  0.00000000000E+00 0. -1.
         11    1    3    3    0    0 -0.94114697727E+01  0.89017738323E+01  0.20660599778E+02  0.24386014928E+02  0.51100000000E-03 0. -1.
        -11    1    3    3    0    0 -0.25516045910E+01 -0.42657037311E+01  0.44623542361E+01  0.66797844201E+01  0.51100000000E-03 0.  1.
        -12    1    3    3    0    0  0.19950760808E+01 -0.58847007709E+01 -0.40926743671E+02  0.41395753155E+02  0.00000000000E+00 0.  1.
</event>
<event>
 7    1  0.3196678E-013  0.7246174E+02  0.7816164E-02  0.1226708E+00
        -11   -1    0    0    0    0  0.00000000000E+00  0.00000000000E+00  0.45593999997E+02  0.45594000000E+02  0.51100000000E-03 0.  1.
         11   -1    0    0    0    0 -0.00000000000E+00 -0.00000000000E+00 -0.45593999997E+02  0.45594000000E+02  0.51100000000E-03 0. -1.
    9900012    2    1    2    0    0  0.19362261198E+01 -0.57457782135E+01  0.17717502414E+02  0.72461739544E+02  0.70000220479E+02 0.  0.
         12    1    1    2    0    0 -0.19362261198E+01  0.57457782135E+01 -0.17717502414E+02  0.18726260456E+02  0.00000000000E+00 0. -1.
         11    1    3    3    0    0 -0.55274544543E+01 -0.12102736293E+02 -0.16441050082E+02  0.21150345307E+02  0.51100000000E-03 0. -1.
        -11    1    3    3    0    0 -0.37000308122E+01  0.12713006549E+02 -0.15797200950E+01  0.13334402100E+02  0.51100000000E-03 0.  1.
        -12    1    3    3    0    0  0.11163711386E+02 -0.63560484693E+01  0.35738272591E+02  0.37976992138E+02  0.00000000000E+00 0.  1.
</event>
<event>
 7    1  0.3196678E-013  0.7246152E+02  0.7816164E-02  0.1226708E+00
        -11   -1    0    0    0    0  0.00000000000E+00  0.00000000000E+00  0.45593999997E+02  0.45594000000E+02  0.51100000000E-03 0. -1.
         11   -1    0    0    0    0 -0.00000000000E+00 -0.00000000000E+00 -0.45593999997E+02  0.45594000000E+02  0.51100000000E-03 0.  1.
    9900012    2    1    2    0    0  0.62011877520E+01  0.10367144175E+01 -0.17639483018E+02  0.72461524959E+02  0.69999940942E+02 0.  0.
         12    1    1    2    0    0 -0.62011877520E+01 -0.10367144175E+01  0.17639483018E+02  0.18726475041E+02  0.00000000000E+00 0. -1.
         11    1    3    3    0    0 -0.43005115980E+01  0.68513945233E+00  0.21706258866E+01  0.48657407529E+01  0.51100000000E-03 0. -1.
        -11    1    3    3    0    0  0.89186118458E+01  0.28482868860E+02  0.47453039858E+01  0.30221405757E+02  0.51100000000E-03 0.  1.
         12    1    3    3    0    0  0.15830875042E+01 -0.28131293895E+02 -0.24555412890E+02  0.37374378449E+02  0.00000000000E+00 0. -1.
</event>
<event>
 7    1  0.3196678E-013  0.7246150E+02  0.7816164E-02  0.1226708E+00
        -11   -1    0    0    0    0  0.00000000000E+00  0.00000000000E+00  0.45593999997E+02  0.45594000000E+02  0.51100000000E-03 0.  1.
         11   -1    0    0    0    0 -0.00000000000E+00 -0.00000000000E+00 -0.45593999997E+02  0.45594000000E+02  0.51100000000E-03 0. -1.
    9900012    2    1    2    0    0 -0.10682861266E+02  0.50256969075E+01  0.14536182926E+02  0.72461500907E+02  0.69999909610E+02 0.  0.
         12    1    1    2    0    0  0.10682861266E+02 -0.50256969075E+01 -0.14536182926E+02  0.18726499093E+02  0.00000000000E+00 0. -1.
         11    1    3    3    0    0 -0.16358091094E+02  0.93522801366E+01  0.33109468066E+02  0.38095789319E+02  0.51100000000E-03 0. -1.
        -11    1    3    3    0    0 -0.78573875428E+01 -0.22568429563E+00  0.31312619447E+01  0.84613399664E+01  0.51100000000E-03 0.  1.
        -12    1    3    3    0    0  0.13532617371E+02 -0.41008989334E+01 -0.21704547084E+02  0.25904371621E+02  0.00000000000E+00 0.  1.
</event>
<event>
 7    1  0.3196678E-013  0.7246161E+02  0.7816164E-02  0.1226708E+00
        -11   -1    0    0    0    0  0.00000000000E+00  0.00000000000E+00  0.45593999997E+02  0.45594000000E+02  0.51100000000E-03 0.  1.
         11   -1    0    0    0    0 -0.00000000000E+00 -0.00000000000E+00 -0.45593999997E+02  0.45594000000E+02  0.51100000000E-03 0. -1.
    9900012    2    1    2    0    0  0.17489515764E+02 -0.44431785895E+01 -0.50052728963E+01  0.72461608079E+02  0.70000049221E+02 0.  0.
         12    1    1    2    0    0 -0.17489515764E+02  0.44431785895E+01  0.50052728963E+01  0.18726391921E+02  0.00000000000E+00 0. -1.
         11    1    3    3    0    0 -0.11127010397E+02 -0.77619356164E+01  0.75844815639E+01  0.15542920117E+02  0.51100000000E-03 0. -1.
        -11    1    3    3    0    0  0.37031776266E+02  0.14811996742E+02 -0.35368051789E+01  0.40040687957E+02  0.51100000000E-03 0.  1.
         12    1    3    3    0    0 -0.84152501052E+01 -0.11493239715E+02 -0.90529492812E+01  0.16878000005E+02  0.00000000000E+00 0. -1.
</event>
<event>
 7    1  0.3196678E-013  0.7246078E+02  0.7816164E-02  0.1226710E+00
        -11   -1    0    0    0    0  0.00000000000E+00  0.00000000000E+00  0.45593999997E+02  0.45594000000E+02  0.51100000000E-03 0.  1.
         11   -1    0    0    0    0 -0.00000000000E+00 -0.00000000000E+00 -0.45593999997E+02  0.45594000000E+02  0.51100000000E-03 0. -1.
    9900012    2    1    2    0    0 -0.22711417742E+01  0.16411556181E+02 -0.87299113631E+01  0.72460784146E+02  0.69998975888E+02 0.  0.
         12    1    1    2    0    0  0.22711417742E+01 -0.16411556181E+02  0.87299113631E+01  0.18727215854E+02  0.00000000000E+00 0. -1.
         11    1    3    3    0    0  0.32136039655E+01  0.23645702179E+00 -0.25133555587E+02  0.25339273452E+02  0.51100000000E-03 0. -1.
        -11    1    3    3    0    0 -0.15985719635E+02 -0.24679718317E+01 -0.49265604402E+01  0.16908728966E+02  0.51100000000E-03 0.  1.
        -12    1    3    3    0    0  0.10500973895E+02  0.18643070991E+02  0.21330204664E+02  0.30212781728E+02  0.00000000000E+00 0.  1.
</event>
<event>
 7    1  0.3196678E-013  0.7246154E+02  0.7816164E-02  0.1226708E+00
        -11   -1    0    0    0    0  0.00000000000E+00  0.00000000000E+00  0.45593999997E+02  0.45594000000E+02  0.51100000000E-03 0.  1.
         11   -1    0    0    0    0 -0.00000000000E+00 -0.00000000000E+00 -0.45593999997E+02  0.45594000000E+02  0.51100000000E-03 0. -1.
    9900012    2    1    2    0    0 -0.72712089841E+01  0.13092808700E+02  0.11242256663E+02  0.72461535982E+02  0.69999955301E+02 0.  0.
         12    1    1    2    0    0  0.72712089841E+01 -0.13092808700E+02 -0.11242256663E+02  0.18726464018E+02  0.00000000000E+00 0. -1.
         11    1    3    3    0    0  0.19391865985E+01 -0.89885776276E-01  0.53129388454E+01  0.56564868560E+01  0.51100000000E-03 0. -1.
        -11    1    3    3    0    0  0.16111647529E+02  0.53171438448E+00  0.27048756694E+02  0.31488142931E+02  0.51100000000E-03 0.  1.
         12    1    3    3    0    0 -0.25322043112E+02  0.12650980092E+02 -0.21119438877E+02  0.35316906194E+02  0.00000000000E+00 0. -1.
</event>
<event>
 7    1  0.3196678E-013  0.7246154E+02  0.7816164E-02  0.1226708E+00
        -11   -1    0    0    0    0  0.00000000000E+00  0.00000000000E+00  0.45593999997E+02  0.45594000000E+02  0.51100000000E-03 0.  1.
         11   -1    0    0    0    0 -0.00000000000E+00 -0.00000000000E+00 -0.45593999997E+02  0.45594000000E+02  0.51100000000E-03 0. -1.
    9900012    2    1    2    0    0  0.13458063353E+02  0.72081138955E+01  0.10844531527E+02  0.72461541734E+02  0.69999962795E+02 0.  0.
         12    1    1    2    0    0 -0.13458063353E+02 -0.72081138955E+01 -0.10844531527E+02  0.18726458266E+02  0.00000000000E+00 0. -1.
         11    1    3    3    0    0  0.97845511508E+01 -0.20380528927E+02 -0.10923249564E+02  0.25108181572E+02  0.51100000000E-03 0. -1.
        -11    1    3    3    0    0  0.28339461536E+01 -0.68509979092E+01  0.56389820814E+01  0.93148023237E+01  0.51100000000E-03 0.  1.
         12    1    3    3    0    0  0.83956604840E+00  0.34439640732E+02  0.16128799010E+02  0.38038557838E+02  0.00000000000E+00 0. -1.
</event>
<event>
 7    1  0.3196678E-013  0.7246162E+02  0.7816164E-02  0.1226708E+00
        -11   -1    0    0    0    0  0.00000000000E+00  0.00000000000E+00  0.45593999997E+02  0.45594000000E+02  0.51100000000E-03 0. -1.
         11   -1    0    0    0    0 -0.00000000000E+00 -0.00000000000E+00 -0.45593999997E+02  0.45594000000E+02  0.51100000000E-03 0.  1.
    9900012    2    1    2    0    0 -0.68175181311E+01  0.14171648652E+02  0.10166760415E+02  0.72461622979E+02  0.70000068632E+02 0.  0.
         12    1    1    2    0    0  0.68175181311E+01 -0.14171648652E+02 -0.10166760415E+02  0.18726377021E+02  0.00000000000E+00 0. -1.
         11    1    3    3    0    0 -0.17498336909E+02  0.26564085994E+02  0.12769074987E+02  0.34276693767E+02  0.51100000000E-03 0. -1.
        -11    1    3    3    0    0  0.54829558620E+00  0.11437829985E+02  0.26712886131E+01  0.11758416812E+02  0.51100000000E-03 0.  1.
         12    1    3    3    0    0  0.10132523192E+02 -0.23830267327E+02 -0.52736031845E+01  0.26426512401E+02  0.00000000000E+00 0. -1.
</event>
<event>
 7    1  0.3204020E-013  0.7246168E+02  0.7816164E-02  0.1226708E+00
        -11   -1    0    0    0    0  0.00000000000E+00  0.00000000000E+00  0.45593999997E+02  0.45594000000E+02  0.51100000000E-03 0.  1.
         11   -1    0    0    0    0 -0.00000000000E+00 -0.00000000000E+00 -0.45593999997E+02  0.45594000000E+02  0.51100000000E-03 0. -1.
    9900012    2    1    2    0    0 -0.13309122260E+02  0.12871230686E+02  0.28060350408E+01  0.72461677687E+02  0.70000139899E+02 0.  0.
         12    1    1    2    0    0  0.13309122260E+02 -0.12871230686E+02 -0.28060350408E+01  0.18726322313E+02  0.00000000000E+00 0. -1.
         11    1    3    3    0    0 -0.19847314717E+02  0.55098968149E+01 -0.73511500520E+00  0.20611047007E+02  0.51100000000E-03 0. -1.
        -11    1    3    3    0    0 -0.16013734880E+02  0.20090508847E+02 -0.15207303304E+00  0.25692243518E+02  0.51100000000E-03 0.  1.
         12    1    3    3    0    0  0.22551927337E+02 -0.12729174976E+02  0.36932230791E+01  0.26158387162E+02  0.00000000000E+00 0. -1.
</event>
<event>
 7    1  0.3196678E-013  0.7246159E+02  0.7816164E-02  0.1226708E+00
        -11   -1    0    0    0    0  0.00000000000E+00  0.00000000000E+00  0.45593999997E+02  0.45594000000E+02  0.51100000000E-03 0.  1.
         11   -1    0    0    0    0 -0.00000000000E+00 -0.00000000000E+00 -0.45593999997E+02  0.45594000000E+02  0.51100000000E-03 0. -1.
    9900012    2    1    2    0    0 -0.30461939435E+00  0.58735111417E+01  0.17778851778E+02  0.72461588260E+02  0.70000023403E+02 0.  0.
         12    1    1    2    0    0  0.30461939435E+00 -0.58735111417E+01 -0.17778851778E+02  0.18726411740E+02  0.00000000000E+00 0. -1.
         11    1    3    3    0    0  0.10945177573E+01  0.14664280313E+02 -0.13646896258E+02  0.20061826037E+02  0.51100000000E-03 0. -1.
        -11    1    3    3    0    0  0.92446359968E+01  0.81428247305E+01 -0.29144825502E+01  0.12659506234E+02  0.51100000000E-03 0.  1.
        -12    1    3    3    0    0 -0.10643773148E+02 -0.16933593902E+02  0.34340230587E+02  0.39740255988E+02  0.00000000000E+00 0.  1.
</event>
<event>
 7    1  0.3196678E-013  0.7246159E+02  0.7816164E-02  0.1226708E+00
        -11   -1    0    0    0    0  0.00000000000E+00  0.00000000000E+00  0.45593999997E+02  0.45594000000E+02  0.51100000000E-03 0.  1.
         11   -1    0    0    0    0 -0.00000000000E+00 -0.00000000000E+00 -0.45593999997E+02  0.45594000000E+02  0.51100000000E-03 0. -1.
    9900012    2    1    2    0    0  0.89575473310E+01 -0.13804020076E+02  0.89381100600E+01  0.72461589882E+02  0.70000025517E+02 0.  0.
         12    1    1    2    0    0 -0.89575473310E+01  0.13804020076E+02 -0.89381100600E+01  0.18726410118E+02  0.00000000000E+00 0. -1.
         11    1    3    3    0    0 -0.60664358873E+01 -0.77869661429E+01 -0.38265456308E+01  0.10586828506E+02  0.51100000000E-03 0. -1.
        -11    1    3    3    0    0  0.19685209432E+02 -0.27899812152E+02  0.18420610568E+02  0.38797240655E+02  0.51100000000E-03 0.  1.
         12    1    3    3    0    0 -0.46612262142E+01  0.21882758218E+02 -0.56559548777E+01  0.23077520721E+02  0.00000000000E+00 0. -1.
</event>
<event>
 7    1  0.3996755E-013  0.7246155E+02  0.7816164E-02  0.1226708E+00
        -11   -1    0    0    0    0  0.00000000000E+00  0.00000000000E+00  0.45593999997E+02  0.45594000000E+02  0.51100000000E-03 0. -1.
         11   -1    0    0    0    0 -0.00000000000E+00 -0.00000000000E+00 -0.45593999997E+02  0.45594000000E+02  0.51100000000E-03 0.  1.
    9900012    2    1    2    0    0  0.76983605725E+01 -0.50159334106E+01 -0.16317336631E+02  0.72461552974E+02  0.69999977437E+02 0.  0.
         12    1    1    2    0    0 -0.76983605725E+01  0.50159334106E+01  0.16317336631E+02  0.18726447026E+02  0.00000000000E+00 0. -1.
         11    1    3    3    0    0 -0.85357350786E+01 -0.17399370331E+01  0.11897210107E+02  0.14745499748E+02  0.51100000000E-03 0. -1.
        -11    1    3    3    0    0 -0.24799091729E+01 -0.15590119671E+02 -0.31345585576E+02  0.35096260716E+02  0.51100000000E-03 0.  1.
         12    1    3    3    0    0  0.18714004824E+02  0.12314123293E+02  0.31310388382E+01  0.22619792511E+02  0.00000000000E+00 0. -1.
</event>
<event>
 7    1  0.3196678E-013  0.7246158E+02  0.7816164E-02  0.1226708E+00
        -11   -1    0    0    0    0  0.00000000000E+00  0.00000000000E+00  0.45593999997E+02  0.45594000000E+02  0.51100000000E-03 0.  1.
         11   -1    0    0    0    0 -0.00000000000E+00 -0.00000000000E+00 -0.45593999997E+02  0.45594000000E+02  0.51100000000E-03 0. -1.
    9900012    2    1    2    0    0  0.13114963343E+02  0.69202031218E+01 -0.11436226829E+02  0.72461581260E+02  0.70000014284E+02 0.  0.
         12    1    1    2    0    0 -0.13114963343E+02 -0.69202031218E+01  0.11436226829E+02  0.18726418740E+02  0.00000000000E+00 0. -1.
         11    1    3    3    0    0  0.18851404808E+02  0.21214420907E+01 -0.29920380940E+01  0.19204902291E+02  0.51100000000E-03 0. -1.
        -11    1    3    3    0    0 -0.48403058528E+01 -0.49206273476E+01  0.21069293471E+02  0.22171068127E+02  0.51100000000E-03 0.  1.
         12    1    3    3    0    0 -0.89613561175E+00  0.97193883788E+01 -0.29513482207E+02  0.31085610842E+02  0.00000000000E+00 0. -1.
</event>
<event>
 7    1  0.3196678E-013  0.7246161E+02  0.7816164E-02  0.1226708E+00
        -11   -1    0    0    0    0  0.00000000000E+00  0.00000000000E+00  0.45593999997E+02  0.45594000000E+02  0.51100000000E-03 0.  1.
         11   -1    0    0    0    0 -0.00000000000E+00 -0.00000000000E+00 -0.45593999997E+02  0.45594000000E+02  0.51100000000E-03 0. -1.
    9900012    2    1    2    0    0 -0.28145519719E+01  0.17627940823E+02 -0.56578843320E+01  0.72461610717E+02  0.70000052658E+02 0.  0.
         12    1    1    2    0    0  0.28145519719E+01 -0.17627940823E+02  0.56578843320E+01  0.18726389283E+02  0.00000000000E+00 0. -1.
         11    1    3    3    0    0 -0.41339074837E+01  0.66390502601E+01 -0.28204397928E+01  0.83139076448E+01  0.51100000000E-03 0. -1.
        -11    1    3    3    0    0 -0.14061892302E+02 -0.28377553898E+01  0.25385130394E+02  0.29158095208E+02  0.51100000000E-03 0.  1.
         12    1    3    3    0    0  0.15381247814E+02  0.13826645953E+02 -0.28222574933E+02  0.34989607864E+02  0.00000000000E+00 0. -1.
</event>
<event>
 7    1  0.3196678E-013  0.7246157E+02  0.7816164E-02  0.1226708E+00
        -11   -1    0    0    0    0  0.00000000000E+00  0.00000000000E+00  0.45593999997E+02  0.45594000000E+02  0.51100000000E-03 0.  1.
         11   -1    0    0    0    0 -0.00000000000E+00 -0.00000000000E+00 -0.45593999997E+02  0.45594000000E+02  0.51100000000E-03 0. -1.
    9900012    2    1    2    0    0  0.76897033250E+01 -0.62328063913E+01  0.15896528781E+02  0.72461573752E+02  0.70000004504E+02 0.  0.
         12    1    1    2    0    0 -0.76897033250E+01  0.62328063913E+01 -0.15896528781E+02  0.18726426248E+02  0.00000000000E+00 0. -1.
         11    1    3    3    0    0 -0.11333504314E+02 -0.11970497924E+02 -0.98714028477E+01  0.19214206594E+02  0.51100000000E-03 0. -1.
        -11    1    3    3    0    0  0.68256276358E+01 -0.12807933891E+01 -0.11486991131E+02  0.13423136363E+02  0.51100000000E-03 0.  1.
        -12    1    3    3    0    0  0.12197580004E+02  0.70184849215E+01  0.37254922760E+02  0.39824230795E+02  0.00000000000E+00 0.  1.
</event>
<event>
 7    1  0.3196678E-013  0.7246158E+02  0.7816164E-02  0.1226708E+00
        -11   -1    0    0    0    0  0.00000000000E+00  0.00000000000E+00  0.45593999997E+02  0.45594000000E+02  0.51100000000E-03 0. -1.
         11   -1    0    0    0    0 -0.00000000000E+00 -0.00000000000E+00 -0.45593999997E+02  0.45594000000E+02  0.51100000000E-03 0.  1.
    9900012    2    1    2    0    0 -0.26795621629E+01  0.16804073468E+02  0.78180437544E+01  0.72461581585E+02  0.70000014708E+02 0.  0.
         12    1    1    2    0    0  0.26795621629E+01 -0.16804073468E+02 -0.78180437544E+01  0.18726418415E+02  0.00000000000E+00 0. -1.
         11    1    3    3    0    0  0.10922960174E+02 -0.54646661348E+01  0.12033936234E+02  0.17146114909E+02  0.51100000000E-03 0. -1.
        -11    1    3    3    0    0 -0.10237031584E+02 -0.55105107994E+01  0.16722330337E+02  0.20366611821E+02  0.51100000000E-03 0.  1.
         12    1    3    3    0    0 -0.33654907525E+01  0.27779250403E+02 -0.20938222817E+02  0.34948854855E+02  0.00000000000E+00 0. -1.
</event>
<event>
 7    1  0.3196678E-013  0.7246154E+02  0.7816164E-02  0.1226708E+00
        -11   -1    0    0    0    0  0.00000000000E+00  0.00000000000E+00  0.45593999997E+02  0.45594000000E+02  0.51100000000E-03 0. -1.
         11   -1    0    0    0    0 -0.00000000000E+00 -0.00000000000E+00 -0.45593999997E+02  0.45594000000E+02  0.51100000000E-03 0.  1.
    9900012    2    1    2    0    0  0.15259852314E+02  0.10341672403E+02 -0.32965017765E+01  0.72461542655E+02  0.69999963995E+02 0.  0.
         12    1    1    2    0    0 -0.15259852314E+02 -0.10341672403E+02  0.32965017765E+01  0.18726457345E+02  0.00000000000E+00 0. -1.
         11    1    3    3    0    0  0.66705693232E+01  0.90543670105E+00  0.16333372532E+02  0.17666221136E+02  0.51100000000E-03 0. -1.
        -11    1    3    3    0    0 -0.16616782963E+02  0.96092625156E+01  0.46999939874E+01  0.19762220166E+02  0.51100000000E-03 0.  1.
        -12    1    3    3    0    0  0.25206065954E+02 -0.17302681413E+00 -0.24329868296E+02  0.35033101353E+02  0.00000000000E+00 0.  1.
</event>
<event>
 7    1  0.3196678E-013  0.7246157E+02  0.7816164E-02  0.1226708E+00
        -11   -1    0    0    0    0  0.00000000000E+00  0.00000000000E+00  0.45593999997E+02  0.45594000000E+02  0.51100000000E-03 0.  1.
         11   -1    0    0    0    0 -0.00000000000E+00 -0.00000000000E+00 -0.45593999997E+02  0.45594000000E+02  0.51100000000E-03 0. -1.
    9900012    2    1    2    0    0  0.13963966261E+02  0.12476097594E+02 -0.18419104118E+00  0.72461567044E+02  0.69999995766E+02 0.  0.
         12    1    1    2    0    0 -0.13963966261E+02 -0.12476097594E+02  0.18419104118E+00  0.18726432956E+02  0.00000000000E+00 0. -1.
         11    1    3    3    0    0  0.22314399602E+02  0.21513331115E+02  0.11259010599E+02  0.32977585800E+02  0.51100000000E-03 0. -1.
        -11    1    3    3    0    0 -0.20380703273E+02  0.21719875066E+01 -0.21812858515E+01  0.20611855906E+02  0.51100000000E-03 0.  1.
        -12    1    3    3    0    0  0.12030269933E+02 -0.11209221028E+02 -0.92619157890E+01  0.18872125338E+02  0.00000000000E+00 0.  1.
</event>
<event>
 7    1  0.3196678E-013  0.7246156E+02  0.7816164E-02  0.1226708E+00
        -11   -1    0    0    0    0  0.00000000000E+00  0.00000000000E+00  0.45593999997E+02  0.45594000000E+02  0.51100000000E-03 0. -1.
         11   -1    0    0    0    0 -0.00000000000E+00 -0.00000000000E+00 -0.45593999997E+02  0.45594000000E+02  0.51100000000E-03 0.  1.
    9900012    2    1    2    0    0  0.88636550835E+01 -0.55813885667E+01  0.15522997622E+02  0.72461555197E+02  0.69999980333E+02 0.  0.
         12    1    1    2    0    0 -0.88636550835E+01  0.55813885667E+01 -0.15522997622E+02  0.18726444803E+02  0.00000000000E+00 0. -1.
         11    1    3    3    0    0 -0.13852030470E+02 -0.83383248760E+01 -0.48407704757E+01  0.16877187827E+02  0.51100000000E-03 0. -1.
        -11    1    3    3    0    0 -0.61357579085E+01 -0.64944765259E+01 -0.95005973839E+01  0.13041744568E+02  0.51100000000E-03 0.  1.
        -12    1    3    3    0    0  0.28851443462E+02  0.92514128352E+01  0.29864365482E+02  0.42542622803E+02  0.00000000000E+00 0.  1.
</event>
<event>
 7    1  0.3196678E-013  0.7246170E+02  0.7816164E-02  0.1226708E+00
        -11   -1    0    0    0    0  0.00000000000E+00  0.00000000000E+00  0.45593999997E+02  0.45594000000E+02  0.51100000000E-03 0.  1.
         11   -1    0    0    0    0 -0.00000000000E+00 -0.00000000000E+00 -0.45593999997E+02  0.45594000000E+02  0.51100000000E-03 0. -1.
    9900012    2    1    2    0    0  0.17738687802E+02 -0.37431172592E+01  0.46906794735E+01  0.72461696423E+02  0.70000164306E+02 0.  0.
         12    1    1    2    0    0 -0.17738687802E+02  0.37431172592E+01 -0.46906794735E+01  0.18726303577E+02  0.00000000000E+00 0. -1.
         11    1    3    3    0    0 -0.59423663199E+01  0.19419092946E+02 -0.97342379313E+01  0.22520396903E+02  0.51100000000E-03 0. -1.
        -11    1    3    3    0    0 -0.68746873270E+01 -0.13364833355E+02  0.86405684719E+01  0.17336075687E+02  0.51100000000E-03 0.  1.
         12    1    3    3    0    0  0.30555741448E+02 -0.97973768496E+01  0.57843489330E+01  0.32605223833E+02  0.00000000000E+00 0. -1.
</event>
<event>
 7    1  0.3196678E-013  0.7246163E+02  0.7816164E-02  0.1226708E+00
        -11   -1    0    0    0    0  0.00000000000E+00  0.00000000000E+00  0.45593999997E+02  0.45594000000E+02  0.51100000000E-03 0.  1.
         11   -1    0    0    0    0 -0.00000000000E+00 -0.00000000000E+00 -0.45593999997E+02  0.45594000000E+02  0.51100000000E-03 0. -1.
    9900012    2    1    2    0    0  0.71910747879E+01  0.17282007069E+02  0.54559614279E+00  0.72461628219E+02  0.70000075458E+02 0.  0.
         12    1    1    2    0    0 -0.71910747879E+01 -0.17282007069E+02 -0.54559614279E+00  0.18726371781E+02  0.00000000000E+00 0. -1.
         11    1    3    3    0    0 -0.33230828349E+00  0.48405869657E+01  0.14638524441E+01  0.50679951861E+01  0.51100000000E-03 0. -1.
        -11    1    3    3    0    0 -0.20661575878E+02  0.24697281061E+01  0.21579102783E+02  0.29977624186E+02  0.51100000000E-03 0.  1.
         12    1    3    3    0    0  0.28184958949E+02  0.99716919968E+01 -0.22497359084E+02  0.37416008847E+02  0.00000000000E+00 0. -1.
</event>
<event>
 7    1  0.3196678E-013  0.7246155E+02  0.7816164E-02  0.1226708E+00
        -11   -1    0    0    0    0  0.00000000000E+00  0.00000000000E+00  0.45593999997E+02  0.45594000000E+02  0.51100000000E-03 0. -1.
         11   -1    0    0    0    0 -0.00000000000E+00 -0.00000000000E+00 -0.45593999997E+02  0.45594000000E+02  0.51100000000E-03 0.  1.
    9900012    2    1    2    0    0 -0.38599988522E+01  0.98978778930E+01 -0.15421164108E+02  0.72461551314E+02  0.69999975275E+02 0.  0.
         12    1    1    2    0    0  0.38599988522E+01 -0.98978778930E+01  0.15421164108E+02  0.18726448686E+02  0.00000000000E+00 0. -1.
         11    1    3    3    0    0 -0.18828638248E+02  0.93361083225E+01 -0.18555725343E+02  0.28035610929E+02  0.51100000000E-03 0. -1.
        -11    1    3    3    0    0 -0.80777960369E+01 -0.58085584687E+01 -0.12410515971E+02  0.15906320984E+02  0.51100000000E-03 0.  1.
        -12    1    3    3    0    0  0.23046435433E+02  0.63703280393E+01  0.15545077206E+02  0.28519619402E+02  0.00000000000E+00 0.  1.
</event>
<event>
 7    1  0.3196678E-013  0.7246156E+02  0.7816164E-02  0.1226708E+00
        -11   -1    0    0    0    0  0.00000000000E+00  0.00000000000E+00  0.45593999997E+02  0.45594000000E+02  0.51100000000E-03 0.  1.
         11   -1    0    0    0    0 -0.00000000000E+00 -0.00000000000E+00 -0.45593999997E+02  0.45594000000E+02  0.51100000000E-03 0. -1.
    9900012    2    1    2    0    0  0.60267224599E+01  0.12491190707E+02  0.12582855092E+02  0.72461562241E+02  0.69999989509E+02 0.  0.
         12    1    1    2    0    0 -0.60267224599E+01 -0.12491190707E+02 -0.12582855092E+02  0.18726437759E+02  0.00000000000E+00 0. -1.
         11    1    3    3    0    0 -0.13378819259E+02 -0.19086486388E+02 -0.61097440761E+01  0.24095969380E+02  0.51100000000E-03 0. -1.
        -11    1    3    3    0    0  0.94969183622E+01  0.21005407383E+02 -0.19614126313E+01  0.23135810716E+02  0.51100000000E-03 0.  1.
        -12    1    3    3    0    0  0.99086233569E+01  0.10572269712E+02  0.20654011799E+02  0.25229782145E+02  0.00000000000E+00 0.  1.
</event>
<event>
 7    1  0.3196678E-013  0.7246132E+02  0.7816164E-02  0.1226709E+00
        -11   -1    0    0    0    0  0.00000000000E+00  0.00000000000E+00  0.45593999997E+02  0.45594000000E+02  0.51100000000E-03 0. -1.
         11   -1    0    0    0    0 -0.00000000000E+00 -0.00000000000E+00 -0.45593999997E+02  0.45594000000E+02  0.51100000000E-03 0.  1.
    9900012    2    1    2    0    0 -0.30843258166E+01 -0.23274662341E+01 -0.18323710984E+02  0.72461319861E+02  0.69999673763E+02 0.  0.
         12    1    1    2    0    0  0.30843258166E+01  0.23274662341E+01  0.18323710984E+02  0.18726680139E+02  0.00000000000E+00 0. -1.
         11    1    3    3    0    0  0.59195070147E+01 -0.24676019408E+02 -0.60438849076E+01  0.26085916548E+02  0.51100000000E-03 0. -1.
        -11    1    3    3    0    0 -0.15789421441E+02 -0.30664206560E+01  0.23823240113E+01  0.16259896464E+02  0.51100000000E-03 0.  1.
         12    1    3    3    0    0  0.67855886095E+01  0.25414973830E+02 -0.14662150088E+02  0.30115506848E+02  0.00000000000E+00 0. -1.
</event>
<event>
 7    1  0.3196678E-013  0.7246158E+02  0.7816164E-02  0.1226708E+00
        -11   -1    0    0    0    0  0.00000000000E+00  0.00000000000E+00  0.45593999997E+02  0.45594000000E+02  0.51100000000E-03 0.  1.
         11   -1    0    0    0    0 -0.00000000000E+00 -0.00000000000E+00 -0.45593999997E+02  0.45594000000E+02  0.51100000000E-03 0. -1.
    9900012    2    1    2    0    0  0.14096213603E+02  0.10994231645E+02 -0.55769408773E+01  0.72461584514E+02  0.70000018524E+02 0.  0.
         12    1    1    2    0    0 -0.14096213603E+02 -0.10994231645E+02  0.55769408773E+01  0.18726415486E+02  0.00000000000E+00 0. -1.
         11    1    3    3    0    0 -0.14093840871E+01 -0.15837497524E+02 -0.22179961107E+01  0.16054039938E+02  0.51100000000E-03 0. -1.
        -11    1    3    3    0    0 -0.41932223598E+01 -0.82756291752E+01 -0.12066075536E+02  0.15220359099E+02  0.51100000000E-03 0.  1.
        -12    1    3    3    0    0  0.19698820050E+02  0.35107358344E+02  0.87071307691E+01  0.41187185477E+02  0.00000000000E+00 0.  1.
</event>
<event>
 7    1  0.3196678E-013  0.7246172E+02  0.7816164E-02  0.1226708E+00
        -11   -1    0    0    0    0  0.00000000000E+00  0.00000000000E+00  0.45593999997E+02  0.45594000000E+02  0.51100000000E-03 0. -1.
         11   -1    0    0    0    0 -0.00000000000E+00 -0.00000000000E+00 -0.45593999997E+02  0.45594000000E+02  0.51100000000E-03 0.  1.
    9900012    2    1    2    0    0  0.16437627028E+02  0.89331174103E+01  0.82305997491E+00  0.72461719091E+02  0.70000193835E+02 0.  0.
         12    1    1    2    0    0 -0.16437627028E+02 -0.89331174103E+01 -0.82305997491E+00  0.18726280909E+02  0.00000000000E+00 0. -1.
         11    1    3    3    0    0 -0.86923761887E+01 -0.73034370364E+01 -0.61276935193E+00  0.11369832140E+02  0.51100000000E-03 0. -1.
        -11    1    3    3    0    0 -0.56514224866E+01 -0.91865579348E+01 -0.14529390081E+02  0.18095154026E+02  0.51100000000E-03 0.  1.
         12    1    3    3    0    0  0.30781425703E+02  0.25423112381E+02  0.15965219408E+02  0.42996732925E+02  0.00000000000E+00 0. -1.
</event>
<event>
 7    1  0.3196678E-013  0.7246157E+02  0.7816164E-02  0.1226708E+00
        -11   -1    0    0    0    0  0.00000000000E+00  0.00000000000E+00  0.45593999997E+02  0.45594000000E+02  0.51100000000E-03 0.  1.
         11   -1    0    0    0    0 -0.00000000000E+00 -0.00000000000E+00 -0.45593999997E+02  0.45594000000E+02  0.51100000000E-03 0. -1.
    9900012    2    1    2    0    0  0.40048222870E+01  0.10657072004E+02  0.14868329523E+02  0.72461574605E+02  0.70000005616E+02 0.  0.
         12    1    1    2    0    0 -0.40048222870E+01 -0.10657072004E+02 -0.14868329523E+02  0.18726425395E+02  0.00000000000E+00 0. -1.
         11    1    3    3    0    0 -0.37926592601E+01  0.22079046194E+02  0.11771114899E+02  0.25306672862E+02  0.51100000000E-03 0.  1.
        -11    1    3    3    0    0 -0.48495661391E+01 -0.10255754488E+02  0.21783764186E+02  0.24560764936E+02  0.51100000000E-03 0. -1.
         12    1    3    3    0    0  0.12647047686E+02 -0.11662197015E+01 -0.18686549562E+02  0.22594136808E+02  0.00000000000E+00 0. -1.
</event>
<event>
 7    1  0.3196678E-013  0.7246164E+02  0.7816164E-02  0.1226708E+00
        -11   -1    0    0    0    0  0.00000000000E+00  0.00000000000E+00  0.45593999997E+02  0.45594000000E+02  0.51100000000E-03 0.  1.
         11   -1    0    0    0    0 -0.00000000000E+00 -0.00000000000E+00 -0.45593999997E+02  0.45594000000E+02  0.51100000000E-03 0. -1.
    9900012    2    1    2    0    0  0.60039195551E+01 -0.13975567396E+02  0.10923056582E+02  0.72461636254E+02  0.70000085925E+02 0.  0.
         12    1    1    2    0    0 -0.60039195551E+01  0.13975567396E+02 -0.10923056582E+02  0.18726363746E+02  0.00000000000E+00 0. -1.
         11    1    3    3    0    0 -0.65933236806E+01 -0.36393880316E+01  0.63465528516E+01  0.98486443616E+01  0.51100000000E-03 0. -1.
        -11    1    3    3    0    0 -0.11935496752E+02 -0.25668624371E+02 -0.10248309149E+02  0.30105849938E+02  0.51100000000E-03 0.  1.
         12    1    3    3    0    0  0.24532739988E+02  0.15332445006E+02  0.14824812879E+02  0.32507141955E+02  0.00000000000E+00 0. -1.
</event>
<event>
 7    1  0.3196678E-013  0.7246097E+02  0.7816164E-02  0.1226710E+00
        -11   -1    0    0    0    0  0.00000000000E+00  0.00000000000E+00  0.45593999997E+02  0.45594000000E+02  0.51100000000E-03 0. -1.
         11   -1    0    0    0    0 -0.00000000000E+00 -0.00000000000E+00 -0.45593999997E+02  0.45594000000E+02  0.51100000000E-03 0.  1.
    9900012    2    1    2    0    0 -0.13449321096E+02  0.12400753313E+02  0.40048571973E+01  0.72460966016E+02  0.69999212811E+02 0.  0.
         12    1    1    2    0    0  0.13449321096E+02 -0.12400753313E+02 -0.40048571973E+01  0.18727033984E+02  0.00000000000E+00 0. -1.
         11    1    3    3    0    0  0.59778863301E+01 -0.20720111124E+02  0.15920317629E+02  0.26805123458E+02  0.51100000000E-03 0. -1.
        -11    1    3    3    0    0  0.12157159862E+01 -0.23510290525E+01  0.66627849115E+00  0.27293278025E+01  0.51100000000E-03 0.  1.
        -12    1    3    3    0    0 -0.20642923412E+02  0.35471893489E+02 -0.12581738922E+02  0.42926514755E+02  0.00000000000E+00 0.  1.
</event>
<event>
 7    1  0.3196678E-013  0.7246157E+02  0.7816164E-02  0.1226708E+00
        -11   -1    0    0    0    0  0.00000000000E+00  0.00000000000E+00  0.45593999997E+02  0.45594000000E+02  0.51100000000E-03 0.  1.
         11   -1    0    0    0    0 -0.00000000000E+00 -0.00000000000E+00 -0.45593999997E+02  0.45594000000E+02  0.51100000000E-03 0. -1.
    9900012    2    1    2    0    0 -0.15119672468E+02 -0.10684743321E+02 -0.28126209708E+01  0.72461572895E+02  0.70000003388E+02 0.  0.
         12    1    1    2    0    0  0.15119672468E+02  0.10684743321E+02  0.28126209708E+01  0.18726427105E+02  0.00000000000E+00 0. -1.
         11    1    3    3    0    0 -0.73464813590E+01 -0.23805948734E+01  0.12341001673E+01  0.78205513740E+01  0.51100000000E-03 0. -1.
        -11    1    3    3    0    0 -0.21634986502E+02 -0.16823211817E+02  0.21170376769E+02  0.34630592683E+02  0.51100000000E-03 0.  1.
         12    1    3    3    0    0  0.13861795392E+02  0.85190633694E+01 -0.25217097907E+02  0.30010428838E+02  0.00000000000E+00 0. -1.
</event>
<event>
 7    1  0.3196678E-013  0.7246139E+02  0.7816164E-02  0.1226708E+00
        -11   -1    0    0    0    0  0.00000000000E+00  0.00000000000E+00  0.45593999997E+02  0.45594000000E+02  0.51100000000E-03 0.  1.
         11   -1    0    0    0    0 -0.00000000000E+00 -0.00000000000E+00 -0.45593999997E+02  0.45594000000E+02  0.51100000000E-03 0. -1.
    9900012    2    1    2    0    0  0.60165774002E+01  0.11963307415E+02  0.13090682967E+02  0.72461390364E+02  0.69999765607E+02 0.  0.
         12    1    1    2    0    0 -0.60165774002E+01 -0.11963307415E+02 -0.13090682967E+02  0.18726609636E+02  0.00000000000E+00 0. -1.
         11    1    3    3    0    0 -0.16348240977E+00 -0.56333742172E+01  0.21182592885E+02  0.21919486152E+02  0.51100000000E-03 0. -1.
        -11    1    3    3    0    0  0.19283384520E+02 -0.63323192996E+01  0.40227404933E+01  0.20691293521E+02  0.51100000000E-03 0.  1.
         12    1    3    3    0    0 -0.13103324710E+02  0.23929000932E+02 -0.12114650411E+02  0.29850610691E+02  0.00000000000E+00 0. -1.
</event>
<event>
 7    1  0.3196678E-013  0.7246157E+02  0.7816164E-02  0.1226708E+00
        -11   -1    0    0    0    0  0.00000000000E+00  0.00000000000E+00  0.45593999997E+02  0.45594000000E+02  0.51100000000E-03 0. -1.
         11   -1    0    0    0    0 -0.00000000000E+00 -0.00000000000E+00 -0.45593999997E+02  0.45594000000E+02  0.51100000000E-03 0.  1.
    9900012    2    1    2    0    0 -0.93848062679E+01  0.15792961576E+02 -0.36313969403E+01  0.72461567672E+02  0.69999996583E+02 0.  0.
         12    1    1    2    0    0  0.93848062679E+01 -0.15792961576E+02  0.36313969403E+01  0.18726432328E+02  0.00000000000E+00 0. -1.
         11    1    3    3    0    0  0.72732132097E+01  0.39434724834E+01 -0.10347463626E+02  0.13248419127E+02  0.51100000000E-03 0. -1.
        -11    1    3    3    0    0 -0.99863740831E+00  0.26856903644E+02  0.20247324372E+02  0.33648843881E+02  0.51100000000E-03 0.  1.
         12    1    3    3    0    0 -0.15659382069E+02 -0.15007414552E+02 -0.13531257687E+02  0.25564304663E+02  0.00000000000E+00 0. -1.
</event>
<event>
 7    1  0.3196678E-013  0.7246156E+02  0.7816164E-02  0.1226708E+00
        -11   -1    0    0    0    0  0.00000000000E+00  0.00000000000E+00  0.45593999997E+02  0.45594000000E+02  0.51100000000E-03 0. -1.
         11   -1    0    0    0    0 -0.00000000000E+00 -0.00000000000E+00 -0.45593999997E+02  0.45594000000E+02  0.51100000000E-03 0.  1.
    9900012    2    1    2    0    0 -0.16047249697E+02 -0.29568980270E+01  0.91881568438E+01  0.72461556265E+02  0.69999981724E+02 0.  0.
         12    1    1    2    0    0  0.16047249697E+02  0.29568980270E+01 -0.91881568438E+01  0.18726443735E+02  0.00000000000E+00 0. -1.
         11    1    3    3    0    0 -0.61892697116E+01 -0.10725058067E+02  0.18085814423E+01  0.12514187836E+02  0.51100000000E-03 0. -1.
        -11    1    3    3    0    0  0.17381315703E+02 -0.22500780002E+01 -0.15181029355E+02  0.23186992887E+02  0.51100000000E-03 0.  1.
         12    1    3    3    0    0 -0.27239295688E+02  0.10018238040E+02  0.22560604757E+02  0.36760375542E+02  0.00000000000E+00 0. -1.
</event>
<event>
 7    1  0.3196678E-013  0.7246179E+02  0.7816164E-02  0.1226707E+00
        -11   -1    0    0    0    0  0.00000000000E+00  0.00000000000E+00  0.45593999997E+02  0.45594000000E+02  0.51100000000E-03 0.  1.
         11   -1    0    0    0    0 -0.00000000000E+00 -0.00000000000E+00 -0.45593999997E+02  0.45594000000E+02  0.51100000000E-03 0. -1.
    9900012    2    1    2    0    0  0.97473928732E+01  0.99335486226E+01  0.12529323493E+02  0.72461788337E+02  0.70000284040E+02 0.  0.
         12    1    1    2    0    0 -0.97473928732E+01 -0.99335486226E+01 -0.12529323493E+02  0.18726211663E+02  0.00000000000E+00 0. -1.
         11    1    3    3    0    0  0.14217540700E+02 -0.65758206402E+01  0.93593520670E+01  0.18247667029E+02  0.51100000000E-03 0. -1.
        -11    1    3    3    0    0  0.20421931797E+02  0.18563738028E+02  0.80853990083E+01  0.28758326538E+02  0.51100000000E-03 0.  1.
         12    1    3    3    0    0 -0.24892079623E+02 -0.20543687656E+01 -0.49154275818E+01  0.25455794769E+02  0.00000000000E+00 0. -1.
</event>
<event>
 7    1  0.3196678E-013  0.7246151E+02  0.7816164E-02  0.1226708E+00
        -11   -1    0    0    0    0  0.00000000000E+00  0.00000000000E+00  0.45593999997E+02  0.45594000000E+02  0.51100000000E-03 0.  1.
         11   -1    0    0    0    0 -0.00000000000E+00 -0.00000000000E+00 -0.45593999997E+02  0.45594000000E+02  0.51100000000E-03 0. -1.
    9900012    2    1    2    0    0  0.28561133346E+01 -0.91072610974E+01  0.16111544537E+02  0.72461509260E+02  0.69999920491E+02 0.  0.
         12    1    1    2    0    0 -0.28561133346E+01  0.91072610974E+01 -0.16111544537E+02  0.18726490740E+02  0.00000000000E+00 0. -1.
         11    1    3    3    0    0  0.15736678561E+01 -0.94005237313E+01  0.15739177358E+02  0.18400216877E+02  0.51100000000E-03 0. -1.
        -11    1    3    3    0    0  0.43883743687E+01 -0.15410680174E+02  0.21960968995E+02  0.27185125574E+02  0.51100000000E-03 0.  1.
         12    1    3    3    0    0 -0.31059288902E+01  0.15703942808E+02 -0.21588601816E+02  0.26876166809E+02  0.00000000000E+00 0. -1.
</event>
<event>
 7    1  0.3196678E-013  0.7246160E+02  0.7816164E-02  0.1226708E+00
        -11   -1    0    0    0    0  0.00000000000E+00  0.00000000000E+00  0.45593999997E+02  0.45594000000E+02  0.51100000000E-03 0. -1.
         11   -1    0    0    0    0 -0.00000000000E+00 -0.00000000000E+00 -0.45593999997E+02  0.45594000000E+02  0.51100000000E-03 0.  1.
    9900012    2    1    2    0    0 -0.90804976624E+01 -0.73050440430E+01 -0.14658072729E+02  0.72461596117E+02  0.70000033639E+02 0.  0.
         12    1    1    2    0    0  0.90804976624E+01  0.73050440430E+01  0.14658072729E+02  0.18726403883E+02  0.00000000000E+00 0. -1.
         11    1    3    3    0    0 -0.43429205491E+01 -0.19061850500E+02 -0.60927360422E+01  0.20477708273E+02  0.51100000000E-03 0. -1.
        -11    1    3    3    0    0  0.20096060223E+02 -0.40585760021E+01 -0.93457714279E+01  0.22531469537E+02  0.51100000000E-03 0.  1.
         12    1    3    3    0    0 -0.24833637337E+02  0.15815382459E+02  0.78043474127E+00  0.29452418306E+02  0.00000000000E+00 0. -1.
</event>
<event>
 7    1  0.3196678E-013  0.7246158E+02  0.7816164E-02  0.1226708E+00
        -11   -1    0    0    0    0  0.00000000000E+00  0.00000000000E+00  0.45593999997E+02  0.45594000000E+02  0.51100000000E-03 0.  1.
         11   -1    0    0    0    0 -0.00000000000E+00 -0.00000000000E+00 -0.45593999997E+02  0.45594000000E+02  0.51100000000E-03 0. -1.
    9900012    2    1    2    0    0  0.77892322989E+01  0.10088195214E+02  0.13719874498E+02  0.72461580729E+02  0.70000013593E+02 0.  0.
         12    1    1    2    0    0 -0.77892322989E+01 -0.10088195214E+02 -0.13719874498E+02  0.18726419271E+02  0.00000000000E+00 0. -1.
         11    1    3    3    0    0  0.98080991222E+01 -0.12113821975E+02 -0.16443708133E+01  0.15673144128E+02  0.51100000000E-03 0. -1.
        -11    1    3    3    0    0  0.44502333567E+01 -0.14527658027E+02 -0.25626490654E+01  0.15408588358E+02  0.51100000000E-03 0.  1.
        -12    1    3    3    0    0 -0.64691001800E+01  0.36729675216E+02  0.17926894376E+02  0.41379848243E+02  0.00000000000E+00 0.  1.
</event>
<event>
 7    1  0.3196678E-013  0.7246158E+02  0.7816164E-02  0.1226708E+00
        -11   -1    0    0    0    0  0.00000000000E+00  0.00000000000E+00  0.45593999997E+02  0.45594000000E+02  0.51100000000E-03 0. -1.
         11   -1    0    0    0    0 -0.00000000000E+00 -0.00000000000E+00 -0.45593999997E+02  0.45594000000E+02  0.51100000000E-03 0.  1.
    9900012    2    1    2    0    0 -0.14740141128E+02 -0.77579045672E+01 -0.85569937970E+01  0.72461575179E+02  0.70000006363E+02 0.  0.
         12    1    1    2    0    0  0.14740141128E+02  0.77579045672E+01  0.85569937970E+01  0.18726424821E+02  0.00000000000E+00 0. -1.
         11    1    3    3    0    0 -0.16733025692E+02 -0.14175015681E+02  0.75565929748E+01  0.23195415841E+02  0.51100000000E-03 0. -1.
        -11    1    3    3    0    0 -0.15934734333E+02 -0.29675119689E+01  0.77599786876E+01  0.17970507923E+02  0.51100000000E-03 0.  1.
         12    1    3    3    0    0  0.17927618897E+02  0.93846230830E+01 -0.23873565459E+02  0.31295651415E+02  0.00000000000E+00 0. -1.
</event>
<event>
 7    1  0.3196678E-013  0.7246156E+02  0.7816164E-02  0.1226708E+00
        -11   -1    0    0    0    0  0.00000000000E+00  0.00000000000E+00  0.45593999997E+02  0.45594000000E+02  0.51100000000E-03 0.  1.
         11   -1    0    0    0    0 -0.00000000000E+00 -0.00000000000E+00 -0.45593999997E+02  0.45594000000E+02  0.51100000000E-03 0. -1.
    9900012    2    1    2    0    0 -0.18780520364E+01  0.59066913148E+01  0.17670973444E+02  0.72461564562E+02  0.69999992533E+02 0.  0.
         12    1    1    2    0    0  0.18780520364E+01 -0.59066913148E+01 -0.17670973444E+02  0.18726435438E+02  0.00000000000E+00 0. -1.
         11    1    3    3    0    0 -0.19074918315E+01  0.91090653492E+01 -0.23513402898E+02  0.25288212921E+02  0.51100000000E-03 0. -1.
        -11    1    3    3    0    0  0.18623616121E+00  0.97096553712E+01  0.13549365401E+02  0.16670254778E+02  0.51100000000E-03 0.  1.
        -12    1    3    3    0    0 -0.15679636617E+00 -0.12912029406E+02  0.27635010942E+02  0.30503096863E+02  0.00000000000E+00 0.  1.
</event>
<event>
 7    1  0.3196678E-013  0.7246163E+02  0.7816164E-02  0.1226708E+00
        -11   -1    0    0    0    0  0.00000000000E+00  0.00000000000E+00  0.45593999997E+02  0.45594000000E+02  0.51100000000E-03 0.  1.
         11   -1    0    0    0    0 -0.00000000000E+00 -0.00000000000E+00 -0.45593999997E+02  0.45594000000E+02  0.51100000000E-03 0. -1.
    9900012    2    1    2    0    0 -0.15539205588E+02  0.40468289053E+01  0.96349945976E+01  0.72461632082E+02  0.70000080490E+02 0.  0.
         12    1    1    2    0    0  0.15539205588E+02 -0.40468289053E+01 -0.96349945976E+01  0.18726367918E+02  0.00000000000E+00 0. -1.
         11    1    3    3    0    0 -0.25391260323E+02  0.15903271043E+02  0.23896356333E+02  0.38323178064E+02  0.51100000000E-03 0.  1.
        -11    1    3    3    0    0  0.65647242605E+01 -0.66749626924E+01  0.72041035618E+01  0.11813121516E+02  0.51100000000E-03 0. -1.
        -12    1    3    3    0    0  0.32873304739E+01 -0.51814794452E+01 -0.21465465298E+02  0.22325332502E+02  0.00000000000E+00 0.  1.
</event>
<event>
 7    1  0.3196678E-013  0.7246154E+02  0.7816164E-02  0.1226708E+00
        -11   -1    0    0    0    0  0.00000000000E+00  0.00000000000E+00  0.45593999997E+02  0.45594000000E+02  0.51100000000E-03 0. -1.
         11   -1    0    0    0    0 -0.00000000000E+00 -0.00000000000E+00 -0.45593999997E+02  0.45594000000E+02  0.51100000000E-03 0.  1.
    9900012    2    1    2    0    0 -0.13666197512E+02 -0.40186900732E+01  0.12155882716E+02  0.72461539871E+02  0.69999960369E+02 0.  0.
         12    1    1    2    0    0  0.13666197512E+02  0.40186900732E+01 -0.12155882716E+02  0.18726460129E+02  0.00000000000E+00 0. -1.
         11    1    3    3    0    0  0.24134220939E+00 -0.37785512765E+01  0.58431096415E+01  0.69625876192E+01  0.51100000000E-03 0. -1.
        -11    1    3    3    0    0 -0.39248488433E+02  0.38576124361E+01  0.54685746822E+01  0.39814951052E+02  0.51100000000E-03 0.  1.
         12    1    3    3    0    0  0.25340948711E+02 -0.40977512328E+01  0.84419839190E+00  0.25684001200E+02  0.00000000000E+00 0. -1.
</event>
<event>
 7    1  0.3196678E-013  0.7246151E+02  0.7816164E-02  0.1226708E+00
        -11   -1    0    0    0    0  0.00000000000E+00  0.00000000000E+00  0.45593999997E+02  0.45594000000E+02  0.51100000000E-03 0. -1.
         11   -1    0    0    0    0 -0.00000000000E+00 -0.00000000000E+00 -0.45593999997E+02  0.45594000000E+02  0.51100000000E-03 0.  1.
    9900012    2    1    2    0    0  0.18030672368E+02 -0.39621545464E+00 -0.50417501702E+01  0.72461511340E+02  0.69999923201E+02 0.  0.
         12    1    1    2    0    0 -0.18030672368E+02  0.39621545464E+00  0.50417501702E+01  0.18726488660E+02  0.00000000000E+00 0. -1.
         11    1    3    3    0    0  0.19406144246E+02 -0.22656049638E+02 -0.41437435021E+01  0.30117530280E+02  0.51100000000E-03 0. -1.
        -11    1    3    3    0    0 -0.11904015695E+02 -0.22708989144E+01  0.76294907425E+01  0.14320324745E+02  0.51100000000E-03 0.  1.
         12    1    3    3    0    0  0.10528543817E+02  0.24530733098E+02 -0.85274974106E+01  0.28023656316E+02  0.00000000000E+00 0. -1.
</event>
<event>
 7    1  0.3196678E-013  0.7246158E+02  0.7816164E-02  0.1226708E+00
        -11   -1    0    0    0    0  0.00000000000E+00  0.00000000000E+00  0.45593999997E+02  0.45594000000E+02  0.51100000000E-03 0. -1.
         11   -1    0    0    0    0 -0.00000000000E+00 -0.00000000000E+00 -0.45593999997E+02  0.45594000000E+02  0.51100000000E-03 0.  1.
    9900012    2    1    2    0    0 -0.11373816932E+02  0.56261632001E+01 -0.13771766292E+02  0.72461575601E+02  0.70000006913E+02 0.  0.
         12    1    1    2    0    0  0.11373816932E+02 -0.56261632001E+01  0.13771766292E+02  0.18726424399E+02  0.00000000000E+00 0. -1.
         11    1    3    3    0    0 -0.15480764741E+02 -0.20714393088E+01 -0.78876292697E+01  0.17497417910E+02  0.51100000000E-03 0. -1.
        -11    1    3    3    0    0 -0.20772012992E+02 -0.99288564022E+01 -0.80682095274E+01  0.24395793048E+02  0.51100000000E-03 0.  1.
        -12    1    3    3    0    0  0.24878960801E+02  0.17626458911E+02  0.21840725048E+01  0.30568364644E+02  0.00000000000E+00 0.  1.
</event>
<event>
 7    1  0.3196678E-013  0.7246157E+02  0.7816164E-02  0.1226708E+00
        -11   -1    0    0    0    0  0.00000000000E+00  0.00000000000E+00  0.45593999997E+02  0.45594000000E+02  0.51100000000E-03 0. -1.
         11   -1    0    0    0    0 -0.00000000000E+00 -0.00000000000E+00 -0.45593999997E+02  0.45594000000E+02  0.51100000000E-03 0.  1.
    9900012    2    1    2    0    0  0.42616759119E+01  0.12503630412E+01 -0.18192140220E+02  0.72461568010E+02  0.69999997024E+02 0.  0.
         12    1    1    2    0    0 -0.42616759119E+01 -0.12503630412E+01  0.18192140220E+02  0.18726431990E+02  0.00000000000E+00 0. -1.
         11    1    3    3    0    0  0.62706551283E+01 -0.49640398912E+01 -0.78297285488E+00  0.80359103114E+01  0.51100000000E-03 0. -1.
        -11    1    3    3    0    0  0.27579692748E+02  0.12947276523E+02 -0.23735001070E+01  0.30559858057E+02  0.51100000000E-03 0.  1.
         12    1    3    3    0    0 -0.29588671965E+02 -0.67328735909E+01 -0.15035667258E+02  0.33865799641E+02  0.00000000000E+00 0. -1.
</event>
<event>
 7    1  0.3196678E-013  0.7246156E+02  0.7816164E-02  0.1226708E+00
        -11   -1    0    0    0    0  0.00000000000E+00  0.00000000000E+00  0.45593999997E+02  0.45594000000E+02  0.51100000000E-03 0.  1.
         11   -1    0    0    0    0 -0.00000000000E+00 -0.00000000000E+00 -0.45593999997E+02  0.45594000000E+02  0.51100000000E-03 0. -1.
    9900012    2    1    2    0    0 -0.29039931526E+01  0.15486280549E+02 -0.10120346284E+02  0.72461562261E+02  0.69999989535E+02 0.  0.
         12    1    1    2    0    0  0.29039931526E+01 -0.15486280549E+02  0.10120346284E+02  0.18726437739E+02  0.00000000000E+00 0. -1.
         11    1    3    3    0    0 -0.12467168507E+02  0.32851821186E+01  0.79932577601E+01  0.15169537963E+02  0.51100000000E-03 0. -1.
        -11    1    3    3    0    0 -0.18700633764E+02  0.11666325742E+02  0.26739171371E+01  0.22202853254E+02  0.51100000000E-03 0.  1.
         12    1    3    3    0    0  0.28263809118E+02  0.53477268890E+00 -0.20787521181E+02  0.35089171044E+02  0.00000000000E+00 0. -1.
</event>
<event>
 7    1  0.3196678E-013  0.7246160E+02  0.7816164E-02  0.1226708E+00
        -11   -1    0    0    0    0  0.00000000000E+00  0.00000000000E+00  0.45593999997E+02  0.45594000000E+02  0.51100000000E-03 0.  1.
         11   -1    0    0    0    0 -0.00000000000E+00 -0.00000000000E+00 -0.45593999997E+02  0.45594000000E+02  0.51100000000E-03 0. -1.
    9900012    2    1    2    0    0 -0.14449140650E+02  0.11911462180E+02 -0.13240091432E+00  0.72461598136E+02  0.70000036269E+02 0.  0.
         12    1    1    2    0    0  0.14449140650E+02 -0.11911462180E+02  0.13240091432E+00  0.18726401864E+02  0.00000000000E+00 0. -1.
         11    1    3    3    0    0 -0.11625146553E+01  0.42666393864E+01 -0.89889516964E+01  0.10017829348E+02  0.51100000000E-03 0. -1.
        -11    1    3    3    0    0  0.75727227668E+01  0.26556900753E+02 -0.90678895746E+01  0.29066161241E+02  0.51100000000E-03 0.  1.
         12    1    3    3    0    0 -0.20859348761E+02 -0.18912077959E+02  0.17924440357E+02  0.33377607547E+02  0.00000000000E+00 0. -1.
</event>
<event>
 7    1  0.3196678E-013  0.7246160E+02  0.7816164E-02  0.1226708E+00
        -11   -1    0    0    0    0  0.00000000000E+00  0.00000000000E+00  0.45593999997E+02  0.45594000000E+02  0.51100000000E-03 0.  1.
         11   -1    0    0    0    0 -0.00000000000E+00 -0.00000000000E+00 -0.45593999997E+02  0.45594000000E+02  0.51100000000E-03 0. -1.
    9900012    2    1    2    0    0  0.13604730244E+02 -0.10112379541E+02  0.79579677126E+01  0.72461597379E+02  0.70000035283E+02 0.  0.
         12    1    1    2    0    0 -0.13604730244E+02  0.10112379541E+02 -0.79579677126E+01  0.18726402621E+02  0.00000000000E+00 0. -1.
         11    1    3    3    0    0 -0.11202409332E+01  0.10778952389E+01 -0.90189024990E+01  0.91519069293E+01  0.51100000000E-03 0. -1.
        -11    1    3    3    0    0  0.27835035335E+02 -0.24820830679E+02 -0.87264133716E+00  0.37304481378E+02  0.51100000000E-03 0.  1.
         12    1    3    3    0    0 -0.13110064158E+02  0.13630555899E+02  0.17849511549E+02  0.26005209072E+02  0.00000000000E+00 0. -1.
</event>
<event>
 7    1  0.3196678E-013  0.7246142E+02  0.7816164E-02  0.1226708E+00
        -11   -1    0    0    0    0  0.00000000000E+00  0.00000000000E+00  0.45593999997E+02  0.45594000000E+02  0.51100000000E-03 0.  1.
         11   -1    0    0    0    0 -0.00000000000E+00 -0.00000000000E+00 -0.45593999997E+02  0.45594000000E+02  0.51100000000E-03 0. -1.
    9900012    2    1    2    0    0 -0.13911875656E+02 -0.10817264202E+02 -0.63349309403E+01  0.72461418916E+02  0.69999802802E+02 0.  0.
         12    1    1    2    0    0  0.13911875656E+02  0.10817264202E+02  0.63349309403E+01  0.18726581084E+02  0.00000000000E+00 0. -1.
         11    1    3    3    0    0 -0.51052061051E+01  0.60589547281E+01 -0.29245184886E+02  0.30299420804E+02  0.51100000000E-03 0. -1.
        -11    1    3    3    0    0  0.51547313228E+01 -0.15292526404E+02  0.10455884815E+01  0.16171761634E+02  0.51100000000E-03 0.  1.
        -12    1    3    3    0    0 -0.13961400873E+02 -0.15836925260E+01  0.21864665464E+02  0.25990236479E+02  0.00000000000E+00 0.  1.
</event>
<event>
 7    1  0.3196678E-013  0.7246157E+02  0.7816164E-02  0.1226708E+00
        -11   -1    0    0    0    0  0.00000000000E+00  0.00000000000E+00  0.45593999997E+02  0.45594000000E+02  0.51100000000E-03 0. -1.
         11   -1    0    0    0    0 -0.00000000000E+00 -0.00000000000E+00 -0.45593999997E+02  0.45594000000E+02  0.51100000000E-03 0.  1.
    9900012    2    1    2    0    0 -0.18643758353E+02  0.51603400477E+00 -0.16802539868E+01  0.72461567609E+02  0.69999996502E+02 0.  0.
         12    1    1    2    0    0  0.18643758353E+02 -0.51603400477E+00  0.16802539868E+01  0.18726432391E+02  0.00000000000E+00 0. -1.
         11    1    3    3    0    0 -0.35943142937E+01 -0.60481474061E+01  0.53917023157E+01  0.88639515122E+01  0.51100000000E-03 0. -1.
        -11    1    3    3    0    0 -0.22364019036E+02 -0.16344260101E+02 -0.21929950761E+02  0.35329972068E+02  0.51100000000E-03 0.  1.
        -12    1    3    3    0    0  0.73145749769E+01  0.22908441512E+02  0.14857994458E+02  0.28267644029E+02  0.00000000000E+00 0.  1.
</event>
<event>
 7    1  0.3196678E-013  0.7246158E+02  0.7816164E-02  0.1226708E+00
        -11   -1    0    0    0    0  0.00000000000E+00  0.00000000000E+00  0.45593999997E+02  0.45594000000E+02  0.51100000000E-03 0. -1.
         11   -1    0    0    0    0 -0.00000000000E+00 -0.00000000000E+00 -0.45593999997E+02  0.45594000000E+02  0.51100000000E-03 0.  1.
    9900012    2    1    2    0    0  0.18090770530E+02  0.28556823739E+01  0.39048754409E+01  0.72461576092E+02  0.70000007552E+02 0.  0.
         12    1    1    2    0    0 -0.18090770530E+02 -0.28556823739E+01 -0.39048754409E+01  0.18726423908E+02  0.00000000000E+00 0. -1.
         11    1    3    3    0    0  0.12666628357E+02  0.10627665763E+02  0.19360502751E+02  0.25460161440E+02  0.51100000000E-03 0. -1.
        -11    1    3    3    0    0  0.10495516506E+02 -0.18326190938E+02  0.65186905183E+01  0.22102001433E+02  0.51100000000E-03 0.  1.
        -12    1    3    3    0    0 -0.50713743325E+01  0.10554207549E+02 -0.21974317829E+02  0.24899413219E+02  0.00000000000E+00 0.  1.
</event>
<event>
 7    1  0.3196678E-013  0.7246159E+02  0.7816164E-02  0.1226708E+00
        -11   -1    0    0    0    0  0.00000000000E+00  0.00000000000E+00  0.45593999997E+02  0.45594000000E+02  0.51100000000E-03 0. -1.
         11   -1    0    0    0    0 -0.00000000000E+00 -0.00000000000E+00 -0.45593999997E+02  0.45594000000E+02  0.51100000000E-03 0.  1.
    9900012    2    1    2    0    0  0.11724620931E+02  0.14028658839E+02  0.40507496358E+01  0.72461586104E+02  0.70000020595E+02 0.  0.
         12    1    1    2    0    0 -0.11724620931E+02 -0.14028658839E+02 -0.40507496358E+01  0.18726413896E+02  0.00000000000E+00 0. -1.
         11    1    3    3    0    0  0.30611032299E+02 -0.77069980468E+01  0.80329834439E+00  0.31576548351E+02  0.51100000000E-03 0. -1.
        -11    1    3    3    0    0 -0.67629298181E+01 -0.43958017136E+01  0.83726027021E+01  0.11625866363E+02  0.51100000000E-03 0.  1.
        -12    1    3    3    0    0 -0.12123481550E+02  0.26131458599E+02 -0.51251514106E+01  0.29259171390E+02  0.00000000000E+00 0.  1.
</event>
<event>
 7    1  0.3196678E-013  0.7246160E+02  0.7816164E-02  0.1226708E+00
        -11   -1    0    0    0    0  0.00000000000E+00  0.00000000000E+00  0.45593999997E+02  0.45594000000E+02  0.51100000000E-03 0.  1.
         11   -1    0    0    0    0 -0.00000000000E+00 -0.00000000000E+00 -0.45593999997E+02  0.45594000000E+02  0.51100000000E-03 0. -1.
    9900012    2    1    2    0    0 -0.99942162180E+01  0.15303098403E+02  0.40754133256E+01  0.72461596920E+02  0.70000034684E+02 0.  0.
         12    1    1    2    0    0  0.99942162180E+01 -0.15303098403E+02 -0.40754133256E+01  0.18726403080E+02  0.00000000000E+00 0. -1.
         11    1    3    3    0    0  0.49296411529E+01  0.30371735479E+02 -0.98279182165E+01  0.32300644802E+02  0.51100000000E-03 0. -1.
        -11    1    3    3    0    0 -0.51085619691E+00  0.50388525847E+01 -0.63965885022E+01  0.81588819180E+01  0.51100000000E-03 0.  1.
        -12    1    3    3    0    0 -0.14413001174E+02 -0.20107489660E+02  0.20299920044E+02  0.32002070200E+02  0.00000000000E+00 0.  1.
</event>
<event>
 7    1  0.3196678E-013  0.7246155E+02  0.7816164E-02  0.1226708E+00
        -11   -1    0    0    0    0  0.00000000000E+00  0.00000000000E+00  0.45593999997E+02  0.45594000000E+02  0.51100000000E-03 0.  1.
         11   -1    0    0    0    0 -0.00000000000E+00 -0.00000000000E+00 -0.45593999997E+02  0.45594000000E+02  0.51100000000E-03 0. -1.
    9900012    2    1    2    0    0 -0.13043407113E+02  0.13188435712E+02  0.25718963441E+01  0.72461549283E+02  0.69999972629E+02 0.  0.
         12    1    1    2    0    0  0.13043407113E+02 -0.13188435712E+02 -0.25718963441E+01  0.18726450717E+02  0.00000000000E+00 0. -1.
         11    1    3    3    0    0  0.37540326711E+01 -0.13602903988E+02 -0.25157870449E+02  0.28845280446E+02  0.51100000000E-03 0. -1.
        -11    1    3    3    0    0 -0.92352302089E+00  0.10263126201E+02  0.54609496766E+01  0.11662187866E+02  0.51100000000E-03 0.  1.
        -12    1    3    3    0    0 -0.15873916763E+02  0.16528213499E+02  0.22268817117E+02  0.31954080970E+02  0.00000000000E+00 0.  1.
</event>
<event>
 7    1  0.3196678E-013  0.7246159E+02  0.7816164E-02  0.1226708E+00
        -11   -1    0    0    0    0  0.00000000000E+00  0.00000000000E+00  0.45593999997E+02  0.45594000000E+02  0.51100000000E-03 0. -1.
         11   -1    0    0    0    0 -0.00000000000E+00 -0.00000000000E+00 -0.45593999997E+02  0.45594000000E+02  0.51100000000E-03 0.  1.
    9900012    2    1    2    0    0  0.86283076112E+01  0.12515786357E+02  0.10935534018E+02  0.72461588047E+02  0.70000023126E+02 0.  0.
         12    1    1    2    0    0 -0.86283076112E+01 -0.12515786357E+02 -0.10935534018E+02  0.18726411953E+02  0.00000000000E+00 0. -1.
         11    1    3    3    0    0  0.14119538327E+02  0.17643030668E+00  0.15603215501E+02  0.21044068629E+02  0.51100000000E-03 0. -1.
        -11    1    3    3    0    0  0.88893906985E+01 -0.16628827473E+02 -0.21630153533E+01  0.18979404780E+02  0.51100000000E-03 0.  1.
        -12    1    3    3    0    0 -0.14380621414E+02  0.28968183523E+02 -0.25046661300E+01  0.32438114639E+02  0.00000000000E+00 0.  1.
</event>
<event>
 7    1  0.3196678E-013  0.7246173E+02  0.7816164E-02  0.1226708E+00
        -11   -1    0    0    0    0  0.00000000000E+00  0.00000000000E+00  0.45593999997E+02  0.45594000000E+02  0.51100000000E-03 0. -1.
         11   -1    0    0    0    0 -0.00000000000E+00 -0.00000000000E+00 -0.45593999997E+02  0.45594000000E+02  0.51100000000E-03 0.  1.
    9900012    2    1    2    0    0 -0.80556758926E+00 -0.65369019337E+01 -0.17529782667E+02  0.72461726842E+02  0.70000203933E+02 0.  0.
         12    1    1    2    0    0  0.80556758926E+00  0.65369019337E+01  0.17529782667E+02  0.18726273158E+02  0.00000000000E+00 0. -1.
         11    1    3    3    0    0  0.16981834178E+02 -0.39854495459E+01 -0.19353148392E+02  0.26053998792E+02  0.51100000000E-03 0. -1.
        -11    1    3    3    0    0  0.28091688503E+00 -0.20032899475E+02  0.60182489872E+01  0.20919256602E+02  0.51100000000E-03 0.  1.
         12    1    3    3    0    0 -0.18068318652E+02  0.17481447087E+02 -0.41948832616E+01  0.25488471448E+02  0.00000000000E+00 0. -1.
</event>
<event>
 7    1  0.3196678E-013  0.7246155E+02  0.7816164E-02  0.1226708E+00
        -11   -1    0    0    0    0  0.00000000000E+00  0.00000000000E+00  0.45593999997E+02  0.45594000000E+02  0.51100000000E-03 0.  1.
         11   -1    0    0    0    0 -0.00000000000E+00 -0.00000000000E+00 -0.45593999997E+02  0.45594000000E+02  0.51100000000E-03 0. -1.
    9900012    2    1    2    0    0 -0.63227523335E+01  0.13095363158E+02  0.11798906585E+02  0.72461549991E+02  0.69999973551E+02 0.  0.
         12    1    1    2    0    0  0.63227523335E+01 -0.13095363158E+02 -0.11798906585E+02  0.18726450009E+02  0.00000000000E+00 0. -1.
         11    1    3    3    0    0  0.41477077065E+01 -0.72061753174E+01 -0.11294597637E+02  0.14024991193E+02  0.51100000000E-03 0. -1.
        -11    1    3    3    0    0  0.16306235503E+02 -0.76334742514E+00  0.17463744284E+02  0.23905195675E+02  0.51100000000E-03 0.  1.
         12    1    3    3    0    0 -0.26776695543E+02  0.21064885901E+02  0.56297599382E+01  0.34531363124E+02  0.00000000000E+00 0. -1.
</event>
<event>
 7    1  0.3196678E-013  0.7246178E+02  0.7816164E-02  0.1226707E+00
        -11   -1    0    0    0    0  0.00000000000E+00  0.00000000000E+00  0.45593999997E+02  0.45594000000E+02  0.51100000000E-03 0.  1.
         11   -1    0    0    0    0 -0.00000000000E+00 -0.00000000000E+00 -0.45593999997E+02  0.45594000000E+02  0.51100000000E-03 0. -1.
    9900012    2    1    2    0    0  0.13844499561E+02 -0.12496619397E+02 -0.16839249170E+01  0.72461781279E+02  0.70000274846E+02 0.  0.
         12    1    1    2    0    0 -0.13844499561E+02  0.12496619397E+02  0.16839249170E+01  0.18726218721E+02  0.00000000000E+00 0. -1.
         11    1    3    3    0    0 -0.37327331080E+01 -0.14520647138E+02 -0.14011244315E+02  0.20520659280E+02  0.51100000000E-03 0. -1.
        -11    1    3    3    0    0 -0.17455273212E+01 -0.66112391278E+01 -0.15522518416E+02  0.16961837361E+02  0.51100000000E-03 0.  1.
        -12    1    3    3    0    0  0.19322759990E+02  0.86352668684E+01  0.27849837814E+02  0.34979284638E+02  0.00000000000E+00 0.  1.
</event>
<event>
 7    1  0.3196678E-013  0.7246156E+02  0.7816164E-02  0.1226708E+00
        -11   -1    0    0    0    0  0.00000000000E+00  0.00000000000E+00  0.45593999997E+02  0.45594000000E+02  0.51100000000E-03 0. -1.
         11   -1    0    0    0    0 -0.00000000000E+00 -0.00000000000E+00 -0.45593999997E+02  0.45594000000E+02  0.51100000000E-03 0.  1.
    9900012    2    1    2    0    0 -0.55500004851E+01 -0.84501137751E+01 -0.15763020050E+02  0.72461555348E+02  0.69999980530E+02 0.  0.
         12    1    1    2    0    0  0.55500004851E+01  0.84501137751E+01  0.15763020050E+02  0.18726444652E+02  0.00000000000E+00 0. -1.
         11    1    3    3    0    0 -0.10215725651E+02  0.78708176366E+01  0.95234639686E+01  0.16031443699E+02  0.51100000000E-03 0. -1.
        -11    1    3    3    0    0 -0.16929708481E+01 -0.32717339939E+02 -0.14743946175E+02  0.35925957636E+02  0.51100000000E-03 0.  1.
         12    1    3    3    0    0  0.63586960142E+01  0.16396408528E+02 -0.10542537844E+02  0.20504154013E+02  0.00000000000E+00 0. -1.
</event>
<event>
 7    1  0.3196678E-013  0.7246157E+02  0.7816164E-02  0.1226708E+00
        -11   -1    0    0    0    0  0.00000000000E+00  0.00000000000E+00  0.45593999997E+02  0.45594000000E+02  0.51100000000E-03 0. -1.
         11   -1    0    0    0    0 -0.00000000000E+00 -0.00000000000E+00 -0.45593999997E+02  0.45594000000E+02  0.51100000000E-03 0.  1.
    9900012    2    1    2    0    0  0.21424855593E+01  0.18103435373E+02 -0.42842119805E+01  0.72461572445E+02  0.70000002802E+02 0.  0.
         12    1    1    2    0    0 -0.21424855593E+01 -0.18103435373E+02  0.42842119805E+01  0.18726427555E+02  0.00000000000E+00 0. -1.
         11    1    3    3    0    0 -0.19384381864E+01  0.18520390717E+01 -0.92466569342E+01  0.96274740220E+01  0.51100000000E-03 0.  1.
        -11    1    3    3    0    0 -0.19565442094E+02  0.69618095188E+01 -0.18825733242E+02  0.28030011567E+02  0.51100000000E-03 0. -1.
         12    1    3    3    0    0  0.23646365840E+02  0.92895867824E+01  0.23788178196E+02  0.34804086856E+02  0.00000000000E+00 0. -1.
</event>
<event>
 7    1  0.3196678E-013  0.7246161E+02  0.7816164E-02  0.1226708E+00
        -11   -1    0    0    0    0  0.00000000000E+00  0.00000000000E+00  0.45593999997E+02  0.45594000000E+02  0.51100000000E-03 0. -1.
         11   -1    0    0    0    0 -0.00000000000E+00 -0.00000000000E+00 -0.45593999997E+02  0.45594000000E+02  0.51100000000E-03 0.  1.
    9900012    2    1    2    0    0  0.73392863775E+01  0.17203996467E+02 -0.91378345995E+00  0.72461611689E+02  0.70000053924E+02 0.  0.
         12    1    1    2    0    0 -0.73392863775E+01 -0.17203996467E+02  0.91378345995E+00  0.18726388311E+02  0.00000000000E+00 0. -1.
         11    1    3    3    0    0 -0.87118137774E+01  0.84212797881E+01  0.17940315338E+02  0.21648754404E+02  0.51100000000E-03 0. -1.
        -11    1    3    3    0    0  0.19080277215E+02  0.80204122711E+01  0.91538047257E+01  0.22631308685E+02  0.51100000000E-03 0.  1.
        -12    1    3    3    0    0 -0.30291770598E+01  0.76230440752E+00 -0.28007903524E+02  0.28181548600E+02  0.00000000000E+00 0.  1.
</event>
<event>
 7    1  0.3196678E-013  0.7246148E+02  0.7816164E-02  0.1226708E+00
        -11   -1    0    0    0    0  0.00000000000E+00  0.00000000000E+00  0.45593999997E+02  0.45594000000E+02  0.51100000000E-03 0.  1.
         11   -1    0    0    0    0 -0.00000000000E+00 -0.00000000000E+00 -0.45593999997E+02  0.45594000000E+02  0.51100000000E-03 0. -1.
    9900012    2    1    2    0    0 -0.11298817888E+02  0.96572832789E+00  0.14902566725E+02  0.72461483724E+02  0.69999887225E+02 0.  0.
         12    1    1    2    0    0  0.11298817888E+02 -0.96572832789E+00 -0.14902566725E+02  0.18726516276E+02  0.00000000000E+00 0. -1.
         11    1    3    3    0    0  0.37374451586E+01  0.11093219298E+02  0.68405778694E+01  0.13558079383E+02  0.51100000000E-03 0. -1.
        -11    1    3    3    0    0  0.14119541831E+02  0.11118378250E+02 -0.76786563694E+01  0.19543325211E+02  0.51100000000E-03 0.  1.
        -12    1    3    3    0    0 -0.29155804877E+02 -0.21245869220E+02  0.15740645225E+02  0.39360079129E+02  0.00000000000E+00 0.  1.
</event>
<event>
 7    1  0.3196678E-013  0.7246077E+02  0.7816164E-02  0.1226710E+00
        -11   -1    0    0    0    0  0.00000000000E+00  0.00000000000E+00  0.45593999997E+02  0.45594000000E+02  0.51100000000E-03 0. -1.
         11   -1    0    0    0    0 -0.00000000000E+00 -0.00000000000E+00 -0.45593999997E+02  0.45594000000E+02  0.51100000000E-03 0.  1.
    9900012    2    1    2    0    0  0.15599318632E+01  0.51920825282E+01 -0.17925343320E+02  0.72460772722E+02  0.69998961006E+02 0.  0.
         12    1    1    2    0    0 -0.15599318632E+01 -0.51920825282E+01  0.17925343320E+02  0.18727227278E+02  0.00000000000E+00 0. -1.
         11    1    3    3    0    0 -0.19188648936E+02  0.12914152944E+02 -0.75703678149E+01  0.24337010157E+02  0.51100000000E-03 0. -1.
        -11    1    3    3    0    0  0.60850486024E+00  0.95284390983E+01  0.10643645247E+02  0.14298552871E+02  0.51100000000E-03 0.  1.
        -12    1    3    3    0    0  0.20140075939E+02 -0.17250509514E+02 -0.20998620751E+02  0.33825209693E+02  0.00000000000E+00 0.  1.
</event>
<event>
 7    1  0.3196678E-013  0.7246161E+02  0.7816164E-02  0.1226708E+00
        -11   -1    0    0    0    0  0.00000000000E+00  0.00000000000E+00  0.45593999997E+02  0.45594000000E+02  0.51100000000E-03 0.  1.
         11   -1    0    0    0    0 -0.00000000000E+00 -0.00000000000E+00 -0.45593999997E+02  0.45594000000E+02  0.51100000000E-03 0. -1.
    9900012    2    1    2    0    0  0.15485649259E+02 -0.10127272358E+01  0.10480779786E+02  0.72461609682E+02  0.70000051310E+02 0.  0.
         12    1    1    2    0    0 -0.15485649259E+02  0.10127272358E+01 -0.10480779786E+02  0.18726390318E+02  0.00000000000E+00 0. -1.
         11    1    3    3    0    0  0.14812718038E+02  0.96967690870E+01 -0.28307242237E+01  0.17929220460E+02  0.51100000000E-03 0. -1.
        -11    1    3    3    0    0 -0.78951878957E+01  0.88445700583E+01 -0.14971002777E+02  0.19096893355E+02  0.51100000000E-03 0.  1.
        -12    1    3    3    0    0  0.85681191165E+01 -0.19554066381E+02  0.28282506786E+02  0.35435495867E+02  0.00000000000E+00 0.  1.
</event>
<event>
 7    1  0.3196678E-013  0.7246171E+02  0.7816164E-02  0.1226708E+00
        -11   -1    0    0    0    0  0.00000000000E+00  0.00000000000E+00  0.45593999997E+02  0.45594000000E+02  0.51100000000E-03 0.  1.
         11   -1    0    0    0    0 -0.00000000000E+00 -0.00000000000E+00 -0.45593999997E+02  0.45594000000E+02  0.51100000000E-03 0. -1.
    9900012    2    1    2    0    0  0.42258937092E+01  0.46780381474E+01  0.17633254545E+02  0.72461711409E+02  0.70000183828E+02 0.  0.
         12    1    1    2    0    0 -0.42258937092E+01 -0.46780381474E+01 -0.17633254545E+02  0.18726288591E+02  0.00000000000E+00 0. -1.
         11    1    3    3    0    0  0.48364223428E+01  0.44178544452E+00  0.12796189695E+02  0.13686804829E+02  0.51100000000E-03 0. -1.
        -11    1    3    3    0    0  0.10391860634E+02 -0.22782248000E+02  0.13361424017E+02  0.28382199411E+02  0.51100000000E-03 0.  1.
         12    1    3    3    0    0 -0.11002389267E+02  0.27018500703E+02 -0.85243591669E+01  0.30392707169E+02  0.00000000000E+00 0. -1.
</event>
<event>
 7    1  0.3196678E-013  0.7246163E+02  0.7816164E-02  0.1226708E+00
        -11   -1    0    0    0    0  0.00000000000E+00  0.00000000000E+00  0.45593999997E+02  0.45594000000E+02  0.51100000000E-03 0.  1.
         11   -1    0    0    0    0 -0.00000000000E+00 -0.00000000000E+00 -0.45593999997E+02  0.45594000000E+02  0.51100000000E-03 0. -1.
    9900012    2    1    2    0    0 -0.23367326362E+01 -0.18241782673E+02  0.35290400140E+01  0.72461626140E+02  0.70000072750E+02 0.  0.
         12    1    1    2    0    0  0.23367326362E+01  0.18241782673E+02 -0.35290400140E+01  0.18726373860E+02  0.00000000000E+00 0. -1.
         11    1    3    3    0    0  0.66910543790E+00  0.31784340483E+01 -0.43995506283E+01  0.54686553264E+01  0.51100000000E-03 0. -1.
        -11    1    3    3    0    0  0.10893282751E+02  0.19787451369E+02 -0.94827702007E+00  0.22607655127E+02  0.51100000000E-03 0.  1.
         12    1    3    3    0    0 -0.13899120825E+02 -0.41207668090E+02  0.88768676624E+01  0.44385315687E+02  0.00000000000E+00 0. -1.
</event>
<event>
 7    1  0.3196678E-013  0.7246152E+02  0.7816164E-02  0.1226708E+00
        -11   -1    0    0    0    0  0.00000000000E+00  0.00000000000E+00  0.45593999997E+02  0.45594000000E+02  0.51100000000E-03 0.  1.
         11   -1    0    0    0    0 -0.00000000000E+00 -0.00000000000E+00 -0.45593999997E+02  0.45594000000E+02  0.51100000000E-03 0. -1.
    9900012    2    1    2    0    0  0.43576030892E+01 -0.79984910431E+01  0.16362047219E+02  0.72461517339E+02  0.69999931016E+02 0.  0.
         12    1    1    2    0    0 -0.43576030892E+01  0.79984910431E+01 -0.16362047219E+02  0.18726482661E+02  0.00000000000E+00 0. -1.
         11    1    3    3    0    0  0.81550702396E+01 -0.18121478830E+02  0.14154500662E+01  0.19922265553E+02  0.51100000000E-03 0. -1.
        -11    1    3    3    0    0 -0.11698749811E+02 -0.10954517527E+02  0.23512045656E+02  0.28454850071E+02  0.51100000000E-03 0.  1.
        -12    1    3    3    0    0  0.79012826608E+01  0.21077505314E+02 -0.85654485032E+01  0.24084401716E+02  0.00000000000E+00 0.  1.
</event>
<event>
 7    1  0.3196678E-013  0.7246158E+02  0.7816164E-02  0.1226708E+00
        -11   -1    0    0    0    0  0.00000000000E+00  0.00000000000E+00  0.45593999997E+02  0.45594000000E+02  0.51100000000E-03 0.  1.
         11   -1    0    0    0    0 -0.00000000000E+00 -0.00000000000E+00 -0.45593999997E+02  0.45594000000E+02  0.51100000000E-03 0. -1.
    9900012    2    1    2    0    0 -0.11480337785E+01  0.11175094793E+01  0.18657757885E+02  0.72461581808E+02  0.70000014999E+02 0.  0.
         12    1    1    2    0    0  0.11480337785E+01 -0.11175094793E+01 -0.18657757885E+02  0.18726418192E+02  0.00000000000E+00 0. -1.
         11    1    3    3    0    0 -0.45472829836E+01  0.42526944769E+01 -0.43591756017E+01  0.76003687434E+01  0.51100000000E-03 0. -1.
        -11    1    3    3    0    0  0.44858141892E+01 -0.70840460571E+01 -0.19980811590E+02  0.21668850212E+02  0.51100000000E-03 0.  1.
        -12    1    3    3    0    0 -0.10865649840E+01  0.39488610595E+01  0.42997745076E+02  0.43192362853E+02  0.00000000000E+00 0.  1.
</event>
<event>
 7    1  0.3196678E-013  0.7246163E+02  0.7816164E-02  0.1226708E+00
        -11   -1    0    0    0    0  0.00000000000E+00  0.00000000000E+00  0.45593999997E+02  0.45594000000E+02  0.51100000000E-03 0. -1.
         11   -1    0    0    0    0 -0.00000000000E+00 -0.00000000000E+00 -0.45593999997E+02  0.45594000000E+02  0.51100000000E-03 0.  1.
    9900012    2    1    2    0    0 -0.16738956318E+02  0.77158545072E+01  0.33090409716E+01  0.72461632986E+02  0.70000081667E+02 0.  0.
         12    1    1    2    0    0  0.16738956318E+02 -0.77158545072E+01 -0.33090409716E+01  0.18726367014E+02  0.00000000000E+00 0. -1.
         11    1    3    3    0    0  0.10115406155E+02  0.20639695211E+01  0.16921979216E+01  0.10461593852E+02  0.51100000000E-03 0. -1.
        -11    1    3    3    0    0 -0.12182210047E+02 -0.24633904938E+02  0.58044316463E+01  0.28087843298E+02  0.51100000000E-03 0.  1.
        -12    1    3    3    0    0 -0.14672152426E+02  0.30285789924E+02 -0.41875885963E+01  0.33912195836E+02  0.00000000000E+00 0.  1.
</event>
<event>
 7    1  0.3196678E-013  0.7246157E+02  0.7816164E-02  0.1226708E+00
        -11   -1    0    0    0    0  0.00000000000E+00  0.00000000000E+00  0.45593999997E+02  0.45594000000E+02  0.51100000000E-03 0. -1.
         11   -1    0    0    0    0 -0.00000000000E+00 -0.00000000000E+00 -0.45593999997E+02  0.45594000000E+02  0.51100000000E-03 0.  1.
    9900012    2    1    2    0    0  0.60349047921E+01 -0.15962030945E+02 -0.77118618500E+01  0.72461566252E+02  0.69999994734E+02 0.  0.
         12    1    1    2    0    0 -0.60349047921E+01  0.15962030945E+02  0.77118618500E+01  0.18726433748E+02  0.00000000000E+00 0. -1.
         11    1    3    3    0    0  0.68120285936E+01 -0.24621711492E+02 -0.74705370523E+01  0.26616561282E+02  0.51100000000E-03 0. -1.
        -11    1    3    3    0    0  0.35079230201E+01 -0.17606527169E+02 -0.53770823881E+01  0.18740553304E+02  0.51100000000E-03 0.  1.
         12    1    3    3    0    0 -0.42850468216E+01  0.26266207717E+02  0.51357575903E+01  0.27104451666E+02  0.00000000000E+00 0. -1.
</event>
<event>
 7    1  0.3196678E-013  0.7246158E+02  0.7816164E-02  0.1226708E+00
        -11   -1    0    0    0    0  0.00000000000E+00  0.00000000000E+00  0.45593999997E+02  0.45594000000E+02  0.51100000000E-03 0.  1.
         11   -1    0    0    0    0 -0.00000000000E+00 -0.00000000000E+00 -0.45593999997E+02  0.45594000000E+02  0.51100000000E-03 0. -1.
    9900012    2    1    2    0    0 -0.24261232378E+01  0.18522067575E+02 -0.13137340332E+01  0.72461575934E+02  0.70000007346E+02 0.  0.
         12    1    1    2    0    0  0.24261232378E+01 -0.18522067575E+02  0.13137340332E+01  0.18726424066E+02  0.00000000000E+00 0. -1.
         11    1    3    3    0    0 -0.78905288185E+01 -0.14954757106E+02 -0.74063947048E+01  0.18459682768E+02  0.51100000000E-03 0. -1.
        -11    1    3    3    0    0  0.13308792849E+02  0.98493880728E+01  0.19616783609E+02  0.25670072301E+02  0.51100000000E-03 0.  1.
        -12    1    3    3    0    0 -0.78443872678E+01  0.23627436608E+02 -0.13524122938E+02  0.28331820864E+02  0.00000000000E+00 0.  1.
</event>
<event>
 7    1  0.3196678E-013  0.7246157E+02  0.7816164E-02  0.1226708E+00
        -11   -1    0    0    0    0  0.00000000000E+00  0.00000000000E+00  0.45593999997E+02  0.45594000000E+02  0.51100000000E-03 0. -1.
         11   -1    0    0    0    0 -0.00000000000E+00 -0.00000000000E+00 -0.45593999997E+02  0.45594000000E+02  0.51100000000E-03 0.  1.
    9900012    2    1    2    0    0 -0.11193420900E+02 -0.20858699422E+01 -0.14867263399E+02  0.72461573596E+02  0.70000004302E+02 0.  0.
         12    1    1    2    0    0  0.11193420900E+02  0.20858699422E+01  0.14867263399E+02  0.18726426404E+02  0.00000000000E+00 0. -1.
         11    1    3    3    0    0  0.43867045136E+01 -0.11848530034E+02  0.69514557232E+01  0.14420595598E+02  0.51100000000E-03 0. -1.
        -11    1    3    3    0    0 -0.48640865462E+01 -0.11454866282E+02  0.11612121784E+02  0.17021006787E+02  0.51100000000E-03 0.  1.
        -12    1    3    3    0    0 -0.10716038867E+02  0.21217526374E+02 -0.33430840907E+02  0.41019971211E+02  0.00000000000E+00 0.  1.
</event>
<event>
 7    1  0.3196678E-013  0.7246157E+02  0.7816164E-02  0.1226708E+00
        -11   -1    0    0    0    0  0.00000000000E+00  0.00000000000E+00  0.45593999997E+02  0.45594000000E+02  0.51100000000E-03 0.  1.
         11   -1    0    0    0    0 -0.00000000000E+00 -0.00000000000E+00 -0.45593999997E+02  0.45594000000E+02  0.51100000000E-03 0. -1.
    9900012    2    1    2    0    0  0.17771336198E+02 -0.15209996941E+01 -0.57048419167E+01  0.72461573442E+02  0.70000004100E+02 0.  0.
         12    1    1    2    0    0 -0.17771336198E+02  0.15209996941E+01  0.57048419167E+01  0.18726426558E+02  0.00000000000E+00 0. -1.
         11    1    3    3    0    0  0.20042108898E+02  0.16131793083E+02 -0.78997804745E+01  0.26913331436E+02  0.51100000000E-03 0. -1.
        -11    1    3    3    0    0 -0.54001551766E+01  0.13314987664E+02  0.86181175498E+00  0.14394210370E+02  0.51100000000E-03 0.  1.
        -12    1    3    3    0    0  0.31293824768E+01 -0.30967780441E+02  0.13331268028E+01  0.31154031636E+02  0.00000000000E+00 0.  1.
</event>
<event>
 7    1  0.3196678E-013  0.7246154E+02  0.7816164E-02  0.1226708E+00
        -11   -1    0    0    0    0  0.00000000000E+00  0.00000000000E+00  0.45593999997E+02  0.45594000000E+02  0.51100000000E-03 0.  1.
         11   -1    0    0    0    0 -0.00000000000E+00 -0.00000000000E+00 -0.45593999997E+02  0.45594000000E+02  0.51100000000E-03 0. -1.
    9900012    2    1    2    0    0  0.95919522880E+01  0.70519996711E+01  0.14454892279E+02  0.72461543879E+02  0.69999965589E+02 0.  0.
         12    1    1    2    0    0 -0.95919522880E+01 -0.70519996711E+01 -0.14454892279E+02  0.18726456121E+02  0.00000000000E+00 0. -1.
         11    1    3    3    0    0 -0.14181735752E+02  0.22416560403E+02  0.13403203324E+02  0.29719853109E+02  0.51100000000E-03 0. -1.
        -11    1    3    3    0    0 -0.25900517555E+01 -0.31817319698E+01  0.11238899285E+02  0.11964307077E+02  0.51100000000E-03 0.  1.
        -12    1    3    3    0    0  0.26363739796E+02 -0.12182828762E+02 -0.10187210330E+02  0.30777383693E+02  0.00000000000E+00 0.  1.
</event>
<event>
 7    1  0.3196678E-013  0.7246154E+02  0.7816164E-02  0.1226708E+00
        -11   -1    0    0    0    0  0.00000000000E+00  0.00000000000E+00  0.45593999997E+02  0.45594000000E+02  0.51100000000E-03 0. -1.
         11   -1    0    0    0    0 -0.00000000000E+00 -0.00000000000E+00 -0.45593999997E+02  0.45594000000E+02  0.51100000000E-03 0.  1.
    9900012    2    1    2    0    0  0.53280762437E+01 -0.30607991236E+01 -0.17689638084E+02  0.72461543226E+02  0.69999964739E+02 0.  0.
         12    1    1    2    0    0 -0.53280762437E+01  0.30607991236E+01  0.17689638084E+02  0.18726456774E+02  0.00000000000E+00 0. -1.
         11    1    3    3    0    0  0.51914866271E+01 -0.52038626964E+00 -0.14393362818E+02  0.15309840912E+02  0.51100000000E-03 0. -1.
        -11    1    3    3    0    0  0.13776528362E+02 -0.21753741211E+02 -0.16067020112E+02  0.30350735179E+02  0.51100000000E-03 0.  1.
         12    1    3    3    0    0 -0.13639938745E+02  0.19213328357E+02  0.12770744845E+02  0.26800967136E+02  0.00000000000E+00 0. -1.
</event>
<event>
 7    1  0.3196678E-013  0.7246159E+02  0.7816164E-02  0.1226708E+00
        -11   -1    0    0    0    0  0.00000000000E+00  0.00000000000E+00  0.45593999997E+02  0.45594000000E+02  0.51100000000E-03 0.  1.
         11   -1    0    0    0    0 -0.00000000000E+00 -0.00000000000E+00 -0.45593999997E+02  0.45594000000E+02  0.51100000000E-03 0. -1.
    9900012    2    1    2    0    0 -0.44037805642E+01  0.18195144171E+02 -0.47084648803E+00  0.72461594818E+02  0.70000031946E+02 0.  0.
         12    1    1    2    0    0  0.44037805642E+01 -0.18195144171E+02  0.47084648803E+00  0.18726405182E+02  0.00000000000E+00 0. -1.
         11    1    3    3    0    0  0.85986473191E+01 -0.15639715026E+02 -0.18483841275E+01  0.17943075153E+02  0.51100000000E-03 0. -1.
        -11    1    3    3    0    0  0.68475258209E+01 -0.94696724988E+00  0.11312305087E+02  0.13257209491E+02  0.51100000000E-03 0.  1.
        -12    1    3    3    0    0 -0.19849953704E+02  0.34781826446E+02 -0.99347674472E+01  0.41261310174E+02  0.00000000000E+00 0.  1.
</event>
<event>
 7    1  0.3196678E-013  0.7246183E+02  0.7816164E-02  0.1226707E+00
        -11   -1    0    0    0    0  0.00000000000E+00  0.00000000000E+00  0.45593999997E+02  0.45594000000E+02  0.51100000000E-03 0.  1.
         11   -1    0    0    0    0 -0.00000000000E+00 -0.00000000000E+00 -0.45593999997E+02  0.45594000000E+02  0.51100000000E-03 0. -1.
    9900012    2    1    2    0    0  0.51550821605E+01  0.13145067844E+02  0.12300484635E+02  0.72461825726E+02  0.70000332746E+02 0.  0.
         12    1    1    2    0    0 -0.51550821605E+01 -0.13145067844E+02 -0.12300484635E+02  0.18726174274E+02  0.00000000000E+00 0. -1.
         11    1    3    3    0    0 -0.48404730580E+01 -0.76870342628E+01  0.25402494201E+01  0.94325787864E+01  0.51100000000E-03 0. -1.
        -11    1    3    3    0    0  0.55621808048E+01  0.20883479944E+02  0.32957902598E+02  0.39411685245E+02  0.51100000000E-03 0.  1.
        -12    1    3    3    0    0  0.44333744137E+01 -0.51377837512E-01 -0.23197667384E+02  0.23617561695E+02  0.00000000000E+00 0.  1.
</event>
<event>
 7    1  0.3196678E-013  0.7246159E+02  0.7816164E-02  0.1226708E+00
        -11   -1    0    0    0    0  0.00000000000E+00  0.00000000000E+00  0.45593999997E+02  0.45594000000E+02  0.51100000000E-03 0.  1.
         11   -1    0    0    0    0 -0.00000000000E+00 -0.00000000000E+00 -0.45593999997E+02  0.45594000000E+02  0.51100000000E-03 0. -1.
    9900012    2    1    2    0    0 -0.10807855576E+02  0.42357580829E+01  0.14694461855E+02  0.72461585557E+02  0.70000019882E+02 0.  0.
         12    1    1    2    0    0  0.10807855576E+02 -0.42357580829E+01 -0.14694461855E+02  0.18726414443E+02  0.00000000000E+00 0. -1.
         11    1    3    3    0    0  0.31512607277E+01 -0.17035050130E+02  0.13325362860E+02  0.21856090060E+02  0.51100000000E-03 0. -1.
        -11    1    3    3    0    0 -0.11884039004E+01 -0.72410869728E+01  0.14862104211E+02  0.16574914366E+02  0.51100000000E-03 0.  1.
         12    1    3    3    0    0 -0.12770712403E+02  0.28511895185E+02 -0.13493005217E+02  0.34030581131E+02  0.00000000000E+00 0. -1.
</event>
<event>
 7    1  0.3196678E-013  0.7246156E+02  0.7816164E-02  0.1226708E+00
        -11   -1    0    0    0    0  0.00000000000E+00  0.00000000000E+00  0.45593999997E+02  0.45594000000E+02  0.51100000000E-03 0.  1.
         11   -1    0    0    0    0 -0.00000000000E+00 -0.00000000000E+00 -0.45593999997E+02  0.45594000000E+02  0.51100000000E-03 0. -1.
    9900012    2    1    2    0    0  0.10713378489E+02 -0.88129698975E+01  0.12579138158E+02  0.72461557896E+02  0.69999983849E+02 0.  0.
         12    1    1    2    0    0 -0.10713378489E+02  0.88129698975E+01 -0.12579138158E+02  0.18726442104E+02  0.00000000000E+00 0. -1.
         11    1    3    3    0    0  0.27326832516E+02 -0.29396568765E+02 -0.30875574142E+01  0.40254776630E+02  0.51100000000E-03 0. -1.
        -11    1    3    3    0    0 -0.27767870284E+01  0.76071702737E+01  0.86185311371E+00  0.81438551574E+01  0.51100000000E-03 0.  1.
        -12    1    3    3    0    0 -0.13836666999E+02  0.12976428594E+02  0.14804842459E+02  0.24062926109E+02  0.00000000000E+00 0.  1.
</event>
<event>
 7    1  0.3196678E-013  0.7246151E+02  0.7816164E-02  0.1226708E+00
        -11   -1    0    0    0    0  0.00000000000E+00  0.00000000000E+00  0.45593999997E+02  0.45594000000E+02  0.51100000000E-03 0.  1.
         11   -1    0    0    0    0 -0.00000000000E+00 -0.00000000000E+00 -0.45593999997E+02  0.45594000000E+02  0.51100000000E-03 0. -1.
    9900012    2    1    2    0    0  0.13469090735E+02  0.11087979321E+02  0.68060054474E+01  0.72461510719E+02  0.69999922392E+02 0.  0.
         12    1    1    2    0    0 -0.13469090735E+02 -0.11087979321E+02 -0.68060054474E+01  0.18726489281E+02  0.00000000000E+00 0. -1.
         11    1    3    3    0    0 -0.22116739472E+02 -0.59708934167E+01 -0.90254447049E-01  0.22908729323E+02  0.51100000000E-03 0. -1.
        -11    1    3    3    0    0  0.40391258864E+01  0.15187087055E+02 -0.38387067121E+01  0.16177077011E+02  0.51100000000E-03 0.  1.
        -12    1    3    3    0    0  0.31546704321E+02  0.18717856825E+01  0.10734966607E+02  0.33375704385E+02  0.00000000000E+00 0.  1.
</event>
<event>
 7    1  0.3196678E-013  0.7246161E+02  0.7816164E-02  0.1226708E+00
        -11   -1    0    0    0    0  0.00000000000E+00  0.00000000000E+00  0.45593999997E+02  0.45594000000E+02  0.51100000000E-03 0.  1.
         11   -1    0    0    0    0 -0.00000000000E+00 -0.00000000000E+00 -0.45593999997E+02  0.45594000000E+02  0.51100000000E-03 0. -1.
    9900012    2    1    2    0    0  0.14043458292E+02  0.70664341182E+01  0.10174706660E+02  0.72461605057E+02  0.70000045285E+02 0.  0.
         12    1    1    2    0    0 -0.14043458292E+02 -0.70664341182E+01 -0.10174706660E+02  0.18726394943E+02  0.00000000000E+00 0. -1.
         11    1    3    3    0    0  0.11688222277E+02  0.67499175771E+01 -0.52446231862E+01  0.14480400544E+02  0.51100000000E-03 0. -1.
        -11    1    3    3    0    0  0.27323281126E+01  0.12986573071E+02  0.33423941342E+02  0.35962154442E+02  0.51100000000E-03 0.  1.
         12    1    3    3    0    0 -0.37709209775E+00 -0.12670056530E+02 -0.18004611496E+02  0.22019050071E+02  0.00000000000E+00 0. -1.
</event>
<event>
 7    1  0.3196678E-013  0.7246156E+02  0.7816164E-02  0.1226708E+00
        -11   -1    0    0    0    0  0.00000000000E+00  0.00000000000E+00  0.45593999997E+02  0.45594000000E+02  0.51100000000E-03 0.  1.
         11   -1    0    0    0    0 -0.00000000000E+00 -0.00000000000E+00 -0.45593999997E+02  0.45594000000E+02  0.51100000000E-03 0. -1.
    9900012    2    1    2    0    0 -0.16193736577E+02  0.70063667955E+01  0.62732135760E+01  0.72461561776E+02  0.69999988903E+02 0.  0.
         12    1    1    2    0    0  0.16193736577E+02 -0.70063667955E+01 -0.62732135760E+01  0.18726438224E+02  0.00000000000E+00 0. -1.
         11    1    3    3    0    0 -0.26170284057E+02 -0.37908630908E+00  0.14317399435E+02  0.29833125898E+02  0.51100000000E-03 0. -1.
        -11    1    3    3    0    0 -0.12214247741E+02  0.34720613700E+01  0.79629188204E+01  0.14988366637E+02  0.51100000000E-03 0.  1.
         12    1    3    3    0    0  0.22190795221E+02  0.39133917345E+01 -0.16007104679E+02  0.27640069241E+02  0.00000000000E+00 0. -1.
</event>
<event>
 7    1  0.3196678E-013  0.7246147E+02  0.7816164E-02  0.1226708E+00
        -11   -1    0    0    0    0  0.00000000000E+00  0.00000000000E+00  0.45593999997E+02  0.45594000000E+02  0.51100000000E-03 0. -1.
         11   -1    0    0    0    0 -0.00000000000E+00 -0.00000000000E+00 -0.45593999997E+02  0.45594000000E+02  0.51100000000E-03 0.  1.
    9900012    2    1    2    0    0 -0.89994863709E+01  0.15428862194E+02  0.56251557139E+01  0.72461470147E+02  0.69999869539E+02 0.  0.
         12    1    1    2    0    0  0.89994863709E+01 -0.15428862194E+02 -0.56251557139E+01  0.18726529853E+02  0.00000000000E+00 0. -1.
         11    1    3    3    0    0 -0.42753839266E+00  0.26517083727E+02  0.26406389946E+02  0.37425071125E+02  0.51100000000E-03 0. -1.
        -11    1    3    3    0    0  0.61587015203E+01 -0.24246704132E+01  0.16649913887E+01  0.68250148435E+01  0.51100000000E-03 0.  1.
        -12    1    3    3    0    0 -0.14730649499E+02 -0.86635511200E+01 -0.22446225621E+02  0.28211384179E+02  0.00000000000E+00 0.  1.
</event>
<event>
 7    1  0.3196678E-013  0.7246143E+02  0.7816164E-02  0.1226708E+00
        -11   -1    0    0    0    0  0.00000000000E+00  0.00000000000E+00  0.45593999997E+02  0.45594000000E+02  0.51100000000E-03 0. -1.
         11   -1    0    0    0    0 -0.00000000000E+00 -0.00000000000E+00 -0.45593999997E+02  0.45594000000E+02  0.51100000000E-03 0.  1.
    9900012    2    1    2    0    0 -0.28071473550E+01 -0.18503873480E+02 -0.64114823762E+00  0.72461428474E+02  0.69999815253E+02 0.  0.
         12    1    1    2    0    0  0.28071473550E+01  0.18503873480E+02  0.64114823762E+00  0.18726571526E+02  0.00000000000E+00 0. -1.
         11    1    3    3    0    0 -0.12261870797E+02  0.11828234885E+02  0.71704923465E+01  0.18484495576E+02  0.51100000000E-03 0. -1.
        -11    1    3    3    0    0 -0.15887230913E+02 -0.21045823659E+02 -0.26959295014E+01  0.26506580988E+02  0.51100000000E-03 0.  1.
        -12    1    3    3    0    0  0.25341954355E+02 -0.92862847072E+01 -0.51157110828E+01  0.27470351910E+02  0.00000000000E+00 0.  1.
</event>
<event>
 7    1  0.3196678E-013  0.7246164E+02  0.7816164E-02  0.1226708E+00
        -11   -1    0    0    0    0  0.00000000000E+00  0.00000000000E+00  0.45593999997E+02  0.45594000000E+02  0.51100000000E-03 0. -1.
         11   -1    0    0    0    0 -0.00000000000E+00 -0.00000000000E+00 -0.45593999997E+02  0.45594000000E+02  0.51100000000E-03 0.  1.
    9900012    2    1    2    0    0  0.17114840141E+02 -0.58270764244E+01 -0.48789252406E+01  0.72461641993E+02  0.70000093401E+02 0.  0.
         12    1    1    2    0    0 -0.17114840141E+02  0.58270764244E+01  0.48789252406E+01  0.18726358007E+02  0.00000000000E+00 0. -1.
         11    1    3    3    0    0  0.34914234070E+02 -0.21354502603E+01 -0.17270900163E+02  0.39010868757E+02  0.51100000000E-03 0. -1.
        -11    1    3    3    0    0  0.11336249271E+01  0.58290452145E+01 -0.35620631874E+01  0.69246781875E+01  0.51100000000E-03 0.  1.
        -12    1    3    3    0    0 -0.18933018856E+02 -0.95206713787E+01  0.15954038110E+02  0.26526095049E+02  0.00000000000E+00 0.  1.
</event>
<event>
 7    1  0.3196678E-013  0.7246157E+02  0.7816164E-02  0.1226708E+00
        -11   -1    0    0    0    0  0.00000000000E+00  0.00000000000E+00  0.45593999997E+02  0.45594000000E+02  0.51100000000E-03 0.  1.
         11   -1    0    0    0    0 -0.00000000000E+00 -0.00000000000E+00 -0.45593999997E+02  0.45594000000E+02  0.51100000000E-03 0. -1.
    9900012    2    1    2    0    0 -0.15811445896E+02  0.91341062005E+01  0.41527814850E+01  0.72461566505E+02  0.69999995063E+02 0.  0.
         12    1    1    2    0    0  0.15811445896E+02 -0.91341062005E+01 -0.41527814850E+01  0.18726433495E+02  0.00000000000E+00 0. -1.
         11    1    3    3    0    0  0.12942051352E+02 -0.29734016579E+01 -0.77001029656E+01  0.15350224642E+02  0.51100000000E-03 0. -1.
        -11    1    3    3    0    0 -0.21772458434E+02 -0.35549247140E+00 -0.15174464545E+02  0.26541113309E+02  0.51100000000E-03 0.  1.
        -12    1    3    3    0    0 -0.69810388132E+01  0.12463000330E+02  0.27027348996E+02  0.30570228554E+02  0.00000000000E+00 0.  1.
</event>
<event>
 7    1  0.3196678E-013  0.7246158E+02  0.7816164E-02  0.1226708E+00
        -11   -1    0    0    0    0  0.00000000000E+00  0.00000000000E+00  0.45593999997E+02  0.45594000000E+02  0.51100000000E-03 0. -1.
         11   -1    0    0    0    0 -0.00000000000E+00 -0.00000000000E+00 -0.45593999997E+02  0.45594000000E+02  0.51100000000E-03 0.  1.
    9900012    2    1    2    0    0 -0.60408456905E+01  0.16851895030E+02 -0.54955067479E+01  0.72461580770E+02  0.70000013647E+02 0.  0.
         12    1    1    2    0    0  0.60408456905E+01 -0.16851895030E+02  0.54955067479E+01  0.18726419230E+02  0.00000000000E+00 0. -1.
         11    1    3    3    0    0  0.17010890332E+02 -0.23396495176E+01 -0.14691852941E+02  0.22598559530E+02  0.51100000000E-03 0. -1.
        -11    1    3    3    0    0  0.95520029660E+01  0.72440129168E+01  0.92453393543E+01  0.15139114368E+02  0.51100000000E-03 0.  1.
         12    1    3    3    0    0 -0.32603738989E+02  0.11947531631E+02 -0.48993161542E-01  0.34723906872E+02  0.00000000000E+00 0. -1.
</event>
<event>
 7    1  0.5587527E-013  0.7246156E+02  0.7816164E-02  0.1226708E+00
        -11   -1    0    0    0    0  0.00000000000E+00  0.00000000000E+00  0.45593999997E+02  0.45594000000E+02  0.51100000000E-03 0.  1.
         11   -1    0    0    0    0 -0.00000000000E+00 -0.00000000000E+00 -0.45593999997E+02  0.45594000000E+02  0.51100000000E-03 0. -1.
    9900012    2    1    2    0    0 -0.14687485193E+02  0.99569272413E+01  0.59847248091E+01  0.72461560071E+02  0.69999986682E+02 0.  0.
         12    1    1    2    0    0  0.14687485193E+02 -0.99569272413E+01 -0.59847248091E+01  0.18726439929E+02  0.00000000000E+00 0. -1.
         11    1    3    3    0    0  0.48392072307E+01 -0.69519888337E+01  0.39604343286E+01  0.93505676671E+01  0.51100000000E-03 0. -1.
        -11    1    3    3    0    0 -0.15047442640E+02  0.42698167511E+01  0.29020810373E+02  0.32967625030E+02  0.51100000000E-03 0.  1.
         12    1    3    3    0    0 -0.44792497830E+01  0.12639099324E+02 -0.26996519893E+02  0.30143367374E+02  0.00000000000E+00 0. -1.
</event>
<event>
 7    1  0.3718730E-013  0.7246157E+02  0.7816164E-02  0.1226708E+00
        -11   -1    0    0    0    0  0.00000000000E+00  0.00000000000E+00  0.45593999997E+02  0.45594000000E+02  0.51100000000E-03 0.  1.
         11   -1    0    0    0    0 -0.00000000000E+00 -0.00000000000E+00 -0.45593999997E+02  0.45594000000E+02  0.51100000000E-03 0. -1.
    9900012    2    1    2    0    0  0.48771426255E+01  0.17620117621E+02  0.40526494413E+01  0.72461573949E+02  0.70000004761E+02 0.  0.
         12    1    1    2    0    0 -0.48771426255E+01 -0.17620117621E+02 -0.40526494413E+01  0.18726426051E+02  0.00000000000E+00 0. -1.
         11    1    3    3    0    0  0.11875785301E+02  0.10552559058E+02  0.13826408455E+02  0.21060872495E+02  0.51100000000E-03 0. -1.
        -11    1    3    3    0    0 -0.12362699189E+02  0.40793885963E+01  0.18414446123E+02  0.22551487065E+02  0.51100000000E-03 0.  1.
         12    1    3    3    0    0  0.53640565126E+01  0.29881699665E+01 -0.28188205137E+02  0.28849214389E+02  0.00000000000E+00 0. -1.
</event>
<event>
 7    1  0.3196678E-013  0.7246157E+02  0.7816164E-02  0.1226708E+00
        -11   -1    0    0    0    0  0.00000000000E+00  0.00000000000E+00  0.45593999997E+02  0.45594000000E+02  0.51100000000E-03 0.  1.
         11   -1    0    0    0    0 -0.00000000000E+00 -0.00000000000E+00 -0.45593999997E+02  0.45594000000E+02  0.51100000000E-03 0. -1.
    9900012    2    1    2    0    0  0.15739183322E+01 -0.14916824005E+02  0.11211167121E+02  0.72461571469E+02  0.70000001530E+02 0.  0.
         12    1    1    2    0    0 -0.15739183322E+01  0.14916824005E+02 -0.11211167121E+02  0.18726428531E+02  0.00000000000E+00 0. -1.
         11    1    3    3    0    0  0.97610586682E+01  0.57635172410E+01  0.53755315226E+01  0.12545626199E+02  0.51100000000E-03 0. -1.
        -11    1    3    3    0    0  0.64231715950E+01 -0.31943280278E+02  0.18567082770E+02  0.37501557983E+02  0.51100000000E-03 0.  1.
         12    1    3    3    0    0 -0.14610311931E+02  0.11262939032E+02 -0.12731447172E+02  0.22414387287E+02  0.00000000000E+00 0. -1.
</event>
<event>
 7    1  0.3196678E-013  0.7246157E+02  0.7816164E-02  0.1226708E+00
        -11   -1    0    0    0    0  0.00000000000E+00  0.00000000000E+00  0.45593999997E+02  0.45594000000E+02  0.51100000000E-03 0.  1.
         11   -1    0    0    0    0 -0.00000000000E+00 -0.00000000000E+00 -0.45593999997E+02  0.45594000000E+02  0.51100000000E-03 0. -1.
    9900012    2    1    2    0    0 -0.11478629171E+02 -0.24456212571E+01 -0.14592430284E+02  0.72461574485E+02  0.70000005459E+02 0.  0.
         12    1    1    2    0    0  0.11478629171E+02  0.24456212571E+01  0.14592430284E+02  0.18726425515E+02  0.00000000000E+00 0. -1.
         11    1    3    3    0    0 -0.19288754927E+02 -0.48010787789E+01  0.45533964273E+01  0.20392151513E+02  0.51100000000E-03 0. -1.
        -11    1    3    3    0    0 -0.95885468848E+01  0.16909598496E+02  0.37969141538E+01  0.19806345196E+02  0.51100000000E-03 0.  1.
         12    1    3    3    0    0  0.17398672641E+02 -0.14554140974E+02 -0.22942740865E+02  0.32263077776E+02  0.00000000000E+00 0. -1.
</event>
<event>
 7    1  0.3196678E-013  0.7246155E+02  0.7816164E-02  0.1226708E+00
        -11   -1    0    0    0    0  0.00000000000E+00  0.00000000000E+00  0.45593999997E+02  0.45594000000E+02  0.51100000000E-03 0.  1.
         11   -1    0    0    0    0 -0.00000000000E+00 -0.00000000000E+00 -0.45593999997E+02  0.45594000000E+02  0.51100000000E-03 0. -1.
    9900012    2    1    2    0    0 -0.10427151191E+02  0.14462919593E+02  0.57252355336E+01  0.72461552204E+02  0.69999976435E+02 0.  0.
         12    1    1    2    0    0  0.10427151191E+02 -0.14462919593E+02 -0.57252355336E+01  0.18726447796E+02  0.00000000000E+00 0. -1.
         11    1    3    3    0    0  0.35079609805E+01  0.17295811570E+02 -0.26219102756E+02  0.31605256489E+02  0.51100000000E-03 0. -1.
        -11    1    3    3    0    0  0.15221722695E+01 -0.70278013477E+00 -0.25186183008E+01  0.30256151014E+01  0.51100000000E-03 0.  1.
        -12    1    3    3    0    0 -0.15457284441E+02 -0.21301118424E+01  0.34462956591E+02  0.37830680614E+02  0.00000000000E+00 0.  1.
</event>
<event>
 7    1  0.3196678E-013  0.7246175E+02  0.7816164E-02  0.1226708E+00
        -11   -1    0    0    0    0  0.00000000000E+00  0.00000000000E+00  0.45593999997E+02  0.45594000000E+02  0.51100000000E-03 0. -1.
         11   -1    0    0    0    0 -0.00000000000E+00 -0.00000000000E+00 -0.45593999997E+02  0.45594000000E+02  0.51100000000E-03 0.  1.
    9900012    2    1    2    0    0  0.10604868358E+02  0.17198209103E+01 -0.15337910781E+02  0.72461747733E+02  0.70000231147E+02 0.  0.
         12    1    1    2    0    0 -0.10604868358E+02 -0.17198209103E+01  0.15337910781E+02  0.18726252267E+02  0.00000000000E+00 0. -1.
         11    1    3    3    0    0 -0.87191595618E+01  0.54440798473E+01 -0.82208435596E+01  0.13162219339E+02  0.51100000000E-03 0. -1.
        -11    1    3    3    0    0 -0.93922519456E+01  0.14562547246E+01 -0.23841852390E+02  0.25666495672E+02  0.51100000000E-03 0.  1.
         12    1    3    3    0    0  0.28716279865E+02 -0.51805136616E+01  0.16724785169E+02  0.33633032722E+02  0.00000000000E+00 0. -1.
</event>
<event>
 7    1  0.3196678E-013  0.7246156E+02  0.7816164E-02  0.1226708E+00
        -11   -1    0    0    0    0  0.00000000000E+00  0.00000000000E+00  0.45593999997E+02  0.45594000000E+02  0.51100000000E-03 0. -1.
         11   -1    0    0    0    0 -0.00000000000E+00 -0.00000000000E+00 -0.45593999997E+02  0.45594000000E+02  0.51100000000E-03 0.  1.
    9900012    2    1    2    0    0  0.43059492963E+01  0.17919514138E+02 -0.33210499876E+01  0.72461559887E+02  0.69999986442E+02 0.  0.
         12    1    1    2    0    0 -0.43059492963E+01 -0.17919514138E+02  0.33210499876E+01  0.18726440113E+02  0.00000000000E+00 0. -1.
         11    1    3    3    0    0 -0.22295747956E+01 -0.25121417268E+01 -0.25861707850E+02  0.26078914721E+02  0.51100000000E-03 0.  1.
        -11    1    3    3    0    0  0.19528775073E+02  0.47751809471E+01  0.12725148345E+02  0.23792957143E+02  0.51100000000E-03 0. -1.
         12    1    3    3    0    0 -0.12993250981E+02  0.15656474918E+02  0.98155095168E+01  0.22589688023E+02  0.00000000000E+00 0. -1.
</event>
<event>
 7    1  0.3196678E-013  0.7246157E+02  0.7816164E-02  0.1226708E+00
        -11   -1    0    0    0    0  0.00000000000E+00  0.00000000000E+00  0.45593999997E+02  0.45594000000E+02  0.51100000000E-03 0.  1.
         11   -1    0    0    0    0 -0.00000000000E+00 -0.00000000000E+00 -0.45593999997E+02  0.45594000000E+02  0.51100000000E-03 0. -1.
    9900012    2    1    2    0    0 -0.57356222430E+01 -0.59363536965E+01  0.16808971851E+02  0.72461569683E+02  0.69999999204E+02 0.  0.
         12    1    1    2    0    0  0.57356222430E+01  0.59363536965E+01 -0.16808971851E+02  0.18726430317E+02  0.00000000000E+00 0. -1.
         11    1    3    3    0    0 -0.19894839039E+01  0.39792557898E+01  0.66900086104E+01  0.80342229439E+01  0.51100000000E-03 0. -1.
        -11    1    3    3    0    0  0.24252262909E+02 -0.23959021340E+01  0.22251250072E+02  0.33000465652E+02  0.51100000000E-03 0.  1.
         12    1    3    3    0    0 -0.27998401248E+02 -0.75197073523E+01 -0.12132286831E+02  0.31426881087E+02  0.00000000000E+00 0. -1.
</event>
<event>
 7    1  0.3196678E-013  0.7246157E+02  0.7816164E-02  0.1226708E+00
        -11   -1    0    0    0    0  0.00000000000E+00  0.00000000000E+00  0.45593999997E+02  0.45594000000E+02  0.51100000000E-03 0.  1.
         11   -1    0    0    0    0 -0.00000000000E+00 -0.00000000000E+00 -0.45593999997E+02  0.45594000000E+02  0.51100000000E-03 0. -1.
    9900012    2    1    2    0    0 -0.92016202842E+01  0.86511415805E+01  0.13826324834E+02  0.72461566145E+02  0.69999994595E+02 0.  0.
         12    1    1    2    0    0  0.92016202842E+01 -0.86511415805E+01 -0.13826324834E+02  0.18726433855E+02  0.00000000000E+00 0. -1.
         11    1    3    3    0    0 -0.22847984757E+01  0.14481048330E+02  0.11808861644E+02  0.18824725188E+02  0.51100000000E-03 0. -1.
        -11    1    3    3    0    0 -0.25473793026E+02 -0.17355146444E+02  0.60792096115E+01  0.31417702478E+02  0.51100000000E-03 0.  1.
         12    1    3    3    0    0  0.18556971218E+02  0.11525239694E+02 -0.40617464212E+01  0.22219138479E+02  0.00000000000E+00 0. -1.
</event>
<event>
 7    1  0.3196678E-013  0.7246156E+02  0.7816164E-02  0.1226708E+00
        -11   -1    0    0    0    0  0.00000000000E+00  0.00000000000E+00  0.45593999997E+02  0.45594000000E+02  0.51100000000E-03 0.  1.
         11   -1    0    0    0    0 -0.00000000000E+00 -0.00000000000E+00 -0.45593999997E+02  0.45594000000E+02  0.51100000000E-03 0. -1.
    9900012    2    1    2    0    0 -0.12932136601E+02 -0.13543974733E+02  0.92478101221E-02  0.72461561626E+02  0.69999988708E+02 0.  0.
         12    1    1    2    0    0  0.12932136601E+02  0.13543974733E+02 -0.92478101221E-02  0.18726438374E+02  0.00000000000E+00 0. -1.
         11    1    3    3    0    0 -0.30677654158E+01  0.20186543399E+02  0.76798464821E+01  0.21814851852E+02  0.51100000000E-03 0. -1.
        -11    1    3    3    0    0  0.82897082129E+00  0.70510676392E+01  0.20314422193E+01  0.73845450251E+01  0.51100000000E-03 0.  1.
         12    1    3    3    0    0 -0.10693342007E+02 -0.40781585772E+02 -0.97020408914E+01  0.43262164749E+02  0.00000000000E+00 0. -1.
</event>
<event>
 7    1  0.3196678E-013  0.7246179E+02  0.7816164E-02  0.1226707E+00
        -11   -1    0    0    0    0  0.00000000000E+00  0.00000000000E+00  0.45593999997E+02  0.45594000000E+02  0.51100000000E-03 0.  1.
         11   -1    0    0    0    0 -0.00000000000E+00 -0.00000000000E+00 -0.45593999997E+02  0.45594000000E+02  0.51100000000E-03 0. -1.
    9900012    2    1    2    0    0 -0.22152585772E+01  0.11967904954E+02  0.14231407707E+02  0.72461786158E+02  0.70000281202E+02 0.  0.
         12    1    1    2    0    0  0.22152585772E+01 -0.11967904954E+02 -0.14231407707E+02  0.18726213842E+02  0.00000000000E+00 0. -1.
         11    1    3    3    0    0 -0.70304850696E+01 -0.23711419613E+01  0.34682397201E+01  0.81901600431E+01  0.51100000000E-03 0. -1.
        -11    1    3    3    0    0  0.33004139361E+01 -0.16594900540E+02  0.24998097465E+02  0.30185896263E+02  0.51100000000E-03 0.  1.
         12    1    3    3    0    0  0.15148125563E+01  0.30933947455E+02 -0.14234929479E+02  0.34085729851E+02  0.00000000000E+00 0. -1.
</event>
<event>
 7    1  0.3196678E-013  0.7246162E+02  0.7816164E-02  0.1226708E+00
        -11   -1    0    0    0    0  0.00000000000E+00  0.00000000000E+00  0.45593999997E+02  0.45594000000E+02  0.51100000000E-03 0. -1.
         11   -1    0    0    0    0 -0.00000000000E+00 -0.00000000000E+00 -0.45593999997E+02  0.45594000000E+02  0.51100000000E-03 0.  1.
    9900012    2    1    2    0    0 -0.73655910966E+01 -0.94400604701E+01 -0.14398287592E+02  0.72461618623E+02  0.70000062957E+02 0.  0.
         12    1    1    2    0    0  0.73655910966E+01  0.94400604701E+01  0.14398287592E+02  0.18726381377E+02  0.00000000000E+00 0. -1.
         11    1    3    3    0    0 -0.15768918898E+02  0.10782163520E+02  0.13612404425E+02  0.23456585597E+02  0.51100000000E-03 0. -1.
        -11    1    3    3    0    0 -0.11045263981E+01 -0.24882196215E+02 -0.76489416619E+01  0.26054749583E+02  0.51100000000E-03 0.  1.
        -12    1    3    3    0    0  0.95078541992E+01  0.46599722242E+01 -0.20361750355E+02  0.22950283443E+02  0.00000000000E+00 0.  1.
</event>
<event>
 7    1  0.3196678E-013  0.7246155E+02  0.7816164E-02  0.1226708E+00
        -11   -1    0    0    0    0  0.00000000000E+00  0.00000000000E+00  0.45593999997E+02  0.45594000000E+02  0.51100000000E-03 0.  1.
         11   -1    0    0    0    0 -0.00000000000E+00 -0.00000000000E+00 -0.45593999997E+02  0.45594000000E+02  0.51100000000E-03 0. -1.
    9900012    2    1    2    0    0 -0.16324215443E+02  0.36688123087E+01  0.84106954432E+01  0.72461548350E+02  0.69999971413E+02 0.  0.
         12    1    1    2    0    0  0.16324215443E+02 -0.36688123087E+01 -0.84106954432E+01  0.18726451650E+02  0.00000000000E+00 0. -1.
         11    1    3    3    0    0  0.17290222236E+02  0.15137241240E+02  0.25886946557E+01  0.23125509673E+02  0.51100000000E-03 0. -1.
        -11    1    3    3    0    0 -0.64626037090E+00  0.88113670681E+01 -0.35331769768E+01  0.95153130209E+01  0.51100000000E-03 0.  1.
         12    1    3    3    0    0 -0.32968177308E+02 -0.20279795999E+02  0.93551777643E+01  0.39820725656E+02  0.00000000000E+00 0. -1.
</event>
<event>
 7    1  0.3196678E-013  0.7246163E+02  0.7816164E-02  0.1226708E+00
        -11   -1    0    0    0    0  0.00000000000E+00  0.00000000000E+00  0.45593999997E+02  0.45594000000E+02  0.51100000000E-03 0. -1.
         11   -1    0    0    0    0 -0.00000000000E+00 -0.00000000000E+00 -0.45593999997E+02  0.45594000000E+02  0.51100000000E-03 0.  1.
    9900012    2    1    2    0    0 -0.66379431565E+01  0.63111874024E+01 -0.16333507023E+02  0.72461632828E+02  0.70000081462E+02 0.  0.
         12    1    1    2    0    0  0.66379431565E+01 -0.63111874024E+01  0.16333507023E+02  0.18726367172E+02  0.00000000000E+00 0. -1.
         11    1    3    3    0    0 -0.72222374614E+01 -0.98404514455E+01  0.12402555062E+02  0.17401682991E+02  0.51100000000E-03 0. -1.
        -11    1    3    3    0    0 -0.10142463347E+02  0.11181558138E+02  0.75625945525E+01  0.16884597767E+02  0.51100000000E-03 0.  1.
         12    1    3    3    0    0  0.10726757652E+02  0.49700807100E+01 -0.36298656637E+02  0.38175352070E+02  0.00000000000E+00 0. -1.
</event>
<event>
 7    1  0.3196678E-013  0.7246160E+02  0.7816164E-02  0.1226708E+00
        -11   -1    0    0    0    0  0.00000000000E+00  0.00000000000E+00  0.45593999997E+02  0.45594000000E+02  0.51100000000E-03 0.  1.
         11   -1    0    0    0    0 -0.00000000000E+00 -0.00000000000E+00 -0.45593999997E+02  0.45594000000E+02  0.51100000000E-03 0. -1.
    9900012    2    1    2    0    0 -0.12546257841E+02  0.13689626429E+02  0.24215102718E+01  0.72461596994E+02  0.70000034781E+02 0.  0.
         12    1    1    2    0    0  0.12546257841E+02 -0.13689626429E+02 -0.24215102718E+01  0.18726403006E+02  0.00000000000E+00 0. -1.
         11    1    3    3    0    0 -0.20693582976E+02  0.14007344260E+02  0.15729794784E+02  0.29527216493E+02  0.51100000000E-03 0. -1.
        -11    1    3    3    0    0 -0.66669815982E+01 -0.70279292271E+01  0.10381687125E+02  0.14199290851E+02  0.51100000000E-03 0.  1.
         12    1    3    3    0    0  0.14814306734E+02  0.67102113960E+01 -0.23689971637E+02  0.28735089649E+02  0.00000000000E+00 0. -1.
</event>
<event>
 7    1  0.3196678E-013  0.7246159E+02  0.7816164E-02  0.1226708E+00
        -11   -1    0    0    0    0  0.00000000000E+00  0.00000000000E+00  0.45593999997E+02  0.45594000000E+02  0.51100000000E-03 0.  1.
         11   -1    0    0    0    0 -0.00000000000E+00 -0.00000000000E+00 -0.45593999997E+02  0.45594000000E+02  0.51100000000E-03 0. -1.
    9900012    2    1    2    0    0  0.76161211449E+01  0.16801137436E+02 -0.32241365936E+01  0.72461586109E+02  0.70000020602E+02 0.  0.
         12    1    1    2    0    0 -0.76161211449E+01 -0.16801137436E+02  0.32241365936E+01  0.18726413891E+02  0.00000000000E+00 0. -1.
         11    1    3    3    0    0 -0.88851765755E+01  0.51581111654E+00  0.12971141593E+02  0.15730954783E+02  0.51100000000E-03 0. -1.
        -11    1    3    3    0    0  0.46261806766E+00  0.11845527853E+01  0.16914466691E+02  0.16962203998E+02  0.51100000000E-03 0.  1.
         12    1    3    3    0    0  0.16038679653E+02  0.15100773534E+02 -0.33109744878E+02  0.39768427329E+02  0.00000000000E+00 0. -1.
</event>
<event>
 7    1  0.3196678E-013  0.7246156E+02  0.7816164E-02  0.1226708E+00
        -11   -1    0    0    0    0  0.00000000000E+00  0.00000000000E+00  0.45593999997E+02  0.45594000000E+02  0.51100000000E-03 0. -1.
         11   -1    0    0    0    0 -0.00000000000E+00 -0.00000000000E+00 -0.45593999997E+02  0.45594000000E+02  0.51100000000E-03 0.  1.
    9900012    2    1    2    0    0 -0.67663441265E+01 -0.14763693235E+02 -0.93236068772E+01  0.72461556238E+02  0.69999981688E+02 0.  0.
         12    1    1    2    0    0  0.67663441265E+01  0.14763693235E+02  0.93236068772E+01  0.18726443762E+02  0.00000000000E+00 0. -1.
         11    1    3    3    0    0 -0.18029995541E+01  0.57371621487E+01 -0.66833180720E+01  0.89906939457E+01  0.51100000000E-03 0. -1.
        -11    1    3    3    0    0  0.49376897066E+01 -0.89320548836E+01 -0.30258335720E+02  0.31933200042E+02  0.51100000000E-03 0.  1.
         12    1    3    3    0    0 -0.99010342791E+01 -0.11568800501E+02  0.27618046915E+02  0.31537662250E+02  0.00000000000E+00 0. -1.
</event>
<event>
 7    1  0.3196678E-013  0.7246157E+02  0.7816164E-02  0.1226708E+00
        -11   -1    0    0    0    0  0.00000000000E+00  0.00000000000E+00  0.45593999997E+02  0.45594000000E+02  0.51100000000E-03 0. -1.
         11   -1    0    0    0    0 -0.00000000000E+00 -0.00000000000E+00 -0.45593999997E+02  0.45594000000E+02  0.51100000000E-03 0.  1.
    9900012    2    1    2    0    0 -0.59610510660E+01  0.26089318294E+01 -0.17559571969E+02  0.72461568871E+02  0.69999998146E+02 0.  0.
         12    1    1    2    0    0  0.59610510660E+01 -0.26089318294E+01  0.17559571969E+02  0.18726431129E+02  0.00000000000E+00 0. -1.
         11    1    3    3    0    0 -0.22730445927E+02  0.20365990425E+02  0.78810272112E+01  0.31520744411E+02  0.51100000000E-03 0. -1.
        -11    1    3    3    0    0 -0.38781801964E+01 -0.16651890633E+01  0.29552889951E+00  0.42308951587E+01  0.51100000000E-03 0.  1.
        -12    1    3    3    0    0  0.20647575058E+02 -0.16091869532E+02 -0.25736128079E+02  0.36709929302E+02  0.00000000000E+00 0.  1.
</event>
<event>
 7    1  0.3196678E-013  0.7246151E+02  0.7816164E-02  0.1226708E+00
        -11   -1    0    0    0    0  0.00000000000E+00  0.00000000000E+00  0.45593999997E+02  0.45594000000E+02  0.51100000000E-03 0.  1.
         11   -1    0    0    0    0 -0.00000000000E+00 -0.00000000000E+00 -0.45593999997E+02  0.45594000000E+02  0.51100000000E-03 0. -1.
    9900012    2    1    2    0    0  0.47986882462E+01 -0.15774630025E+02  0.88777760784E+01  0.72461514227E+02  0.69999926962E+02 0.  0.
         12    1    1    2    0    0 -0.47986882462E+01  0.15774630025E+02 -0.88777760784E+01  0.18726485773E+02  0.00000000000E+00 0. -1.
         11    1    3    3    0    0  0.11624851019E+02  0.11360904640E+02  0.18389353852E+02  0.24543342291E+02  0.51100000000E-03 0.  1.
        -11    1    3    3    0    0 -0.61717337200E+01 -0.48201839088E+00  0.12103952207E+02  0.13595157158E+02  0.51100000000E-03 0. -1.
         12    1    3    3    0    0 -0.65442905284E+00 -0.26653516274E+02 -0.21615529981E+02  0.34323014779E+02  0.00000000000E+00 0. -1.
</event>
<event>
 7    1  0.3196678E-013  0.7246180E+02  0.7816164E-02  0.1226707E+00
        -11   -1    0    0    0    0  0.00000000000E+00  0.00000000000E+00  0.45593999997E+02  0.45594000000E+02  0.51100000000E-03 0. -1.
         11   -1    0    0    0    0 -0.00000000000E+00 -0.00000000000E+00 -0.45593999997E+02  0.45594000000E+02  0.51100000000E-03 0.  1.
    9900012    2    1    2    0    0  0.27279971816E+01  0.12326266224E+02 -0.13830822634E+02  0.72461802778E+02  0.70000302853E+02 0.  0.
         12    1    1    2    0    0 -0.27279971816E+01 -0.12326266224E+02  0.13830822634E+02  0.18726197222E+02  0.00000000000E+00 0. -1.
         11    1    3    3    0    0  0.62843416890E+01  0.20148227781E+02  0.83949339329E+01  0.22713849281E+02  0.51100000000E-03 0. -1.
        -11    1    3    3    0    0  0.17447713798E+02  0.95442408567E+00  0.63639561244E+00  0.17485383660E+02  0.51100000000E-03 0.  1.
        -12    1    3    3    0    0 -0.21004058305E+02 -0.87763856420E+01 -0.22862152179E+02  0.32262569837E+02  0.00000000000E+00 0.  1.
</event>
<event>
 7    1  0.3196678E-013  0.7246142E+02  0.7816164E-02  0.1226708E+00
        -11   -1    0    0    0    0  0.00000000000E+00  0.00000000000E+00  0.45593999997E+02  0.45594000000E+02  0.51100000000E-03 0. -1.
         11   -1    0    0    0    0 -0.00000000000E+00 -0.00000000000E+00 -0.45593999997E+02  0.45594000000E+02  0.51100000000E-03 0.  1.
    9900012    2    1    2    0    0  0.13768250095E+02 -0.81130639173E+01  0.97620815071E+01  0.72461421238E+02  0.69999805826E+02 0.  0.
         12    1    1    2    0    0 -0.13768250095E+02  0.81130639173E+01 -0.97620815071E+01  0.18726578762E+02  0.00000000000E+00 0. -1.
         11    1    3    3    0    0 -0.15199522158E+02  0.38639689449E+01 -0.53301695991E+01  0.16564010325E+02  0.51100000000E-03 0. -1.
        -11    1    3    3    0    0  0.15594407860E+02 -0.27721466342E+02  0.15171433009E+02  0.35239716691E+02  0.51100000000E-03 0.  1.
         12    1    3    3    0    0  0.13373364393E+02  0.15744433479E+02 -0.79181902915E-01  0.20657694221E+02  0.00000000000E+00 0. -1.
</event>
<event>
 7    1  0.3196678E-013  0.7246155E+02  0.7816164E-02  0.1226708E+00
        -11   -1    0    0    0    0  0.00000000000E+00  0.00000000000E+00  0.45593999997E+02  0.45594000000E+02  0.51100000000E-03 0.  1.
         11   -1    0    0    0    0 -0.00000000000E+00 -0.00000000000E+00 -0.45593999997E+02  0.45594000000E+02  0.51100000000E-03 0. -1.
    9900012    2    1    2    0    0 -0.14837115269E+02 -0.11418781443E+02  0.38914199240E+00  0.72461548370E+02  0.69999971440E+02 0.  0.
         12    1    1    2    0    0  0.14837115269E+02  0.11418781443E+02 -0.38914199240E+00  0.18726451630E+02  0.00000000000E+00 0. -1.
         11    1    3    3    0    0  0.15971181063E+02 -0.23560998102E+02  0.40150502691E+01  0.28745780300E+02  0.51100000000E-03 0. -1.
        -11    1    3    3    0    0 -0.58737978230E+01 -0.88597753919E+01 -0.32394818485E+01  0.11112666816E+02  0.51100000000E-03 0.  1.
        -12    1    3    3    0    0 -0.24934498509E+02  0.21001992050E+02 -0.38642642824E+00  0.32603101254E+02  0.00000000000E+00 0.  1.
</event>
<event>
 7    1  0.3196678E-013  0.7246180E+02  0.7816164E-02  0.1226707E+00
        -11   -1    0    0    0    0  0.00000000000E+00  0.00000000000E+00  0.45593999997E+02  0.45594000000E+02  0.51100000000E-03 0.  1.
         11   -1    0    0    0    0 -0.00000000000E+00 -0.00000000000E+00 -0.45593999997E+02  0.45594000000E+02  0.51100000000E-03 0. -1.
    9900012    2    1    2    0    0 -0.11469317986E+02 -0.13986338012E+02  0.48484550132E+01  0.72461803855E+02  0.70000304256E+02 0.  0.
         12    1    1    2    0    0  0.11469317986E+02  0.13986338012E+02 -0.48484550132E+01  0.18726196145E+02  0.00000000000E+00 0. -1.
         11    1    3    3    0    0 -0.10171462138E+01  0.48454560362E+01 -0.19914379587E+02  0.20520612691E+02  0.51100000000E-03 0. -1.
        -11    1    3    3    0    0  0.77765629509E+01  0.39372215106E+01 -0.51809250860E+01  0.10139952148E+02  0.51100000000E-03 0.  1.
        -12    1    3    3    0    0 -0.18228734723E+02 -0.22769015558E+02  0.29943759687E+02  0.41801239016E+02  0.00000000000E+00 0.  1.
</event>
<event>
 7    1  0.3196678E-013  0.7246160E+02  0.7816164E-02  0.1226708E+00
        -11   -1    0    0    0    0  0.00000000000E+00  0.00000000000E+00  0.45593999997E+02  0.45594000000E+02  0.51100000000E-03 0.  1.
         11   -1    0    0    0    0 -0.00000000000E+00 -0.00000000000E+00 -0.45593999997E+02  0.45594000000E+02  0.51100000000E-03 0. -1.
    9900012    2    1    2    0    0 -0.15858667853E+02 -0.32357654430E+01 -0.94186172321E+01  0.72461604868E+02  0.70000045038E+02 0.  0.
         12    1    1    2    0    0  0.15858667853E+02  0.32357654430E+01  0.94186172321E+01  0.18726395132E+02  0.00000000000E+00 0. -1.
         11    1    3    3    0    0 -0.67718027269E+01  0.14115544818E+02  0.74713428736E+01  0.17347244227E+02  0.51100000000E-03 0. -1.
        -11    1    3    3    0    0 -0.36470767826E+01  0.75909375173E+01  0.13197754763E+02  0.15655805073E+02  0.51100000000E-03 0.  1.
         12    1    3    3    0    0 -0.54397883439E+01 -0.24942247778E+02 -0.30087714868E+02  0.39458555567E+02  0.00000000000E+00 0. -1.
</event>
<event>
 7    1  0.3196678E-013  0.7246157E+02  0.7816164E-02  0.1226708E+00
        -11   -1    0    0    0    0  0.00000000000E+00  0.00000000000E+00  0.45593999997E+02  0.45594000000E+02  0.51100000000E-03 0.  1.
         11   -1    0    0    0    0 -0.00000000000E+00 -0.00000000000E+00 -0.45593999997E+02  0.45594000000E+02  0.51100000000E-03 0. -1.
    9900012    2    1    2    0    0 -0.23393187359E+01 -0.15042279233E+02  0.10905802423E+02  0.72461572067E+02  0.70000002309E+02 0.  0.
         12    1    1    2    0    0  0.23393187359E+01  0.15042279233E+02 -0.10905802423E+02  0.18726427933E+02  0.00000000000E+00 0. -1.
         11    1    3    3    0    0  0.31845633686E+01  0.23487221701E+02  0.53326488834E+01  0.24294611984E+02  0.51100000000E-03 0. -1.
        -11    1    3    3    0    0 -0.37593231780E-01  0.44633501877E+01  0.10866620534E+01  0.45938810203E+01  0.51100000000E-03 0.  1.
        -12    1    3    3    0    0 -0.54862888728E+01 -0.42992851121E+02  0.44864914860E+01  0.43573079062E+02  0.00000000000E+00 0.  1.
</event>
<event>
 7    1  0.3196678E-013  0.7246158E+02  0.7816164E-02  0.1226708E+00
        -11   -1    0    0    0    0  0.00000000000E+00  0.00000000000E+00  0.45593999997E+02  0.45594000000E+02  0.51100000000E-03 0.  1.
         11   -1    0    0    0    0 -0.00000000000E+00 -0.00000000000E+00 -0.45593999997E+02  0.45594000000E+02  0.51100000000E-03 0. -1.
    9900012    2    1    2    0    0  0.13864959071E+02 -0.18900826124E+01  0.12444651533E+02  0.72461578716E+02  0.70000010971E+02 0.  0.
         12    1    1    2    0    0 -0.13864959071E+02  0.18900826124E+01 -0.12444651533E+02  0.18726421284E+02  0.00000000000E+00 0. -1.
         11    1    3    3    0    0  0.30699844545E+02  0.13265835064E+02  0.18854679380E+01  0.33496534517E+02  0.51100000000E-03 0.  1.
        -11    1    3    3    0    0 -0.14437494632E+02  0.30363205530E+01  0.13950684620E+02  0.20304730862E+02  0.51100000000E-03 0. -1.
        -12    1    3    3    0    0 -0.23973908413E+01 -0.18192238230E+02 -0.33915010256E+01  0.18660313338E+02  0.00000000000E+00 0.  1.
</event>
<event>
 7    1  0.3196678E-013  0.7246145E+02  0.7816164E-02  0.1226708E+00
        -11   -1    0    0    0    0  0.00000000000E+00  0.00000000000E+00  0.45593999997E+02  0.45594000000E+02  0.51100000000E-03 0.  1.
         11   -1    0    0    0    0 -0.00000000000E+00 -0.00000000000E+00 -0.45593999997E+02  0.45594000000E+02  0.51100000000E-03 0. -1.
    9900012    2    1    2    0    0  0.15464190261E+02  0.66612786824E+01  0.81957130369E+01  0.72461453968E+02  0.69999848463E+02 0.  0.
         12    1    1    2    0    0 -0.15464190261E+02 -0.66612786824E+01 -0.81957130369E+01  0.18726546032E+02  0.00000000000E+00 0. -1.
         11    1    3    3    0    0  0.18598216322E+02  0.35181403373E+01  0.48660860864E+01  0.19543534886E+02  0.51100000000E-03 0. -1.
        -11    1    3    3    0    0  0.22679144041E+02  0.43891596844E+01  0.11512948890E+02  0.25810003672E+02  0.51100000000E-03 0.  1.
        -12    1    3    3    0    0 -0.25813170101E+02 -0.12460213394E+01 -0.81833219399E+01  0.27107915409E+02  0.00000000000E+00 0.  1.
</event>
<event>
 7    1  0.3196678E-013  0.7246158E+02  0.7816164E-02  0.1226708E+00
        -11   -1    0    0    0    0  0.00000000000E+00  0.00000000000E+00  0.45593999997E+02  0.45594000000E+02  0.51100000000E-03 0.  1.
         11   -1    0    0    0    0 -0.00000000000E+00 -0.00000000000E+00 -0.45593999997E+02  0.45594000000E+02  0.51100000000E-03 0. -1.
    9900012    2    1    2    0    0 -0.29419144471E+01 -0.14143647937E+02 -0.11915581110E+02  0.72461582543E+02  0.70000015956E+02 0.  0.
         12    1    1    2    0    0  0.29419144471E+01  0.14143647937E+02  0.11915581110E+02  0.18726417457E+02  0.00000000000E+00 0. -1.
         11    1    3    3    0    0  0.25094770353E+02 -0.14003786186E+02 -0.82881364763E+01  0.29908974124E+02  0.51100000000E-03 0. -1.
        -11    1    3    3    0    0 -0.47719884883E+01 -0.99247782693E+01  0.91005835853E+01  0.14286137325E+02  0.51100000000E-03 0.  1.
        -12    1    3    3    0    0 -0.23264696312E+02  0.97849165177E+01 -0.12728028219E+02  0.28266471094E+02  0.00000000000E+00 0.  1.
</event>
<event>
 7    1  0.3196678E-013  0.7246157E+02  0.7816164E-02  0.1226708E+00
        -11   -1    0    0    0    0  0.00000000000E+00  0.00000000000E+00  0.45593999997E+02  0.45594000000E+02  0.51100000000E-03 0.  1.
         11   -1    0    0    0    0 -0.00000000000E+00 -0.00000000000E+00 -0.45593999997E+02  0.45594000000E+02  0.51100000000E-03 0. -1.
    9900012    2    1    2    0    0  0.12960749563E+02 -0.85457883380E+01  0.10472241339E+02  0.72461565042E+02  0.69999993158E+02 0.  0.
         12    1    1    2    0    0 -0.12960749563E+02  0.85457883380E+01 -0.10472241339E+02  0.18726434958E+02  0.00000000000E+00 0. -1.
         11    1    3    3    0    0  0.19883359814E+02 -0.32430927091E+02  0.11222754072E+02  0.39661861261E+02  0.51100000000E-03 0. -1.
        -11    1    3    3    0    0  0.68243919593E+01  0.27074227218E+01  0.13472752311E+01  0.74644232341E+01  0.51100000000E-03 0.  1.
        -12    1    3    3    0    0 -0.13747002209E+02  0.21177716032E+02 -0.20977879646E+01  0.25335280547E+02  0.00000000000E+00 0.  1.
</event>
<event>
 7    1  0.3196678E-013  0.7246154E+02  0.7816164E-02  0.1226708E+00
        -11   -1    0    0    0    0  0.00000000000E+00  0.00000000000E+00  0.45593999997E+02  0.45594000000E+02  0.51100000000E-03 0.  1.
         11   -1    0    0    0    0 -0.00000000000E+00 -0.00000000000E+00 -0.45593999997E+02  0.45594000000E+02  0.51100000000E-03 0. -1.
    9900012    2    1    2    0    0 -0.11623906277E+02  0.46298548615E+01  0.13933037628E+02  0.72461540358E+02  0.69999961003E+02 0.  0.
         12    1    1    2    0    0  0.11623906277E+02 -0.46298548615E+01 -0.13933037628E+02  0.18726459642E+02  0.00000000000E+00 0. -1.
         11    1    3    3    0    0 -0.64190728826E+01  0.70924732678E+01  0.32494304969E+02  0.33873109238E+02  0.51100000000E-03 0. -1.
        -11    1    3    3    0    0 -0.96012093261E+01  0.25315916343E+01  0.70172488572E+01  0.12158698882E+02  0.51100000000E-03 0.  1.
         12    1    3    3    0    0  0.43963759320E+01 -0.49942100407E+01 -0.25578516198E+02  0.26429732238E+02  0.00000000000E+00 0. -1.
</event>
<event>
 7    1  0.3196678E-013  0.7246144E+02  0.7816164E-02  0.1226708E+00
        -11   -1    0    0    0    0  0.00000000000E+00  0.00000000000E+00  0.45593999997E+02  0.45594000000E+02  0.51100000000E-03 0.  1.
         11   -1    0    0    0    0 -0.00000000000E+00 -0.00000000000E+00 -0.45593999997E+02  0.45594000000E+02  0.51100000000E-03 0. -1.
    9900012    2    1    2    0    0 -0.30442615003E+01  0.78610653769E+01  0.16721842018E+02  0.72461444592E+02  0.69999836250E+02 0.  0.
         12    1    1    2    0    0  0.30442615003E+01 -0.78610653769E+01 -0.16721842018E+02  0.18726555408E+02  0.00000000000E+00 0. -1.
         11    1    3    3    0    0  0.11906199781E+02 -0.12558783672E+02 -0.12300413334E+02  0.21231599304E+02  0.51100000000E-03 0. -1.
        -11    1    3    3    0    0  0.10269645027E+02  0.24057828216E+01  0.36026117696E+01  0.11145950466E+02  0.51100000000E-03 0.  1.
        -12    1    3    3    0    0 -0.25220106309E+02  0.18014066228E+02  0.25419643583E+02  0.40083894822E+02  0.00000000000E+00 0.  1.
</event>
<event>
 7    1  0.3196678E-013  0.7246155E+02  0.7816164E-02  0.1226708E+00
        -11   -1    0    0    0    0  0.00000000000E+00  0.00000000000E+00  0.45593999997E+02  0.45594000000E+02  0.51100000000E-03 0. -1.
         11   -1    0    0    0    0 -0.00000000000E+00 -0.00000000000E+00 -0.45593999997E+02  0.45594000000E+02  0.51100000000E-03 0.  1.
    9900012    2    1    2    0    0 -0.15221049058E+02 -0.78295296518E+01  0.75959123529E+01  0.72461554703E+02  0.69999979689E+02 0.  0.
         12    1    1    2    0    0  0.15221049058E+02  0.78295296518E+01 -0.75959123529E+01  0.18726445297E+02  0.00000000000E+00 0. -1.
         11    1    3    3    0    0 -0.79713345592E+00  0.66345709368E+01  0.24527256781E+02  0.25421236767E+02  0.51100000000E-03 0. -1.
        -11    1    3    3    0    0 -0.13527249876E+02  0.10678105057E+02 -0.12976705768E+02  0.21573208145E+02  0.51100000000E-03 0.  1.
        -12    1    3    3    0    0 -0.89666572629E+00 -0.25142205646E+02 -0.39546386608E+01  0.25467109791E+02  0.00000000000E+00 0.  1.
</event>
<event>
 7    1  0.3196678E-013  0.7246161E+02  0.7816164E-02  0.1226708E+00
        -11   -1    0    0    0    0  0.00000000000E+00  0.00000000000E+00  0.45593999997E+02  0.45594000000E+02  0.51100000000E-03 0.  1.
         11   -1    0    0    0    0 -0.00000000000E+00 -0.00000000000E+00 -0.45593999997E+02  0.45594000000E+02  0.51100000000E-03 0. -1.
    9900012    2    1    2    0    0 -0.12941682087E+01 -0.14580080179E+02  0.11680069599E+02  0.72461611261E+02  0.70000053367E+02 0.  0.
         12    1    1    2    0    0  0.12941682087E+01  0.14580080179E+02 -0.11680069599E+02  0.18726388739E+02  0.00000000000E+00 0. -1.
         11    1    3    3    0    0 -0.46625367320E+01 -0.37724068364E+02  0.13610662314E+02  0.40374431409E+02  0.51100000000E-03 0. -1.
        -11    1    3    3    0    0 -0.78089844355E+00 -0.30915756000E+01  0.37525445072E+01  0.49243509835E+01  0.51100000000E-03 0.  1.
        -12    1    3    3    0    0  0.41492669669E+01  0.26235563785E+02 -0.56831372227E+01  0.27162828869E+02  0.00000000000E+00 0.  1.
</event>
<event>
 7    1  0.3196678E-013  0.7246165E+02  0.7816164E-02  0.1226708E+00
        -11   -1    0    0    0    0  0.00000000000E+00  0.00000000000E+00  0.45593999997E+02  0.45594000000E+02  0.51100000000E-03 0.  1.
         11   -1    0    0    0    0 -0.00000000000E+00 -0.00000000000E+00 -0.45593999997E+02  0.45594000000E+02  0.51100000000E-03 0. -1.
    9900012    2    1    2    0    0  0.15094032463E+02  0.11078939899E+02  0.32144309161E+00  0.72461653561E+02  0.70000108471E+02 0.  0.
         12    1    1    2    0    0 -0.15094032463E+02 -0.11078939899E+02 -0.32144309161E+00  0.18726346439E+02  0.00000000000E+00 0. -1.
         11    1    3    3    0    0  0.21148860617E+02  0.99130428477E+01 -0.24139347049E+02  0.33589444772E+02  0.51100000000E-03 0. -1.
        -11    1    3    3    0    0 -0.71550556198E+01  0.34417437301E+01 -0.49477367451E+01  0.93552402421E+01  0.51100000000E-03 0.  1.
        -12    1    3    3    0    0  0.11002274659E+01 -0.22758466786E+01  0.29408526886E+02  0.29516968547E+02  0.00000000000E+00 0.  1.
</event>
<event>
 7    1  0.3196678E-013  0.7246154E+02  0.7816164E-02  0.1226708E+00
        -11   -1    0    0    0    0  0.00000000000E+00  0.00000000000E+00  0.45593999997E+02  0.45594000000E+02  0.51100000000E-03 0.  1.
         11   -1    0    0    0    0 -0.00000000000E+00 -0.00000000000E+00 -0.45593999997E+02  0.45594000000E+02  0.51100000000E-03 0. -1.
    9900012    2    1    2    0    0  0.10401161668E+02  0.12852807136E+02  0.87921162751E+01  0.72461544812E+02  0.69999966804E+02 0.  0.
         12    1    1    2    0    0 -0.10401161668E+02 -0.12852807136E+02 -0.87921162751E+01  0.18726455188E+02  0.00000000000E+00 0. -1.
         11    1    3    3    0    0 -0.69440372827E+01  0.26156881222E+02  0.10739547820E+02  0.29115974596E+02  0.51100000000E-03 0. -1.
        -11    1    3    3    0    0  0.92511894395E+01  0.11006746249E+02  0.72745411884E+01  0.16113718342E+02  0.51100000000E-03 0.  1.
         12    1    3    3    0    0  0.80940095114E+01 -0.24310820335E+02 -0.92219727335E+01  0.27231851873E+02  0.00000000000E+00 0. -1.
</event>
<event>
 7    1  0.3196678E-013  0.7246151E+02  0.7816164E-02  0.1226708E+00
        -11   -1    0    0    0    0  0.00000000000E+00  0.00000000000E+00  0.45593999997E+02  0.45594000000E+02  0.51100000000E-03 0. -1.
         11   -1    0    0    0    0 -0.00000000000E+00 -0.00000000000E+00 -0.45593999997E+02  0.45594000000E+02  0.51100000000E-03 0.  1.
    9900012    2    1    2    0    0  0.16692618729E+01  0.15144358469E+02 -0.10887769089E+02  0.72461506885E+02  0.69999917398E+02 0.  0.
         12    1    1    2    0    0 -0.16692618729E+01 -0.15144358469E+02  0.10887769089E+02  0.18726493115E+02  0.00000000000E+00 0. -1.
         11    1    3    3    0    0 -0.11589295897E+00  0.18926717574E+01  0.20836788936E+02  0.20922892032E+02  0.51100000000E-03 0. -1.
        -11    1    3    3    0    0  0.31192418542E+01  0.91434907823E+01  0.74043670854E+01  0.12172006639E+02  0.51100000000E-03 0.  1.
        -12    1    3    3    0    0 -0.13340870224E+01  0.41081959292E+01 -0.39128925110E+02  0.39366608214E+02  0.00000000000E+00 0.  1.
</event>
<event>
 7    1  0.3196678E-013  0.7246150E+02  0.7816164E-02  0.1226708E+00
        -11   -1    0    0    0    0  0.00000000000E+00  0.00000000000E+00  0.45593999997E+02  0.45594000000E+02  0.51100000000E-03 0. -1.
         11   -1    0    0    0    0 -0.00000000000E+00 -0.00000000000E+00 -0.45593999997E+02  0.45594000000E+02  0.51100000000E-03 0.  1.
    9900012    2    1    2    0    0 -0.11089486448E+02 -0.13625770701E+02  0.64841049382E+01  0.72461495956E+02  0.69999903160E+02 0.  0.
         12    1    1    2    0    0  0.11089486448E+02  0.13625770701E+02 -0.64841049382E+01  0.18726504044E+02  0.00000000000E+00 0. -1.
         11    1    3    3    0    0  0.12050232156E+02 -0.18701883468E+02 -0.18750613935E+01  0.22326764113E+02  0.51100000000E-03 0. -1.
        -11    1    3    3    0    0  0.29435423944E+01  0.32274264945E+01 -0.14660316359E+02  0.15297241569E+02  0.51100000000E-03 0.  1.
         12    1    3    3    0    0 -0.26083260998E+02  0.18486862731E+01  0.23019482691E+02  0.34837490274E+02  0.00000000000E+00 0. -1.
</event>
<event>
 7    1  0.3196678E-013  0.7246152E+02  0.7816164E-02  0.1226708E+00
        -11   -1    0    0    0    0  0.00000000000E+00  0.00000000000E+00  0.45593999997E+02  0.45594000000E+02  0.51100000000E-03 0. -1.
         11   -1    0    0    0    0 -0.00000000000E+00 -0.00000000000E+00 -0.45593999997E+02  0.45594000000E+02  0.51100000000E-03 0.  1.
    9900012    2    1    2    0    0 -0.15285240033E+02  0.10783425067E+02 -0.87186718496E+00  0.72461522183E+02  0.69999937326E+02 0.  0.
         12    1    1    2    0    0  0.15285240033E+02 -0.10783425067E+02  0.87186718496E+00  0.18726477817E+02  0.00000000000E+00 0. -1.
         11    1    3    3    0    0 -0.15848714249E+01  0.81739867382E+01  0.29880835688E+02  0.31019191129E+02  0.51100000000E-03 0. -1.
        -11    1    3    3    0    0  0.32264464333E-01  0.11115633081E+02 -0.87492228014E+01  0.14145926611E+02  0.51100000000E-03 0.  1.
        -12    1    3    3    0    0 -0.13732633073E+02 -0.85061947524E+01 -0.22003480071E+02  0.27296404443E+02  0.00000000000E+00 0.  1.
</event>
<event>
 7    1  0.3196678E-013  0.7246157E+02  0.7816164E-02  0.1226708E+00
        -11   -1    0    0    0    0  0.00000000000E+00  0.00000000000E+00  0.45593999997E+02  0.45594000000E+02  0.51100000000E-03 0. -1.
         11   -1    0    0    0    0 -0.00000000000E+00 -0.00000000000E+00 -0.45593999997E+02  0.45594000000E+02  0.51100000000E-03 0.  1.
    9900012    2    1    2    0    0 -0.78889497433E+01 -0.13770629549E+01 -0.16927708964E+02  0.72461570517E+02  0.70000000290E+02 0.  0.
         12    1    1    2    0    0  0.78889497433E+01  0.13770629549E+01  0.16927708964E+02  0.18726429483E+02  0.00000000000E+00 0. -1.
         11    1    3    3    0    0 -0.17512555612E+01 -0.16064005256E+02  0.10715514509E+02  0.19389208657E+02  0.51100000000E-03 0. -1.
        -11    1    3    3    0    0 -0.17762668025E+02 -0.79713842025E+01 -0.15357308191E+02  0.24797222760E+02  0.51100000000E-03 0.  1.
         12    1    3    3    0    0  0.11624973843E+02  0.22658326503E+02 -0.12285915282E+02  0.28275139100E+02  0.00000000000E+00 0. -1.
</event>
<event>
 7    1  0.3196678E-013  0.7246155E+02  0.7816164E-02  0.1226708E+00
        -11   -1    0    0    0    0  0.00000000000E+00  0.00000000000E+00  0.45593999997E+02  0.45594000000E+02  0.51100000000E-03 0.  1.
         11   -1    0    0    0    0 -0.00000000000E+00 -0.00000000000E+00 -0.45593999997E+02  0.45594000000E+02  0.51100000000E-03 0. -1.
    9900012    2    1    2    0    0 -0.15862585987E+02 -0.39399779301E+01 -0.91397320659E+01  0.72461554461E+02  0.69999979374E+02 0.  0.
         12    1    1    2    0    0  0.15862585987E+02  0.39399779301E+01  0.91397320659E+01  0.18726445539E+02  0.00000000000E+00 0. -1.
         11    1    3    3    0    0 -0.62493910989E+01  0.17479145603E+02  0.75237389204E+01  0.20029529892E+02  0.51100000000E-03 0. -1.
        -11    1    3    3    0    0  0.13824497034E+02  0.37273442544E+01 -0.20490531140E+00  0.14319629880E+02  0.51100000000E-03 0.  1.
        -12    1    3    3    0    0 -0.23437691923E+02 -0.25146467787E+02 -0.16458565675E+02  0.38112394689E+02  0.00000000000E+00 0.  1.
</event>
<event>
 7    1  0.3196678E-013  0.7246178E+02  0.7816164E-02  0.1226707E+00
        -11   -1    0    0    0    0  0.00000000000E+00  0.00000000000E+00  0.45593999997E+02  0.45594000000E+02  0.51100000000E-03 0. -1.
         11   -1    0    0    0    0 -0.00000000000E+00 -0.00000000000E+00 -0.45593999997E+02  0.45594000000E+02  0.51100000000E-03 0.  1.
    9900012    2    1    2    0    0  0.44927961561E+01  0.18164866273E+02 -0.72375753572E+00  0.72461777504E+02  0.70000269928E+02 0.  0.
         12    1    1    2    0    0 -0.44927961561E+01 -0.18164866273E+02  0.72375753572E+00  0.18726222496E+02  0.00000000000E+00 0. -1.
         11    1    3    3    0    0  0.83226991208E+01  0.20980310371E+02 -0.67516650825E+01  0.23558983967E+02  0.51100000000E-03 0. -1.
        -11    1    3    3    0    0  0.13394136807E+02  0.13131779881E+02 -0.92311559573E+01  0.20905998761E+02  0.51100000000E-03 0.  1.
         12    1    3    3    0    0 -0.17224039772E+02 -0.15947223978E+02  0.15259063504E+02  0.27996794775E+02  0.00000000000E+00 0. -1.
</event>
<event>
 7    1  0.3196678E-013  0.7246140E+02  0.7816164E-02  0.1226708E+00
        -11   -1    0    0    0    0  0.00000000000E+00  0.00000000000E+00  0.45593999997E+02  0.45594000000E+02  0.51100000000E-03 0.  1.
         11   -1    0    0    0    0 -0.00000000000E+00 -0.00000000000E+00 -0.45593999997E+02  0.45594000000E+02  0.51100000000E-03 0. -1.
    9900012    2    1    2    0    0 -0.13333173930E+02 -0.81368834290E+01  0.10329716903E+02  0.72461402597E+02  0.69999781543E+02 0.  0.
         12    1    1    2    0    0  0.13333173930E+02  0.81368834290E+01 -0.10329716903E+02  0.18726597403E+02  0.00000000000E+00 0. -1.
         11    1    3    3    0    0 -0.15632059162E+01 -0.95074420254E+01 -0.57289382161E+00  0.96521124214E+01  0.51100000000E-03 0. -1.
        -11    1    3    3    0    0  0.10477836675E+02 -0.17286852285E+02  0.23638767742E+02  0.31103242017E+02  0.51100000000E-03 0.  1.
         12    1    3    3    0    0 -0.22247804689E+02  0.18657410882E+02 -0.12736157017E+02  0.31706048159E+02  0.00000000000E+00 0. -1.
</event>
<event>
 7    1  0.5752594E-013  0.7246164E+02  0.7816164E-02  0.1226708E+00
        -11   -1    0    0    0    0  0.00000000000E+00  0.00000000000E+00  0.45593999997E+02  0.45594000000E+02  0.51100000000E-03 0.  1.
         11   -1    0    0    0    0 -0.00000000000E+00 -0.00000000000E+00 -0.45593999997E+02  0.45594000000E+02  0.51100000000E-03 0. -1.
    9900012    2    1    2    0    0 -0.14416333818E+02 -0.10271308857E+01 -0.11907604513E+02  0.72461635595E+02  0.70000085066E+02 0.  0.
         12    1    1    2    0    0  0.14416333818E+02  0.10271308857E+01  0.11907604513E+02  0.18726364405E+02  0.00000000000E+00 0. -1.
         11    1    3    3    0    0  0.37734721454E+01 -0.89707682819E+01 -0.88944653617E+01  0.13184281927E+02  0.51100000000E-03 0. -1.
        -11    1    3    3    0    0 -0.24266645075E+02 -0.85409195507E+01 -0.21680123648E+02  0.33642906111E+02  0.51100000000E-03 0.  1.
         12    1    3    3    0    0  0.60768391118E+01  0.16484556947E+02  0.18666984497E+02  0.25634447557E+02  0.00000000000E+00 0. -1.
</event>
<event>
 7    1  0.3196678E-013  0.7246159E+02  0.7816164E-02  0.1226708E+00
        -11   -1    0    0    0    0  0.00000000000E+00  0.00000000000E+00  0.45593999997E+02  0.45594000000E+02  0.51100000000E-03 0.  1.
         11   -1    0    0    0    0 -0.00000000000E+00 -0.00000000000E+00 -0.45593999997E+02  0.45594000000E+02  0.51100000000E-03 0. -1.
    9900012    2    1    2    0    0 -0.87139246089E+01  0.15762818854E+02 -0.51263599118E+01  0.72461588004E+02  0.70000023070E+02 0.  0.
         12    1    1    2    0    0  0.87139246089E+01 -0.15762818854E+02  0.51263599118E+01  0.18726411996E+02  0.00000000000E+00 0. -1.
         11    1    3    3    0    0 -0.23384839198E+02  0.15868110000E+02 -0.27224301343E+01  0.28391182529E+02  0.51100000000E-03 0. -1.
        -11    1    3    3    0    0 -0.55853659703E+01  0.15454824637E+02  0.55058203159E+01  0.17330954250E+02  0.51100000000E-03 0.  1.
        -12    1    3    3    0    0  0.20256280559E+02 -0.15560115784E+02 -0.79097500934E+01  0.26739451225E+02  0.00000000000E+00 0.  1.
</event>
<event>
 7    1  0.3196678E-013  0.7246156E+02  0.7816164E-02  0.1226708E+00
        -11   -1    0    0    0    0  0.00000000000E+00  0.00000000000E+00  0.45593999997E+02  0.45594000000E+02  0.51100000000E-03 0. -1.
         11   -1    0    0    0    0 -0.00000000000E+00 -0.00000000000E+00 -0.45593999997E+02  0.45594000000E+02  0.51100000000E-03 0.  1.
    9900012    2    1    2    0    0  0.99506162936E+01 -0.14774367005E+02 -0.57778003540E+01  0.72461557146E+02  0.69999982872E+02 0.  0.
         12    1    1    2    0    0 -0.99506162936E+01  0.14774367005E+02  0.57778003540E+01  0.18726442854E+02  0.00000000000E+00 0. -1.
         11    1    3    3    0    0 -0.82001971177E+01 -0.65925137990E+01  0.17764897009E+02  0.20646937714E+02  0.51100000000E-03 0. -1.
        -11    1    3    3    0    0  0.23371214607E+02 -0.89609694929E+01  0.25810718111E+01  0.25162960446E+02  0.51100000000E-03 0.  1.
        -12    1    3    3    0    0 -0.52204011959E+01  0.77911628678E+00 -0.26123769174E+02  0.26651658986E+02  0.00000000000E+00 0.  1.
</event>
<event>
 7    1  0.3196678E-013  0.7246163E+02  0.7816164E-02  0.1226708E+00
        -11   -1    0    0    0    0  0.00000000000E+00  0.00000000000E+00  0.45593999997E+02  0.45594000000E+02  0.51100000000E-03 0. -1.
         11   -1    0    0    0    0 -0.00000000000E+00 -0.00000000000E+00 -0.45593999997E+02  0.45594000000E+02  0.51100000000E-03 0.  1.
    9900012    2    1    2    0    0  0.12015939830E+02  0.11989743685E+02 -0.79082291102E+01  0.72461632192E+02  0.70000080633E+02 0.  0.
         12    1    1    2    0    0 -0.12015939830E+02 -0.11989743685E+02  0.79082291102E+01  0.18726367808E+02  0.00000000000E+00 0. -1.
         11    1    3    3    0    0  0.80884488509E+01  0.18602155609E+01  0.17183466239E+02  0.19082843578E+02  0.51100000000E-03 0. -1.
        -11    1    3    3    0    0 -0.82418547288E+01 -0.15818427539E+02 -0.55113051178E+01  0.18668832410E+02  0.51100000000E-03 0.  1.
         12    1    3    3    0    0  0.12169345708E+02  0.25947955664E+02 -0.19580390232E+02  0.34709956204E+02  0.00000000000E+00 0. -1.
</event>
<event>
 7    1  0.3196678E-013  0.7246178E+02  0.7816164E-02  0.1226707E+00
        -11   -1    0    0    0    0  0.00000000000E+00  0.00000000000E+00  0.45593999997E+02  0.45594000000E+02  0.51100000000E-03 0. -1.
         11   -1    0    0    0    0 -0.00000000000E+00 -0.00000000000E+00 -0.45593999997E+02  0.45594000000E+02  0.51100000000E-03 0.  1.
    9900012    2    1    2    0    0 -0.12407746751E+02  0.10854781520E+02 -0.88821736822E+01  0.72461775858E+02  0.70000267785E+02 0.  0.
         12    1    1    2    0    0  0.12407746751E+02 -0.10854781520E+02  0.88821736822E+01  0.18726224142E+02  0.00000000000E+00 0. -1.
         11    1    3    3    0    0  0.42911714355E+01  0.31318553736E+02 -0.88966431990E+01  0.32839248178E+02  0.51100000000E-03 0. -1.
        -11    1    3    3    0    0  0.21840421883E+01 -0.14262903513E+02 -0.98137590647E+01  0.17450224186E+02  0.51100000000E-03 0.  1.
         12    1    3    3    0    0 -0.18882960375E+02 -0.62008687027E+01  0.98282285815E+01  0.22172303494E+02  0.00000000000E+00 0. -1.
</event>
<event>
 7    1  0.3196678E-013  0.7246158E+02  0.7816164E-02  0.1226708E+00
        -11   -1    0    0    0    0  0.00000000000E+00  0.00000000000E+00  0.45593999997E+02  0.45594000000E+02  0.51100000000E-03 0.  1.
         11   -1    0    0    0    0 -0.00000000000E+00 -0.00000000000E+00 -0.45593999997E+02  0.45594000000E+02  0.51100000000E-03 0. -1.
    9900012    2    1    2    0    0  0.55719614376E+01  0.95617911843E+01  0.15106428260E+02  0.72461580703E+02  0.70000013559E+02 0.  0.
         12    1    1    2    0    0 -0.55719614376E+01 -0.95617911843E+01 -0.15106428260E+02  0.18726419297E+02  0.00000000000E+00 0. -1.
         11    1    3    3    0    0 -0.24489173845E+01  0.70791757506E+00 -0.35579348584E+01  0.43768989441E+01  0.51100000000E-03 0. -1.
        -11    1    3    3    0    0  0.30404740076E+01 -0.14515849494E+02 -0.18617593904E+02  0.23802713538E+02  0.51100000000E-03 0.  1.
         12    1    3    3    0    0  0.49804048145E+01  0.23369723104E+02  0.37281957023E+02  0.44281968221E+02  0.00000000000E+00 0. -1.
</event>
<event>
 7    1  0.3196678E-013  0.7246153E+02  0.7816164E-02  0.1226708E+00
        -11   -1    0    0    0    0  0.00000000000E+00  0.00000000000E+00  0.45593999997E+02  0.45594000000E+02  0.51100000000E-03 0.  1.
         11   -1    0    0    0    0 -0.00000000000E+00 -0.00000000000E+00 -0.45593999997E+02  0.45594000000E+02  0.51100000000E-03 0. -1.
    9900012    2    1    2    0    0  0.62512495783E+00 -0.17636405729E+02 -0.62647537875E+01  0.72461528675E+02  0.69999945783E+02 0.  0.
         12    1    1    2    0    0 -0.62512495783E+00  0.17636405729E+02  0.62647537875E+01  0.18726471325E+02  0.00000000000E+00 0. -1.
         11    1    3    3    0    0 -0.40895299814E+01  0.17331788076E+01 -0.28347522331E+02  0.28693382282E+02  0.51100000000E-03 0. -1.
        -11    1    3    3    0    0  0.12575157992E+02 -0.34179526684E+01 -0.26576539067E+01  0.13299628698E+02  0.51100000000E-03 0.  1.
        -12    1    3    3    0    0 -0.78605030528E+01 -0.15951631868E+02  0.24740422450E+02  0.30468517695E+02  0.00000000000E+00 0.  1.
</event>
<event>
 7    1  0.3196678E-013  0.7246164E+02  0.7816164E-02  0.1226708E+00
        -11   -1    0    0    0    0  0.00000000000E+00  0.00000000000E+00  0.45593999997E+02  0.45594000000E+02  0.51100000000E-03 0. -1.
         11   -1    0    0    0    0 -0.00000000000E+00 -0.00000000000E+00 -0.45593999997E+02  0.45594000000E+02  0.51100000000E-03 0.  1.
    9900012    2    1    2    0    0  0.86162785981E+01  0.64761821958E+01 -0.15313243687E+02  0.72461638235E+02  0.70000088506E+02 0.  0.
         12    1    1    2    0    0 -0.86162785981E+01 -0.64761821958E+01  0.15313243687E+02  0.18726361765E+02  0.00000000000E+00 0. -1.
         11    1    3    3    0    0 -0.19638355558E+02  0.16134571268E+01 -0.31165226753E+00  0.19706988109E+02  0.51100000000E-03 0. -1.
        -11    1    3    3    0    0  0.57964744175E+01  0.40008243541E+01  0.14232553512E+02  0.15879902106E+02  0.51100000000E-03 0.  1.
        -12    1    3    3    0    0  0.22458159739E+02  0.86190071487E+00 -0.29234144931E+02  0.36874748020E+02  0.00000000000E+00 0.  1.
</event>
<event>
 7    1  0.3196678E-013  0.7246155E+02  0.7816164E-02  0.1226708E+00
        -11   -1    0    0    0    0  0.00000000000E+00  0.00000000000E+00  0.45593999997E+02  0.45594000000E+02  0.51100000000E-03 0. -1.
         11   -1    0    0    0    0 -0.00000000000E+00 -0.00000000000E+00 -0.45593999997E+02  0.45594000000E+02  0.51100000000E-03 0.  1.
    9900012    2    1    2    0    0  0.84586785670E+01  0.80946991699E+01 -0.14615286050E+02  0.72461548546E+02  0.69999971669E+02 0.  0.
         12    1    1    2    0    0 -0.84586785670E+01 -0.80946991699E+01  0.14615286050E+02  0.18726451454E+02  0.00000000000E+00 0. -1.
         11    1    3    3    0    0  0.89273903317E+01 -0.14786798408E+02  0.14118412358E+02  0.22308681563E+02  0.51100000000E-03 0. -1.
        -11    1    3    3    0    0 -0.51990516077E+01  0.24235109730E+02 -0.42112650224E+01  0.25141707074E+02  0.51100000000E-03 0.  1.
        -12    1    3    3    0    0  0.47303398429E+01 -0.13536121523E+01 -0.24522433385E+02  0.25011159909E+02  0.00000000000E+00 0.  1.
</event>
<event>
 7    1  0.3196678E-013  0.7246148E+02  0.7816164E-02  0.1226708E+00
        -11   -1    0    0    0    0  0.00000000000E+00  0.00000000000E+00  0.45593999997E+02  0.45594000000E+02  0.51100000000E-03 0.  1.
         11   -1    0    0    0    0 -0.00000000000E+00 -0.00000000000E+00 -0.45593999997E+02  0.45594000000E+02  0.51100000000E-03 0. -1.
    9900012    2    1    2    0    0  0.97312092389E+01  0.68428520914E+01 -0.14462419874E+02  0.72461477455E+02  0.69999879060E+02 0.  0.
         12    1    1    2    0    0 -0.97312092389E+01 -0.68428520914E+01  0.14462419874E+02  0.18726522545E+02  0.00000000000E+00 0. -1.
         11    1    3    3    0    0 -0.10852354028E+01 -0.42536725543E+01 -0.14397189655E+02  0.15051595806E+02  0.51100000000E-03 0. -1.
        -11    1    3    3    0    0  0.24218898343E+02 -0.13540848061E+02  0.67296555630E+01  0.28551670134E+02  0.51100000000E-03 0.  1.
        -12    1    3    3    0    0 -0.13402453701E+02  0.24637372707E+02 -0.67948857825E+01  0.28858211516E+02  0.00000000000E+00 0.  1.
</event>
<event>
 7    1  0.3196678E-013  0.7246157E+02  0.7816164E-02  0.1226708E+00
        -11   -1    0    0    0    0  0.00000000000E+00  0.00000000000E+00  0.45593999997E+02  0.45594000000E+02  0.51100000000E-03 0.  1.
         11   -1    0    0    0    0 -0.00000000000E+00 -0.00000000000E+00 -0.45593999997E+02  0.45594000000E+02  0.51100000000E-03 0. -1.
    9900012    2    1    2    0    0 -0.80882428635E+01  0.16854589484E+02  0.10873863227E+01  0.72461567656E+02  0.69999996563E+02 0.  0.
         12    1    1    2    0    0  0.80882428635E+01 -0.16854589484E+02 -0.10873863227E+01  0.18726432344E+02  0.00000000000E+00 0. -1.
         11    1    3    3    0    0 -0.16894557247E+02  0.12083665430E+02 -0.19944823585E+02  0.28796475876E+02  0.51100000000E-03 0. -1.
        -11    1    3    3    0    0 -0.10052324445E+02 -0.92075408443E+01  0.13048073016E+02  0.18870088628E+02  0.51100000000E-03 0.  1.
        -12    1    3    3    0    0  0.18858638828E+02  0.13978464899E+02  0.79841368922E+01  0.24795003152E+02  0.00000000000E+00 0.  1.
</event>
<event>
 7    1  0.3196678E-013  0.7246159E+02  0.7816164E-02  0.1226708E+00
        -11   -1    0    0    0    0  0.00000000000E+00  0.00000000000E+00  0.45593999997E+02  0.45594000000E+02  0.51100000000E-03 0.  1.
         11   -1    0    0    0    0 -0.00000000000E+00 -0.00000000000E+00 -0.45593999997E+02  0.45594000000E+02  0.51100000000E-03 0. -1.
    9900012    2    1    2    0    0  0.64659289797E+01 -0.14414695771E+01  0.17515491380E+02  0.72461587893E+02  0.70000022926E+02 0.  0.
         12    1    1    2    0    0 -0.64659289797E+01  0.14414695771E+01 -0.17515491380E+02  0.18726412107E+02  0.00000000000E+00 0. -1.
         11    1    3    3    0    0  0.50457829284E+01  0.29322253549E+02  0.12908691355E+02  0.32432835079E+02  0.51100000000E-03 0. -1.
        -11    1    3    3    0    0  0.10250003655E+02 -0.10885982902E+02 -0.56461358120E+01  0.15982679642E+02  0.51100000000E-03 0.  1.
        -12    1    3    3    0    0 -0.88298576039E+01 -0.19877740223E+02  0.10252935837E+02  0.24046073172E+02  0.00000000000E+00 0.  1.
</event>
<event>
 7    1  0.3196678E-013  0.7246158E+02  0.7816164E-02  0.1226708E+00
        -11   -1    0    0    0    0  0.00000000000E+00  0.00000000000E+00  0.45593999997E+02  0.45594000000E+02  0.51100000000E-03 0.  1.
         11   -1    0    0    0    0 -0.00000000000E+00 -0.00000000000E+00 -0.45593999997E+02  0.45594000000E+02  0.51100000000E-03 0. -1.
    9900012    2    1    2    0    0  0.18739911105E+01  0.89734751966E+01  0.16329231626E+02  0.72461577350E+02  0.70000009191E+02 0.  0.
         12    1    1    2    0    0 -0.18739911105E+01 -0.89734751966E+01 -0.16329231626E+02  0.18726422650E+02  0.00000000000E+00 0. -1.
         11    1    3    3    0    0  0.12109934215E+01 -0.26299717702E+01  0.13724754613E+02  0.14026836637E+02  0.51100000000E-03 0. -1.
        -11    1    3    3    0    0 -0.18550540713E+02 -0.12072183770E+02  0.13651521366E+02  0.26004311520E+02  0.51100000000E-03 0.  1.
         12    1    3    3    0    0  0.19213538403E+02  0.23675630737E+02 -0.11047044353E+02  0.32430429194E+02  0.00000000000E+00 0. -1.
</event>
<event>
 7    1  0.3196678E-013  0.7246154E+02  0.7816164E-02  0.1226708E+00
        -11   -1    0    0    0    0  0.00000000000E+00  0.00000000000E+00  0.45593999997E+02  0.45594000000E+02  0.51100000000E-03 0. -1.
         11   -1    0    0    0    0 -0.00000000000E+00 -0.00000000000E+00 -0.45593999997E+02  0.45594000000E+02  0.51100000000E-03 0.  1.
    9900012    2    1    2    0    0  0.13322738538E+02  0.11250147617E+02 -0.68278099681E+01  0.72461543514E+02  0.69999965114E+02 0.  0.
         12    1    1    2    0    0 -0.13322738538E+02 -0.11250147617E+02  0.68278099681E+01  0.18726456486E+02  0.00000000000E+00 0. -1.
         11    1    3    3    0    0 -0.98916149325E+01 -0.19936912192E+01  0.11982435728E+02  0.15665172099E+02  0.51100000000E-03 0. -1.
        -11    1    3    3    0    0 -0.26364438729E+01 -0.95550465338E+01  0.83126009001E+01  0.12936347419E+02  0.51100000000E-03 0.  1.
        -12    1    3    3    0    0  0.25850797344E+02  0.22798885370E+02 -0.27122846597E+02  0.43860023996E+02  0.00000000000E+00 0.  1.
</event>
<event>
 7    1  0.3196678E-013  0.7246176E+02  0.7816164E-02  0.1226708E+00
        -11   -1    0    0    0    0  0.00000000000E+00  0.00000000000E+00  0.45593999997E+02  0.45594000000E+02  0.51100000000E-03 0. -1.
         11   -1    0    0    0    0 -0.00000000000E+00 -0.00000000000E+00 -0.45593999997E+02  0.45594000000E+02  0.51100000000E-03 0.  1.
    9900012    2    1    2    0    0  0.16623626544E+02 -0.29545186713E+01  0.80992655633E+01  0.72461755243E+02  0.70000240929E+02 0.  0.
         12    1    1    2    0    0 -0.16623626544E+02  0.29545186713E+01 -0.80992655633E+01  0.18726244757E+02  0.00000000000E+00 0. -1.
         11    1    3    3    0    0  0.59124820866E+01 -0.10469780034E+02 -0.56097729848E+01  0.13268130674E+02  0.51100000000E-03 0. -1.
        -11    1    3    3    0    0  0.14723568998E+02 -0.22688534764E+02  0.50135647764E+01  0.27507979312E+02  0.51100000000E-03 0.  1.
         12    1    3    3    0    0 -0.40124245413E+01  0.30203796127E+02  0.86954737718E+01  0.31685645256E+02  0.00000000000E+00 0. -1.
</event>
<event>
 7    1  0.3196678E-013  0.7246156E+02  0.7816164E-02  0.1226708E+00
        -11   -1    0    0    0    0  0.00000000000E+00  0.00000000000E+00  0.45593999997E+02  0.45594000000E+02  0.51100000000E-03 0.  1.
         11   -1    0    0    0    0 -0.00000000000E+00 -0.00000000000E+00 -0.45593999997E+02  0.45594000000E+02  0.51100000000E-03 0. -1.
    9900012    2    1    2    0    0 -0.10971756803E+01  0.18599121316E+02 -0.18837619726E+01  0.72461557001E+02  0.69999982683E+02 0.  0.
         12    1    1    2    0    0  0.10971756803E+01 -0.18599121316E+02  0.18837619726E+01  0.18726442999E+02  0.00000000000E+00 0. -1.
         11    1    3    3    0    0  0.23867384793E+01  0.18814628747E+01  0.14297524649E+01  0.33586627531E+01  0.51100000000E-03 0. -1.
        -11    1    3    3    0    0  0.20545753083E+02  0.32716075873E+02  0.52588530873E+01  0.38988782057E+02  0.51100000000E-03 0.  1.
         12    1    3    3    0    0 -0.24029667242E+02 -0.15998417431E+02 -0.85723675249E+01  0.30114112191E+02  0.00000000000E+00 0. -1.
</event>
<event>
 7    1  0.3196678E-013  0.7246152E+02  0.7816164E-02  0.1226708E+00
        -11   -1    0    0    0    0  0.00000000000E+00  0.00000000000E+00  0.45593999997E+02  0.45594000000E+02  0.51100000000E-03 0. -1.
         11   -1    0    0    0    0 -0.00000000000E+00 -0.00000000000E+00 -0.45593999997E+02  0.45594000000E+02  0.51100000000E-03 0.  1.
    9900012    2    1    2    0    0 -0.15451141584E+02 -0.10172391036E+02  0.29095774517E+01  0.72461522579E+02  0.69999937842E+02 0.  0.
         12    1    1    2    0    0  0.15451141584E+02  0.10172391036E+02 -0.29095774517E+01  0.18726477421E+02  0.00000000000E+00 0. -1.
         11    1    3    3    0    0 -0.30161537933E+02  0.45919950132E+01 -0.17707936402E+02  0.35275711199E+02  0.51100000000E-03 0. -1.
        -11    1    3    3    0    0 -0.60025606904E+01 -0.46997078928E+01  0.30066065230E+01  0.81949784725E+01  0.51100000000E-03 0.  1.
        -12    1    3    3    0    0  0.20712957039E+02 -0.10064678156E+02  0.17610907331E+02  0.28990832908E+02  0.00000000000E+00 0.  1.
</event>
<event>
 7    1  0.3196678E-013  0.7246157E+02  0.7816164E-02  0.1226708E+00
        -11   -1    0    0    0    0  0.00000000000E+00  0.00000000000E+00  0.45593999997E+02  0.45594000000E+02  0.51100000000E-03 0.  1.
         11   -1    0    0    0    0 -0.00000000000E+00 -0.00000000000E+00 -0.45593999997E+02  0.45594000000E+02  0.51100000000E-03 0. -1.
    9900012    2    1    2    0    0  0.12988641383E+02 -0.32656688346E+00  0.13485829810E+02  0.72461573310E+02  0.70000003929E+02 0.  0.
         12    1    1    2    0    0 -0.12988641383E+02  0.32656688346E+00 -0.13485829810E+02  0.18726426690E+02  0.00000000000E+00 0. -1.
         11    1    3    3    0    0 -0.42820704321E+01  0.24866895526E+02 -0.62575878829E+01  0.25997231135E+02  0.51100000000E-03 0. -1.
        -11    1    3    3    0    0  0.83868437592E+01  0.28705308490E+01 -0.28994479640E+01  0.93266228804E+01  0.51100000000E-03 0.  1.
        -12    1    3    3    0    0  0.88838680558E+01 -0.28063993259E+02  0.22642865657E+02  0.37137719295E+02  0.00000000000E+00 0.  1.
</event>
<event>
 7    1  0.3196678E-013  0.7246162E+02  0.7816164E-02  0.1226708E+00
        -11   -1    0    0    0    0  0.00000000000E+00  0.00000000000E+00  0.45593999997E+02  0.45594000000E+02  0.51100000000E-03 0.  1.
         11   -1    0    0    0    0 -0.00000000000E+00 -0.00000000000E+00 -0.45593999997E+02  0.45594000000E+02  0.51100000000E-03 0. -1.
    9900012    2    1    2    0    0  0.89851108248E+01 -0.23954662911E+01  0.16254445322E+02  0.72461615725E+02  0.70000059182E+02 0.  0.
         12    1    1    2    0    0 -0.89851108248E+01  0.23954662911E+01 -0.16254445322E+02  0.18726384275E+02  0.00000000000E+00 0. -1.
         11    1    3    3    0    0  0.12649942455E+02 -0.28566642676E+01  0.10564006051E+02  0.16726619472E+02  0.51100000000E-03 0. -1.
        -11    1    3    3    0    0 -0.14441514822E+02 -0.59843100289E+01  0.26885256917E+02  0.31099619879E+02  0.51100000000E-03 0.  1.
         12    1    3    3    0    0  0.10776683192E+02  0.64455080055E+01 -0.21194817646E+02  0.24635376374E+02  0.00000000000E+00 0. -1.
</event>
<event>
 7    1  0.3196678E-013  0.7246161E+02  0.7816164E-02  0.1226708E+00
        -11   -1    0    0    0    0  0.00000000000E+00  0.00000000000E+00  0.45593999997E+02  0.45594000000E+02  0.51100000000E-03 0.  1.
         11   -1    0    0    0    0 -0.00000000000E+00 -0.00000000000E+00 -0.45593999997E+02  0.45594000000E+02  0.51100000000E-03 0. -1.
    9900012    2    1    2    0    0  0.12519203445E+02 -0.10153133110E+02  0.95321019042E+01  0.72461613975E+02  0.70000056902E+02 0.  0.
         12    1    1    2    0    0 -0.12519203445E+02  0.10153133110E+02 -0.95321019042E+01  0.18726386025E+02  0.00000000000E+00 0. -1.
         11    1    3    3    0    0  0.61506253979E+01  0.42783159715E+01 -0.17165623288E+01  0.76864014224E+01  0.51100000000E-03 0. -1.
        -11    1    3    3    0    0  0.17737479623E+02 -0.34620885092E+02  0.14214343219E+02  0.41415835393E+02  0.51100000000E-03 0.  1.
         12    1    3    3    0    0 -0.11368901576E+02  0.20189436010E+02 -0.29656789856E+01  0.23359377160E+02  0.00000000000E+00 0. -1.
</event>
<event>
 7    1  0.3196678E-013  0.7246178E+02  0.7816164E-02  0.1226707E+00
        -11   -1    0    0    0    0  0.00000000000E+00  0.00000000000E+00  0.45593999997E+02  0.45594000000E+02  0.51100000000E-03 0.  1.
         11   -1    0    0    0    0 -0.00000000000E+00 -0.00000000000E+00 -0.45593999997E+02  0.45594000000E+02  0.51100000000E-03 0. -1.
    9900012    2    1    2    0    0 -0.16066403358E+02  0.43388921022E+01 -0.85857962737E+01  0.72461783105E+02  0.70000277225E+02 0.  0.
         12    1    1    2    0    0  0.16066403358E+02 -0.43388921022E+01  0.85857962737E+01  0.18726216895E+02  0.00000000000E+00 0. -1.
         11    1    3    3    0    0 -0.23394481232E+02 -0.21730541912E+02 -0.11097451523E+02  0.33803426372E+02  0.51100000000E-03 0. -1.
        -11    1    3    3    0    0  0.76531914256E+01 -0.18078237033E+01 -0.55639793052E+01  0.96331423487E+01  0.51100000000E-03 0.  1.
        -12    1    3    3    0    0 -0.32511355143E+00  0.27877257717E+02  0.80756345546E+01  0.29025214385E+02  0.00000000000E+00 0.  1.
</event>
<event>
 7    1  0.3196678E-013  0.7246156E+02  0.7816164E-02  0.1226708E+00
        -11   -1    0    0    0    0  0.00000000000E+00  0.00000000000E+00  0.45593999997E+02  0.45594000000E+02  0.51100000000E-03 0.  1.
         11   -1    0    0    0    0 -0.00000000000E+00 -0.00000000000E+00 -0.45593999997E+02  0.45594000000E+02  0.51100000000E-03 0. -1.
    9900012    2    1    2    0    0 -0.11373897812E+02  0.12511715486E+02  0.80480458010E+01  0.72461558345E+02  0.69999984433E+02 0.  0.
         12    1    1    2    0    0  0.11373897812E+02 -0.12511715486E+02 -0.80480458010E+01  0.18726441655E+02  0.00000000000E+00 0. -1.
         11    1    3    3    0    0 -0.12387710833E+02 -0.14278390793E+02 -0.11565245493E+02  0.22160386434E+02  0.51100000000E-03 0. -1.
        -11    1    3    3    0    0 -0.91931030369E+01  0.51354259232E+01 -0.83869636741E+01  0.13462054182E+02  0.51100000000E-03 0.  1.
        -12    1    3    3    0    0  0.10206916057E+02  0.21654680356E+02  0.28000254969E+02  0.36839117729E+02  0.00000000000E+00 0.  1.
</event>
<event>
 7    1  0.3196678E-013  0.7246157E+02  0.7816164E-02  0.1226708E+00
        -11   -1    0    0    0    0  0.00000000000E+00  0.00000000000E+00  0.45593999997E+02  0.45594000000E+02  0.51100000000E-03 0. -1.
         11   -1    0    0    0    0 -0.00000000000E+00 -0.00000000000E+00 -0.45593999997E+02  0.45594000000E+02  0.51100000000E-03 0.  1.
    9900012    2    1    2    0    0  0.53772347477E+01  0.13730638246E+00 -0.17937273181E+02  0.72461567458E+02  0.69999996306E+02 0.  0.
         12    1    1    2    0    0 -0.53772347477E+01 -0.13730638246E+00  0.17937273181E+02  0.18726432542E+02  0.00000000000E+00 0. -1.
         11    1    3    3    0    0 -0.42861420723E+01  0.46843393839E+01  0.11875531801E+01  0.64594374480E+01  0.51100000000E-03 0. -1.
        -11    1    3    3    0    0 -0.22691576628E+02 -0.71522173394E+01 -0.23268684637E+02  0.33279025642E+02  0.51100000000E-03 0.  1.
        -12    1    3    3    0    0  0.32354953448E+02  0.26051843380E+01  0.41438582756E+01  0.32723104368E+02  0.00000000000E+00 0.  1.
</event>
<event>
 7    1  0.3196678E-013  0.7246160E+02  0.7816164E-02  0.1226708E+00
        -11   -1    0    0    0    0  0.00000000000E+00  0.00000000000E+00  0.45593999997E+02  0.45594000000E+02  0.51100000000E-03 0.  1.
         11   -1    0    0    0    0 -0.00000000000E+00 -0.00000000000E+00 -0.45593999997E+02  0.45594000000E+02  0.51100000000E-03 0. -1.
    9900012    2    1    2    0    0 -0.96840367093E+00 -0.56215845447E+01  0.17836421210E+02  0.72461603122E+02  0.70000042764E+02 0.  0.
         12    1    1    2    0    0  0.96840367093E+00  0.56215845447E+01 -0.17836421210E+02  0.18726396878E+02  0.00000000000E+00 0. -1.
         11    1    3    3    0    0 -0.10187303360E+02  0.10281226949E+02  0.52378323714E+01  0.15392194956E+02  0.51100000000E-03 0. -1.
        -11    1    3    3    0    0  0.29713734762E+01  0.57879107494E+01  0.28644977702E+02  0.29374542021E+02  0.51100000000E-03 0.  1.
         12    1    3    3    0    0  0.62475262132E+01 -0.21690722243E+02 -0.16046388863E+02  0.27694866145E+02  0.00000000000E+00 0. -1.
</event>
<event>
 7    1  0.3196678E-013  0.7246152E+02  0.7816164E-02  0.1226708E+00
        -11   -1    0    0    0    0  0.00000000000E+00  0.00000000000E+00  0.45593999997E+02  0.45594000000E+02  0.51100000000E-03 0.  1.
         11   -1    0    0    0    0 -0.00000000000E+00 -0.00000000000E+00 -0.45593999997E+02  0.45594000000E+02  0.51100000000E-03 0. -1.
    9900012    2    1    2    0    0  0.50122473682E+01  0.80800617113E+01 -0.16132919987E+02  0.72461517996E+02  0.69999931871E+02 0.  0.
         12    1    1    2    0    0 -0.50122473682E+01 -0.80800617113E+01  0.16132919987E+02  0.18726482004E+02  0.00000000000E+00 0. -1.
         11    1    3    3    0    0 -0.52866055594E+01  0.19768680272E+01 -0.16767472731E+02  0.17691928883E+02  0.51100000000E-03 0. -1.
        -11    1    3    3    0    0 -0.46165531575E+01  0.26203180225E+02  0.94468183341E+01  0.28234050256E+02  0.51100000000E-03 0.  1.
         12    1    3    3    0    0  0.14915406085E+02 -0.20099986541E+02 -0.88122655903E+01  0.26535538857E+02  0.00000000000E+00 0. -1.
</event>
<event>
 7    1  0.3196678E-013  0.7246158E+02  0.7816164E-02  0.1226708E+00
        -11   -1    0    0    0    0  0.00000000000E+00  0.00000000000E+00  0.45593999997E+02  0.45594000000E+02  0.51100000000E-03 0.  1.
         11   -1    0    0    0    0 -0.00000000000E+00 -0.00000000000E+00 -0.45593999997E+02  0.45594000000E+02  0.51100000000E-03 0. -1.
    9900012    2    1    2    0    0  0.42540284443E+01 -0.15237974130E+02  0.10019287768E+02  0.72461581737E+02  0.70000014906E+02 0.  0.
         12    1    1    2    0    0 -0.42540284443E+01  0.15237974130E+02 -0.10019287768E+02  0.18726418263E+02  0.00000000000E+00 0. -1.
         11    1    3    3    0    0 -0.22956885110E+02  0.74775336678E+01 -0.88462862545E+01  0.25713592991E+02  0.51100000000E-03 0. -1.
        -11    1    3    3    0    0  0.36099071947E+01  0.37769479983E+01  0.81570740400E+01  0.96868273077E+01  0.51100000000E-03 0.  1.
        -12    1    3    3    0    0  0.23601006360E+02 -0.26492455796E+02  0.10708499982E+02  0.37061161439E+02  0.00000000000E+00 0.  1.
</event>
<event>
 7    1  0.3196678E-013  0.7246123E+02  0.7816164E-02  0.1226709E+00
        -11   -1    0    0    0    0  0.00000000000E+00  0.00000000000E+00  0.45593999997E+02  0.45594000000E+02  0.51100000000E-03 0.  1.
         11   -1    0    0    0    0 -0.00000000000E+00 -0.00000000000E+00 -0.45593999997E+02  0.45594000000E+02  0.51100000000E-03 0. -1.
    9900012    2    1    2    0    0 -0.16228849754E+02 -0.53528695604E+01 -0.76591964759E+01  0.72461225918E+02  0.69999551384E+02 0.  0.
         12    1    1    2    0    0  0.16228849754E+02  0.53528695604E+01  0.76591964759E+01  0.18726774082E+02  0.00000000000E+00 0. -1.
         11    1    3    3    0    0  0.55013916429E+01 -0.14731075786E+02 -0.10410717845E+01  0.15759242829E+02  0.51100000000E-03 0. -1.
        -11    1    3    3    0    0  0.11797904928E+02  0.66177955788E+01  0.12147091055E+02  0.18180693067E+02  0.51100000000E-03 0.  1.
         12    1    3    3    0    0 -0.33528146325E+02  0.27604106471E+01 -0.18765215746E+02  0.38521290022E+02  0.00000000000E+00 0. -1.
</event>
<event>
 7    1  0.3196678E-013  0.7246160E+02  0.7816164E-02  0.1226708E+00
        -11   -1    0    0    0    0  0.00000000000E+00  0.00000000000E+00  0.45593999997E+02  0.45594000000E+02  0.51100000000E-03 0. -1.
         11   -1    0    0    0    0 -0.00000000000E+00 -0.00000000000E+00 -0.45593999997E+02  0.45594000000E+02  0.51100000000E-03 0.  1.
    9900012    2    1    2    0    0 -0.37186589436E+01  0.10873445818E+02 -0.14785726439E+02  0.72461602732E+02  0.70000042256E+02 0.  0.
         12    1    1    2    0    0  0.37186589436E+01 -0.10873445818E+02  0.14785726439E+02  0.18726397268E+02  0.00000000000E+00 0. -1.
         11    1    3    3    0    0  0.13621725520E+02  0.73150508304E+01  0.11933045364E+02  0.19530974034E+02  0.51100000000E-03 0. -1.
        -11    1    3    3    0    0 -0.10846810457E+02 -0.16141213672E+02 -0.44010968390E+00  0.19452140568E+02  0.51100000000E-03 0.  1.
         12    1    3    3    0    0 -0.64935740069E+01  0.19699608660E+02 -0.26278662119E+02  0.33478488130E+02  0.00000000000E+00 0. -1.
</event>
<event>
 7    1  0.3196678E-013  0.7246157E+02  0.7816164E-02  0.1226708E+00
        -11   -1    0    0    0    0  0.00000000000E+00  0.00000000000E+00  0.45593999997E+02  0.45594000000E+02  0.51100000000E-03 0.  1.
         11   -1    0    0    0    0 -0.00000000000E+00 -0.00000000000E+00 -0.45593999997E+02  0.45594000000E+02  0.51100000000E-03 0. -1.
    9900012    2    1    2    0    0  0.16126840195E+02  0.33315631494E+01  0.89165461563E+01  0.72461572603E+02  0.70000003007E+02 0.  0.
         12    1    1    2    0    0 -0.16126840195E+02 -0.33315631494E+01 -0.89165461563E+01  0.18726427397E+02  0.00000000000E+00 0. -1.
         11    1    3    3    0    0 -0.17844308804E+00  0.33724725738E+02  0.44763351090E+01  0.34020972125E+02  0.51100000000E-03 0. -1.
        -11    1    3    3    0    0  0.23777519592E+01 -0.23919627208E+01 -0.47672409591E+01  0.58396726501E+01  0.51100000000E-03 0.  1.
        -12    1    3    3    0    0  0.13927531324E+02 -0.28001199868E+02  0.92074520065E+01  0.32600927828E+02  0.00000000000E+00 0.  1.
</event>
<event>
 7    1  0.3196678E-013  0.7246168E+02  0.7816164E-02  0.1226708E+00
        -11   -1    0    0    0    0  0.00000000000E+00  0.00000000000E+00  0.45593999997E+02  0.45594000000E+02  0.51100000000E-03 0.  1.
         11   -1    0    0    0    0 -0.00000000000E+00 -0.00000000000E+00 -0.45593999997E+02  0.45594000000E+02  0.51100000000E-03 0. -1.
    9900012    2    1    2    0    0 -0.12028123804E+02  0.10089313775E+02  0.10208085144E+02  0.72461681168E+02  0.70000144433E+02 0.  0.
         12    1    1    2    0    0  0.12028123804E+02 -0.10089313775E+02 -0.10208085144E+02  0.18726318832E+02  0.00000000000E+00 0. -1.
         11    1    3    3    0    0 -0.39885426050E+01  0.10499961886E+02  0.38445681405E+01  0.11871746972E+02  0.51100000000E-03 0. -1.
        -11    1    3    3    0    0 -0.17438144989E+02  0.12876172283E+02 -0.20074344600E+02  0.29544272282E+02  0.51100000000E-03 0.  1.
         12    1    3    3    0    0  0.93985637891E+01 -0.13286820395E+02  0.26437861603E+02  0.31045661913E+02  0.00000000000E+00 0. -1.
</event>
<event>
 7    1  0.3196678E-013  0.7246155E+02  0.7816164E-02  0.1226708E+00
        -11   -1    0    0    0    0  0.00000000000E+00  0.00000000000E+00  0.45593999997E+02  0.45594000000E+02  0.51100000000E-03 0.  1.
         11   -1    0    0    0    0 -0.00000000000E+00 -0.00000000000E+00 -0.45593999997E+02  0.45594000000E+02  0.51100000000E-03 0. -1.
    9900012    2    1    2    0    0 -0.18025729974E+02  0.26114684579E+01  0.43512374190E+01  0.72461548770E+02  0.69999971960E+02 0.  0.
         12    1    1    2    0    0  0.18025729974E+02 -0.26114684579E+01 -0.43512374190E+01  0.18726451230E+02  0.00000000000E+00 0. -1.
         11    1    3    3    0    0 -0.29197193766E+02  0.84609022041E+01  0.23119075099E+02  0.38191028051E+02  0.51100000000E-03 0. -1.
        -11    1    3    3    0    0  0.48278517031E+01  0.34077534918E+01  0.51578373636E+01  0.78437377862E+01  0.51100000000E-03 0.  1.
         12    1    3    3    0    0  0.63436120885E+01 -0.92571872380E+01 -0.23925675043E+02  0.26426782933E+02  0.00000000000E+00 0. -1.
</event>
<event>
 7    1  0.3196678E-013  0.7246156E+02  0.7816164E-02  0.1226708E+00
        -11   -1    0    0    0    0  0.00000000000E+00  0.00000000000E+00  0.45593999997E+02  0.45594000000E+02  0.51100000000E-03 0. -1.
         11   -1    0    0    0    0 -0.00000000000E+00 -0.00000000000E+00 -0.45593999997E+02  0.45594000000E+02  0.51100000000E-03 0.  1.
    9900012    2    1    2    0    0 -0.78893317009E+01 -0.99999979423E+01 -0.13727276888E+02  0.72461557618E+02  0.69999983486E+02 0.  0.
         12    1    1    2    0    0  0.78893317009E+01  0.99999979423E+01  0.13727276888E+02  0.18726442382E+02  0.00000000000E+00 0. -1.
         11    1    3    3    0    0  0.90499696390E+00 -0.13962843582E+02  0.14323810477E+02  0.20023775049E+02  0.51100000000E-03 0. -1.
        -11    1    3    3    0    0  0.16960390738E+02 -0.34354482322E+01 -0.85855006253E+01  0.19317556258E+02  0.51100000000E-03 0.  1.
        -12    1    3    3    0    0 -0.25754719403E+02  0.73982938715E+01 -0.19465586739E+02  0.33120226310E+02  0.00000000000E+00 0.  1.
</event>
<event>
 7    1  0.3196678E-013  0.7246149E+02  0.7816164E-02  0.1226708E+00
        -11   -1    0    0    0    0  0.00000000000E+00  0.00000000000E+00  0.45593999997E+02  0.45594000000E+02  0.51100000000E-03 0. -1.
         11   -1    0    0    0    0 -0.00000000000E+00 -0.00000000000E+00 -0.45593999997E+02  0.45594000000E+02  0.51100000000E-03 0.  1.
    9900012    2    1    2    0    0 -0.56060943740E+01 -0.58332570001E+01 -0.16888669653E+02  0.72461485535E+02  0.69999889585E+02 0.  0.
         12    1    1    2    0    0  0.56060943740E+01  0.58332570001E+01  0.16888669653E+02  0.18726514465E+02  0.00000000000E+00 0. -1.
         11    1    3    3    0    0 -0.18754939503E+02  0.92124149911E+01 -0.14157012022E+02  0.25239598558E+02  0.51100000000E-03 0. -1.
        -11    1    3    3    0    0 -0.74527056252E+01  0.28683624227E+01  0.13335718880E+02  0.15543864462E+02  0.51100000000E-03 0.  1.
        -12    1    3    3    0    0  0.20601550754E+02 -0.17914034414E+02 -0.16067376511E+02  0.31678022514E+02  0.00000000000E+00 0.  1.
</event>
<event>
 7    1  0.3196678E-013  0.7246158E+02  0.7816164E-02  0.1226708E+00
        -11   -1    0    0    0    0  0.00000000000E+00  0.00000000000E+00  0.45593999997E+02  0.45594000000E+02  0.51100000000E-03 0. -1.
         11   -1    0    0    0    0 -0.00000000000E+00 -0.00000000000E+00 -0.45593999997E+02  0.45594000000E+02  0.51100000000E-03 0.  1.
    9900012    2    1    2    0    0  0.23198501476E+00  0.12455754093E+02  0.13981390703E+02  0.72461577142E+02  0.70000008920E+02 0.  0.
         12    1    1    2    0    0 -0.23198501476E+00 -0.12455754093E+02 -0.13981390703E+02  0.18726422858E+02  0.00000000000E+00 0. -1.
         11    1    3    3    0    0 -0.10890233224E+02  0.10977673828E+02 -0.11357206339E+01  0.15504720699E+02  0.51100000000E-03 0. -1.
        -11    1    3    3    0    0  0.56153192848E+01  0.12736566712E+02 -0.17298103926E+02  0.22203070553E+02  0.51100000000E-03 0.  1.
        -12    1    3    3    0    0  0.55068989537E+01 -0.11258486447E+02  0.32415215263E+02  0.34753785890E+02  0.00000000000E+00 0.  1.
</event>
<event>
 7    1  0.3196678E-013  0.7246160E+02  0.7816164E-02  0.1226708E+00
        -11   -1    0    0    0    0  0.00000000000E+00  0.00000000000E+00  0.45593999997E+02  0.45594000000E+02  0.51100000000E-03 0.  1.
         11   -1    0    0    0    0 -0.00000000000E+00 -0.00000000000E+00 -0.45593999997E+02  0.45594000000E+02  0.51100000000E-03 0. -1.
    9900012    2    1    2    0    0 -0.64353927880E+01 -0.12289510470E+02  0.12579013508E+02  0.72461603423E+02  0.70000043156E+02 0.  0.
         12    1    1    2    0    0  0.64353927880E+01  0.12289510470E+02 -0.12579013508E+02  0.18726396577E+02  0.00000000000E+00 0. -1.
         11    1    3    3    0    0 -0.62392484159E+01 -0.61948479201E+01 -0.19232846376E+02  0.21147263216E+02  0.51100000000E-03 0. -1.
        -11    1    3    3    0    0  0.36829463558E+01 -0.31560027683E+01 -0.89944668713E+01  0.10218849343E+02  0.51100000000E-03 0.  1.
        -12    1    3    3    0    0 -0.38790907279E+01 -0.29386597817E+01  0.40806326754E+02  0.41095490864E+02  0.00000000000E+00 0.  1.
</event>
<event>
 7    1  0.3196678E-013  0.7246156E+02  0.7816164E-02  0.1226708E+00
        -11   -1    0    0    0    0  0.00000000000E+00  0.00000000000E+00  0.45593999997E+02  0.45594000000E+02  0.51100000000E-03 0.  1.
         11   -1    0    0    0    0 -0.00000000000E+00 -0.00000000000E+00 -0.45593999997E+02  0.45594000000E+02  0.51100000000E-03 0. -1.
    9900012    2    1    2    0    0  0.10767491431E+02  0.10479093426E+01  0.15285371396E+02  0.72461559750E+02  0.69999986264E+02 0.  0.
         12    1    1    2    0    0 -0.10767491431E+02 -0.10479093426E+01 -0.15285371396E+02  0.18726440250E+02  0.00000000000E+00 0. -1.
         11    1    3    3    0    0  0.10293049532E+02 -0.13985776352E+02 -0.11234031914E+01  0.17401460968E+02  0.51100000000E-03 0. -1.
        -11    1    3    3    0    0  0.37808753057E+01 -0.12492818687E+02  0.23106475143E+02  0.26538174968E+02  0.51100000000E-03 0.  1.
        -12    1    3    3    0    0 -0.33064334066E+01  0.27526504381E+02 -0.66977005557E+01  0.28521923814E+02  0.00000000000E+00 0.  1.
</event>
<event>
 7    1  0.3196678E-013  0.7246138E+02  0.7816164E-02  0.1226709E+00
        -11   -1    0    0    0    0  0.00000000000E+00  0.00000000000E+00  0.45593999997E+02  0.45594000000E+02  0.51100000000E-03 0.  1.
         11   -1    0    0    0    0 -0.00000000000E+00 -0.00000000000E+00 -0.45593999997E+02  0.45594000000E+02  0.51100000000E-03 0. -1.
    9900012    2    1    2    0    0  0.88938765815E+01 -0.10642711705E+02  0.12582452141E+02  0.72461375772E+02  0.69999746599E+02 0.  0.
         12    1    1    2    0    0 -0.88938765815E+01  0.10642711705E+02 -0.12582452141E+02  0.18726624228E+02  0.00000000000E+00 0. -1.
         11    1    3    3    0    0  0.11352079788E+02  0.22734230317E+00 -0.19582179959E+02  0.22635882405E+02  0.51100000000E-03 0. -1.
        -11    1    3    3    0    0  0.10434732559E+02  0.86702167674E+00 -0.27271966389E+01  0.10820026430E+02  0.51100000000E-03 0.  1.
        -12    1    3    3    0    0 -0.12892935766E+02 -0.11737075685E+02  0.34891828739E+02  0.39005466938E+02  0.00000000000E+00 0.  1.
</event>
<event>
 7    1  0.3196678E-013  0.7246159E+02  0.7816164E-02  0.1226708E+00
        -11   -1    0    0    0    0  0.00000000000E+00  0.00000000000E+00  0.45593999997E+02  0.45594000000E+02  0.51100000000E-03 0. -1.
         11   -1    0    0    0    0 -0.00000000000E+00 -0.00000000000E+00 -0.45593999997E+02  0.45594000000E+02  0.51100000000E-03 0.  1.
    9900012    2    1    2    0    0 -0.75220673191E+00  0.59091950308E+01 -0.17753705908E+02  0.72461588855E+02  0.70000024179E+02 0.  0.
         12    1    1    2    0    0  0.75220673191E+00 -0.59091950308E+01  0.17753705908E+02  0.18726411145E+02  0.00000000000E+00 0. -1.
         11    1    3    3    0    0  0.15097701009E+02  0.51295371472E+01  0.90084147786E+01  0.18314045544E+02  0.51100000000E-03 0. -1.
        -11    1    3    3    0    0 -0.78472951107E+01  0.78516211165E+01 -0.37436693155E+02  0.39047842313E+02  0.51100000000E-03 0.  1.
         12    1    3    3    0    0 -0.80026126301E+01 -0.70719632328E+01  0.10674572468E+02  0.15099700998E+02  0.00000000000E+00 0. -1.
</event>
<event>
 7    1  0.3196678E-013  0.7246158E+02  0.7816164E-02  0.1226708E+00
        -11   -1    0    0    0    0  0.00000000000E+00  0.00000000000E+00  0.45593999997E+02  0.45594000000E+02  0.51100000000E-03 0. -1.
         11   -1    0    0    0    0 -0.00000000000E+00 -0.00000000000E+00 -0.45593999997E+02  0.45594000000E+02  0.51100000000E-03 0.  1.
    9900012    2    1    2    0    0  0.13444470299E+02 -0.13028918968E+02 -0.41526421114E+00  0.72461576010E+02  0.70000007446E+02 0.  0.
         12    1    1    2    0    0 -0.13444470299E+02  0.13028918968E+02  0.41526421114E+00  0.18726423990E+02  0.00000000000E+00 0. -1.
         11    1    3    3    0    0  0.14406101421E+02 -0.20284126266E+02  0.19987673419E+02  0.31913768588E+02  0.51100000000E-03 0. -1.
        -11    1    3    3    0    0  0.12928245856E+02 -0.52384780077E+00  0.19709839469E+01  0.13088114280E+02  0.51100000000E-03 0.  1.
         12    1    3    3    0    0 -0.13889876978E+02  0.77790550988E+01 -0.22373921577E+02  0.27459693142E+02  0.00000000000E+00 0. -1.
</event>
<event>
 7    1  0.3196678E-013  0.7246157E+02  0.7816164E-02  0.1226708E+00
        -11   -1    0    0    0    0  0.00000000000E+00  0.00000000000E+00  0.45593999997E+02  0.45594000000E+02  0.51100000000E-03 0. -1.
         11   -1    0    0    0    0 -0.00000000000E+00 -0.00000000000E+00 -0.45593999997E+02  0.45594000000E+02  0.51100000000E-03 0.  1.
    9900012    2    1    2    0    0  0.15128676677E+02  0.10759028494E+02 -0.24588184197E+01  0.72461565739E+02  0.69999994065E+02 0.  0.
         12    1    1    2    0    0 -0.15128676677E+02 -0.10759028494E+02  0.24588184197E+01  0.18726434261E+02  0.00000000000E+00 0. -1.
         11    1    3    3    0    0  0.15740754126E+02  0.30566225742E+01 -0.92097819784E+00  0.16061210512E+02  0.51100000000E-03 0. -1.
        -11    1    3    3    0    0  0.10516416985E+02 -0.15664224611E+02  0.16328169867E+02  0.24951394557E+02  0.51100000000E-03 0.  1.
         12    1    3    3    0    0 -0.11128494433E+02  0.23366630531E+02 -0.17866010089E+02  0.31448960670E+02  0.00000000000E+00 0. -1.
</event>
<event>
 7    1  0.3196678E-013  0.7246169E+02  0.7816164E-02  0.1226708E+00
        -11   -1    0    0    0    0  0.00000000000E+00  0.00000000000E+00  0.45593999997E+02  0.45594000000E+02  0.51100000000E-03 0.  1.
         11   -1    0    0    0    0 -0.00000000000E+00 -0.00000000000E+00 -0.45593999997E+02  0.45594000000E+02  0.51100000000E-03 0. -1.
    9900012    2    1    2    0    0 -0.50300559399E+01 -0.15076422957E+02  0.99032734117E+01  0.72461686529E+02  0.70000151417E+02 0.  0.
         12    1    1    2    0    0  0.50300559399E+01  0.15076422957E+02 -0.99032734117E+01  0.18726313471E+02  0.00000000000E+00 0. -1.
         11    1    3    3    0    0 -0.10428226538E+01  0.93030650288E+00  0.19732326691E+00  0.14113419180E+01  0.51100000000E-03 0. -1.
        -11    1    3    3    0    0 -0.11166917987E+02  0.89130447762E+01  0.33145503862E+02  0.36093861681E+02  0.51100000000E-03 0.  1.
         12    1    3    3    0    0  0.71796847008E+01 -0.24919774236E+02 -0.23439553717E+02  0.34956482930E+02  0.00000000000E+00 0. -1.
</event>
<event>
 7    1  0.3196678E-013  0.7246156E+02  0.7816164E-02  0.1226708E+00
        -11   -1    0    0    0    0  0.00000000000E+00  0.00000000000E+00  0.45593999997E+02  0.45594000000E+02  0.51100000000E-03 0.  1.
         11   -1    0    0    0    0 -0.00000000000E+00 -0.00000000000E+00 -0.45593999997E+02  0.45594000000E+02  0.51100000000E-03 0. -1.
    9900012    2    1    2    0    0  0.81136891076E+01 -0.16608234415E+02  0.30023376581E+01  0.72461563266E+02  0.69999990845E+02 0.  0.
         12    1    1    2    0    0 -0.81136891076E+01  0.16608234415E+02 -0.30023376581E+01  0.18726436734E+02  0.00000000000E+00 0. -1.
         11    1    3    3    0    0  0.20160039928E+02  0.65363414978E+01 -0.98972224458E+01  0.23390296759E+02  0.51100000000E-03 0. -1.
        -11    1    3    3    0    0  0.55153541131E+01  0.68579613734E+01 -0.48385149358E+01  0.10043007131E+02  0.51100000000E-03 0.  1.
        -12    1    3    3    0    0 -0.17561704934E+02 -0.30002537287E+02  0.17738075040E+02  0.39028259376E+02  0.00000000000E+00 0.  1.
</event>
<event>
 7    1  0.3196678E-013  0.7246156E+02  0.7816164E-02  0.1226708E+00
        -11   -1    0    0    0    0  0.00000000000E+00  0.00000000000E+00  0.45593999997E+02  0.45594000000E+02  0.51100000000E-03 0. -1.
         11   -1    0    0    0    0 -0.00000000000E+00 -0.00000000000E+00 -0.45593999997E+02  0.45594000000E+02  0.51100000000E-03 0.  1.
    9900012    2    1    2    0    0 -0.12187640193E+01 -0.83653742585E+01 -0.16709713486E+02  0.72461564221E+02  0.69999992088E+02 0.  0.
         12    1    1    2    0    0  0.12187640193E+01  0.83653742585E+01  0.16709713486E+02  0.18726435779E+02  0.00000000000E+00 0. -1.
         11    1    3    3    0    0 -0.71473643569E+01 -0.44174125397E+01 -0.17783193349E+01  0.85884090909E+01  0.51100000000E-03 0. -1.
        -11    1    3    3    0    0 -0.26913039510E+02  0.76387323343E+00  0.12638068308E+01  0.26953523071E+02  0.51100000000E-03 0.  1.
         12    1    3    3    0    0  0.32841639848E+02 -0.47118349522E+01 -0.16195200982E+02  0.36919632058E+02  0.00000000000E+00 0. -1.
</event>
<event>
 7    1  0.3196678E-013  0.7246134E+02  0.7816164E-02  0.1226709E+00
        -11   -1    0    0    0    0  0.00000000000E+00  0.00000000000E+00  0.45593999997E+02  0.45594000000E+02  0.51100000000E-03 0.  1.
         11   -1    0    0    0    0 -0.00000000000E+00 -0.00000000000E+00 -0.45593999997E+02  0.45594000000E+02  0.51100000000E-03 0. -1.
    9900012    2    1    2    0    0 -0.16805317224E+02  0.28939099883E+01 -0.77391540405E+01  0.72461336996E+02  0.69999696085E+02 0.  0.
         12    1    1    2    0    0  0.16805317224E+02 -0.28939099883E+01  0.77391540405E+01  0.18726663004E+02  0.00000000000E+00 0. -1.
         11    1    3    3    0    0 -0.23484427047E+02  0.71168055051E+01  0.14668194665E+02  0.28588864428E+02  0.51100000000E-03 0. -1.
        -11    1    3    3    0    0 -0.36963931221E+01 -0.92456002405E+01  0.70762966065E+01  0.12215499165E+02  0.51100000000E-03 0.  1.
         12    1    3    3    0    0  0.10375502945E+02  0.50227047236E+01 -0.29483645313E+02  0.31656973403E+02  0.00000000000E+00 0. -1.
</event>
<event>
 7    1  0.3196678E-013  0.7246156E+02  0.7816164E-02  0.1226708E+00
        -11   -1    0    0    0    0  0.00000000000E+00  0.00000000000E+00  0.45593999997E+02  0.45594000000E+02  0.51100000000E-03 0.  1.
         11   -1    0    0    0    0 -0.00000000000E+00 -0.00000000000E+00 -0.45593999997E+02  0.45594000000E+02  0.51100000000E-03 0. -1.
    9900012    2    1    2    0    0  0.86057300594E+01  0.95673290557E+01  0.13604678145E+02  0.72461557665E+02  0.69999983548E+02 0.  0.
         12    1    1    2    0    0 -0.86057300594E+01 -0.95673290557E+01 -0.13604678145E+02  0.18726442335E+02  0.00000000000E+00 0. -1.
         11    1    3    3    0    0  0.90067634456E+01  0.18679769597E+02  0.31883365182E+02  0.38034255028E+02  0.51100000000E-03 0. -1.
        -11    1    3    3    0    0 -0.22563158858E+01  0.28031728317E+01  0.61834232364E+01  0.71542618405E+01  0.51100000000E-03 0.  1.
         12    1    3    3    0    0  0.18552824996E+01 -0.11915613373E+02 -0.24462110274E+02  0.27273040796E+02  0.00000000000E+00 0. -1.
</event>
<event>
 7    1  0.3196678E-013  0.7246146E+02  0.7816164E-02  0.1226708E+00
        -11   -1    0    0    0    0  0.00000000000E+00  0.00000000000E+00  0.45593999997E+02  0.45594000000E+02  0.51100000000E-03 0. -1.
         11   -1    0    0    0    0 -0.00000000000E+00 -0.00000000000E+00 -0.45593999997E+02  0.45594000000E+02  0.51100000000E-03 0.  1.
    9900012    2    1    2    0    0 -0.27184660835E+01 -0.13081544950E+02 -0.13121219164E+02  0.72461460851E+02  0.69999857430E+02 0.  0.
         12    1    1    2    0    0  0.27184660835E+01  0.13081544950E+02  0.13121219164E+02  0.18726539149E+02  0.00000000000E+00 0. -1.
         11    1    3    3    0    0 -0.36544477052E+01  0.14224841230E+01 -0.18263776561E+02  0.18680042389E+02  0.51100000000E-03 0.  1.
        -11    1    3    3    0    0 -0.59993259683E+01 -0.28937901394E+02  0.16781011235E+02  0.33985237788E+02  0.51100000000E-03 0. -1.
         12    1    3    3    0    0  0.69353075900E+01  0.14433872321E+02 -0.11638453838E+02  0.19796180674E+02  0.00000000000E+00 0. -1.
</event>
<event>
 7    1  0.3196678E-013  0.7246157E+02  0.7816164E-02  0.1226708E+00
        -11   -1    0    0    0    0  0.00000000000E+00  0.00000000000E+00  0.45593999997E+02  0.45594000000E+02  0.51100000000E-03 0. -1.
         11   -1    0    0    0    0 -0.00000000000E+00 -0.00000000000E+00 -0.45593999997E+02  0.45594000000E+02  0.51100000000E-03 0.  1.
    9900012    2    1    2    0    0  0.67267880436E+01  0.12481746889E+02  0.12232559478E+02  0.72461569637E+02  0.69999999143E+02 0.  0.
         12    1    1    2    0    0 -0.67267880436E+01 -0.12481746889E+02 -0.12232559478E+02  0.18726430363E+02  0.00000000000E+00 0. -1.
         11    1    3    3    0    0  0.68367193419E+01  0.16971847985E+02 -0.83960526660E+01  0.20131518969E+02  0.51100000000E-03 0. -1.
        -11    1    3    3    0    0  0.36314572516E+00  0.14429424670E+02 -0.91184683183E+01  0.17072979701E+02  0.51100000000E-03 0.  1.
        -12    1    3    3    0    0 -0.47307702348E+00 -0.18919525767E+02  0.29747080462E+02  0.35257070966E+02  0.00000000000E+00 0.  1.
</event>
<event>
 7    1  0.3196678E-013  0.7246159E+02  0.7816164E-02  0.1226708E+00
        -11   -1    0    0    0    0  0.00000000000E+00  0.00000000000E+00  0.45593999997E+02  0.45594000000E+02  0.51100000000E-03 0. -1.
         11   -1    0    0    0    0 -0.00000000000E+00 -0.00000000000E+00 -0.45593999997E+02  0.45594000000E+02  0.51100000000E-03 0.  1.
    9900012    2    1    2    0    0 -0.18142323403E+01  0.18257575161E+02  0.37480637328E+01  0.72461588932E+02  0.70000024280E+02 0.  0.
         12    1    1    2    0    0  0.18142323403E+01 -0.18257575161E+02 -0.37480637328E+01  0.18726411068E+02  0.00000000000E+00 0. -1.
         11    1    3    3    0    0  0.18050756042E+02  0.10050107498E+02 -0.53283474693E+01  0.21336019812E+02  0.51100000000E-03 0. -1.
        -11    1    3    3    0    0  0.12787795243E+02  0.10003333268E+02  0.87034656607E+01  0.18421310985E+02  0.51100000000E-03 0.  1.
         12    1    3    3    0    0 -0.32652783626E+02 -0.17958656050E+01  0.37294554139E+00  0.32704258135E+02  0.00000000000E+00 0. -1.
</event>
<event>
 7    1  0.3196678E-013  0.7246153E+02  0.7816164E-02  0.1226708E+00
        -11   -1    0    0    0    0  0.00000000000E+00  0.00000000000E+00  0.45593999997E+02  0.45594000000E+02  0.51100000000E-03 0. -1.
         11   -1    0    0    0    0 -0.00000000000E+00 -0.00000000000E+00 -0.45593999997E+02  0.45594000000E+02  0.51100000000E-03 0.  1.
    9900012    2    1    2    0    0 -0.10529566503E+02 -0.12749700528E+02 -0.87894195470E+01  0.72461533962E+02  0.69999952671E+02 0.  0.
         12    1    1    2    0    0  0.10529566503E+02  0.12749700528E+02  0.87894195470E+01  0.18726466038E+02  0.00000000000E+00 0. -1.
         11    1    3    3    0    0 -0.24901744516E+02  0.10312234426E+02  0.17903898677E+01  0.27011933565E+02  0.51100000000E-03 0. -1.
        -11    1    3    3    0    0  0.26074124763E+01  0.49282803953E+01 -0.13832290156E+02  0.14913711768E+02  0.51100000000E-03 0.  1.
        -12    1    3    3    0    0  0.11764765536E+02 -0.27990215349E+02  0.32524807409E+01  0.30535888630E+02  0.00000000000E+00 0.  1.
</event>
<event>
 7    1  0.3196678E-013  0.7246169E+02  0.7816164E-02  0.1226708E+00
        -11   -1    0    0    0    0  0.00000000000E+00  0.00000000000E+00  0.45593999997E+02  0.45594000000E+02  0.51100000000E-03 0.  1.
         11   -1    0    0    0    0 -0.00000000000E+00 -0.00000000000E+00 -0.45593999997E+02  0.45594000000E+02  0.51100000000E-03 0. -1.
    9900012    2    1    2    0    0  0.99398214426E+01 -0.12090236158E+02  0.10281092455E+02  0.72461689025E+02  0.70000154669E+02 0.  0.
         12    1    1    2    0    0 -0.99398214426E+01  0.12090236158E+02 -0.10281092455E+02  0.18726310975E+02  0.00000000000E+00 0. -1.
         11    1    3    3    0    0 -0.16719662460E+02 -0.16543109744E+02  0.60874265962E+01  0.24295644787E+02  0.51100000000E-03 0. -1.
        -11    1    3    3    0    0  0.10501016579E+02  0.15824933033E+02  0.16270471808E+02  0.25008560690E+02  0.51100000000E-03 0.  1.
        -12    1    3    3    0    0  0.16158467324E+02 -0.11372059447E+02 -0.12076805949E+02  0.23157483548E+02  0.00000000000E+00 0.  1.
</event>
<event>
 7    1  0.3196678E-013  0.7246159E+02  0.7816164E-02  0.1226708E+00
        -11   -1    0    0    0    0  0.00000000000E+00  0.00000000000E+00  0.45593999997E+02  0.45594000000E+02  0.51100000000E-03 0.  1.
         11   -1    0    0    0    0 -0.00000000000E+00 -0.00000000000E+00 -0.45593999997E+02  0.45594000000E+02  0.51100000000E-03 0. -1.
    9900012    2    1    2    0    0 -0.66553704946E+01 -0.17458745124E+02 -0.12556986035E+01  0.72461587725E+02  0.70000022707E+02 0.  0.
         12    1    1    2    0    0  0.66553704946E+01  0.17458745124E+02  0.12556986035E+01  0.18726412275E+02  0.00000000000E+00 0. -1.
         11    1    3    3    0    0 -0.14712698888E+02 -0.18813999219E+02 -0.28288052178E+01  0.24050617755E+02  0.51100000000E-03 0. -1.
        -11    1    3    3    0    0 -0.17108332537E+02  0.54880301428E+01  0.11176978459E+02  0.21159829035E+02  0.51100000000E-03 0.  1.
         12    1    3    3    0    0  0.25165660930E+02 -0.41327760477E+01 -0.96038718447E+01  0.27251140936E+02  0.00000000000E+00 0. -1.
</event>
<event>
 7    1  0.3196678E-013  0.7246160E+02  0.7816164E-02  0.1226708E+00
        -11   -1    0    0    0    0  0.00000000000E+00  0.00000000000E+00  0.45593999997E+02  0.45594000000E+02  0.51100000000E-03 0.  1.
         11   -1    0    0    0    0 -0.00000000000E+00 -0.00000000000E+00 -0.45593999997E+02  0.45594000000E+02  0.51100000000E-03 0. -1.
    9900012    2    1    2    0    0 -0.17332697535E+02 -0.27857130611E+01  0.65188504420E+01  0.72461601196E+02  0.70000040255E+02 0.  0.
         12    1    1    2    0    0  0.17332697535E+02  0.27857130611E+01 -0.65188504420E+01  0.18726398804E+02  0.00000000000E+00 0. -1.
         11    1    3    3    0    0  0.90323229676E+01 -0.57959854250E+00  0.19451499546E+02  0.21454128449E+02  0.51100000000E-03 0. -1.
        -11    1    3    3    0    0  0.27584405392E+01 -0.11077457355E+02  0.81057889919E+01  0.14000816802E+02  0.51100000000E-03 0.  1.
         12    1    3    3    0    0 -0.29123461042E+02  0.88713428368E+01 -0.21038438095E+02  0.37006655945E+02  0.00000000000E+00 0. -1.
</event>
<event>
 7    1  0.3196678E-013  0.7246178E+02  0.7816164E-02  0.1226707E+00
        -11   -1    0    0    0    0  0.00000000000E+00  0.00000000000E+00  0.45593999997E+02  0.45594000000E+02  0.51100000000E-03 0. -1.
         11   -1    0    0    0    0 -0.00000000000E+00 -0.00000000000E+00 -0.45593999997E+02  0.45594000000E+02  0.51100000000E-03 0.  1.
    9900012    2    1    2    0    0 -0.11610283130E+02  0.17166122811E+01 -0.14591978624E+02  0.72461781155E+02  0.70000274684E+02 0.  0.
         12    1    1    2    0    0  0.11610283130E+02 -0.17166122811E+01  0.14591978624E+02  0.18726218845E+02  0.00000000000E+00 0. -1.
         11    1    3    3    0    0  0.69299329589E+01 -0.25723712904E+01  0.12247713238E+02  0.14305507495E+02  0.51100000000E-03 0. -1.
        -11    1    3    3    0    0  0.13001961424E+02  0.95136918549E+01 -0.19605830796E+02  0.25376168644E+02  0.51100000000E-03 0.  1.
        -12    1    3    3    0    0 -0.31542177513E+02 -0.52247082835E+01 -0.72338610667E+01  0.32780105016E+02  0.00000000000E+00 0.  1.
</event>
<event>
 7    1  0.3196678E-013  0.7246159E+02  0.7816164E-02  0.1226708E+00
        -11   -1    0    0    0    0  0.00000000000E+00  0.00000000000E+00  0.45593999997E+02  0.45594000000E+02  0.51100000000E-03 0. -1.
         11   -1    0    0    0    0 -0.00000000000E+00 -0.00000000000E+00 -0.45593999997E+02  0.45594000000E+02  0.51100000000E-03 0.  1.
    9900012    2    1    2    0    0  0.10989879840E+01 -0.18586804141E+02 -0.20003704563E+01  0.72461586976E+02  0.70000021731E+02 0.  0.
         12    1    1    2    0    0 -0.10989879840E+01  0.18586804141E+02  0.20003704563E+01  0.18726413024E+02  0.00000000000E+00 0. -1.
         11    1    3    3    0    0  0.78153799274E+01 -0.37875648435E+01  0.90300936506E+01  0.12528703143E+02  0.51100000000E-03 0. -1.
        -11    1    3    3    0    0  0.21468789727E+02 -0.36715878385E+00  0.80867606797E+01  0.22944268053E+02  0.51100000000E-03 0.  1.
         12    1    3    3    0    0 -0.28185181671E+02 -0.14432080514E+02 -0.19117224787E+02  0.36988615780E+02  0.00000000000E+00 0. -1.
</event>
<event>
 7    1  0.3196678E-013  0.7246157E+02  0.7816164E-02  0.1226708E+00
        -11   -1    0    0    0    0  0.00000000000E+00  0.00000000000E+00  0.45593999997E+02  0.45594000000E+02  0.51100000000E-03 0.  1.
         11   -1    0    0    0    0 -0.00000000000E+00 -0.00000000000E+00 -0.45593999997E+02  0.45594000000E+02  0.51100000000E-03 0. -1.
    9900012    2    1    2    0    0  0.17779322574E+02  0.54065137872E+01 -0.23118250655E+01  0.72461568475E+02  0.69999997630E+02 0.  0.
         12    1    1    2    0    0 -0.17779322574E+02 -0.54065137872E+01  0.23118250655E+01  0.18726431525E+02  0.00000000000E+00 0. -1.
         11    1    3    3    0    0  0.31349382688E+02 -0.19875564201E+02  0.27322701568E+00  0.37120028293E+02  0.51100000000E-03 0. -1.
        -11    1    3    3    0    0  0.26276648777E+01 -0.88180253810E+00  0.29807406336E+01  0.40702596246E+01  0.51100000000E-03 0.  1.
        -12    1    3    3    0    0 -0.16197724991E+02  0.26163880527E+02 -0.55657927148E+01  0.31271280557E+02  0.00000000000E+00 0.  1.
</event>
<event>
 7    1  0.3484049E-013  0.7246155E+02  0.7816164E-02  0.1226708E+00
        -11   -1    0    0    0    0  0.00000000000E+00  0.00000000000E+00  0.45593999997E+02  0.45594000000E+02  0.51100000000E-03 0.  1.
         11   -1    0    0    0    0 -0.00000000000E+00 -0.00000000000E+00 -0.45593999997E+02  0.45594000000E+02  0.51100000000E-03 0. -1.
    9900012    2    1    2    0    0  0.17158166801E+02 -0.52753288286E+01  0.53336730903E+01  0.72461552103E+02  0.69999976302E+02 0.  0.
         12    1    1    2    0    0 -0.17158166801E+02  0.52753288286E+01 -0.53336730903E+01  0.18726447897E+02  0.00000000000E+00 0. -1.
         11    1    3    3    0    0  0.70700810449E+01 -0.36688877716E+01  0.19810097657E+02  0.21351504699E+02  0.51100000000E-03 0. -1.
        -11    1    3    3    0    0  0.15592162931E+02  0.18531132589E+02 -0.17685987909E+02  0.29988540953E+02  0.51100000000E-03 0.  1.
         12    1    3    3    0    0 -0.55040771752E+01 -0.20137573646E+02  0.32095633428E+01  0.21121506451E+02  0.00000000000E+00 0. -1.
</event>
<event>
 7    1  0.3196678E-013  0.7246157E+02  0.7816164E-02  0.1226708E+00
        -11   -1    0    0    0    0  0.00000000000E+00  0.00000000000E+00  0.45593999997E+02  0.45594000000E+02  0.51100000000E-03 0. -1.
         11   -1    0    0    0    0 -0.00000000000E+00 -0.00000000000E+00 -0.45593999997E+02  0.45594000000E+02  0.51100000000E-03 0.  1.
    9900012    2    1    2    0    0 -0.83810994909E+01  0.83027856775E+01 -0.14543043607E+02  0.72461569586E+02  0.69999999078E+02 0.  0.
         12    1    1    2    0    0  0.83810994909E+01 -0.83027856775E+01  0.14543043607E+02  0.18726430414E+02  0.00000000000E+00 0. -1.
         11    1    3    3    0    0  0.18250069545E+01 -0.12396824701E+01 -0.32430860811E+01  0.39223807313E+01  0.51100000000E-03 0. -1.
        -11    1    3    3    0    0  0.21247662889E+02  0.45458721186E+01 -0.25642487394E+02  0.33610493772E+02  0.51100000000E-03 0.  1.
         12    1    3    3    0    0 -0.31453769334E+02  0.49965960290E+01  0.14342529868E+02  0.34928695084E+02  0.00000000000E+00 0. -1.
</event>
<event>
 7    1  0.3196678E-013  0.7246156E+02  0.7816164E-02  0.1226708E+00
        -11   -1    0    0    0    0  0.00000000000E+00  0.00000000000E+00  0.45593999997E+02  0.45594000000E+02  0.51100000000E-03 0.  1.
         11   -1    0    0    0    0 -0.00000000000E+00 -0.00000000000E+00 -0.45593999997E+02  0.45594000000E+02  0.51100000000E-03 0. -1.
    9900012    2    1    2    0    0  0.11823363322E+02  0.46634319792E+01  0.13752816241E+02  0.72461562202E+02  0.69999989458E+02 0.  0.
         12    1    1    2    0    0 -0.11823363322E+02 -0.46634319792E+01 -0.13752816241E+02  0.18726437798E+02  0.00000000000E+00 0. -1.
         11    1    3    3    0    0  0.17995413158E+02 -0.16007640824E+02 -0.19891374579E+01  0.24166839421E+02  0.51100000000E-03 0. -1.
        -11    1    3    3    0    0  0.51614444399E+01 -0.74658410027E+01  0.15497850824E+02  0.17960029816E+02  0.51100000000E-03 0.  1.
        -12    1    3    3    0    0 -0.11333494276E+02  0.28136913806E+02  0.24410287466E+00  0.30334692965E+02  0.00000000000E+00 0.  1.
</event>
<event>
 7    1  0.3196678E-013  0.7246180E+02  0.7816164E-02  0.1226707E+00
        -11   -1    0    0    0    0  0.00000000000E+00  0.00000000000E+00  0.45593999997E+02  0.45594000000E+02  0.51100000000E-03 0.  1.
         11   -1    0    0    0    0 -0.00000000000E+00 -0.00000000000E+00 -0.45593999997E+02  0.45594000000E+02  0.51100000000E-03 0. -1.
    9900012    2    1    2    0    0  0.13108915244E+02 -0.10234603159E+02  0.86069664292E+01  0.72461798255E+02  0.70000296960E+02 0.  0.
         12    1    1    2    0    0 -0.13108915244E+02  0.10234603159E+02 -0.86069664292E+01  0.18726201745E+02  0.00000000000E+00 0. -1.
         11    1    3    3    0    0 -0.99529039566E+01 -0.10971537563E+02 -0.30000604793E-01  0.14813366733E+02  0.51100000000E-03 0. -1.
        -11    1    3    3    0    0 -0.26457964779E+01 -0.18631117529E+02 -0.90945957775E+01  0.20900489276E+02  0.51100000000E-03 0.  1.
         12    1    3    3    0    0  0.25707615678E+02  0.19368051933E+02  0.17731562812E+02  0.36747942245E+02  0.00000000000E+00 0. -1.
</event>
<event>
 7    1  0.3196678E-013  0.7246156E+02  0.7816164E-02  0.1226708E+00
        -11   -1    0    0    0    0  0.00000000000E+00  0.00000000000E+00  0.45593999997E+02  0.45594000000E+02  0.51100000000E-03 0.  1.
         11   -1    0    0    0    0 -0.00000000000E+00 -0.00000000000E+00 -0.45593999997E+02  0.45594000000E+02  0.51100000000E-03 0. -1.
    9900012    2    1    2    0    0  0.31183066555E+01  0.15527466640E+02 -0.99926702107E+01  0.72461561081E+02  0.69999987998E+02 0.  0.
         12    1    1    2    0    0 -0.31183066555E+01 -0.15527466640E+02  0.99926702107E+01  0.18726438919E+02  0.00000000000E+00 0. -1.
         11    1    3    3    0    0 -0.65231554450E+01  0.11262232050E+02  0.55643399787E+01  0.14154550766E+02  0.51100000000E-03 0. -1.
        -11    1    3    3    0    0 -0.18185864172E+02  0.10728604548E+02  0.66345103177E+01  0.22132449902E+02  0.51100000000E-03 0.  1.
         12    1    3    3    0    0  0.27827326273E+02 -0.64633699592E+01 -0.22191520507E+02  0.36174560414E+02  0.00000000000E+00 0. -1.
</event>
<event>
 7    1  0.3196678E-013  0.7246165E+02  0.7816164E-02  0.1226708E+00
        -11   -1    0    0    0    0  0.00000000000E+00  0.00000000000E+00  0.45593999997E+02  0.45594000000E+02  0.51100000000E-03 0. -1.
         11   -1    0    0    0    0 -0.00000000000E+00 -0.00000000000E+00 -0.45593999997E+02  0.45594000000E+02  0.51100000000E-03 0.  1.
    9900012    2    1    2    0    0  0.62966616956E+01  0.15382649553E+01 -0.17568779814E+02  0.72461648734E+02  0.70000102183E+02 0.  0.
         12    1    1    2    0    0 -0.62966616956E+01 -0.15382649553E+01  0.17568779814E+02  0.18726351266E+02  0.00000000000E+00 0. -1.
         11    1    3    3    0    0  0.13667298359E+02  0.15477700082E+02 -0.10870551071E+02  0.23335019287E+02  0.51100000000E-03 0. -1.
        -11    1    3    3    0    0  0.19404004517E+02 -0.68932988654E+01 -0.59332216277E+01  0.21429794205E+02  0.51100000000E-03 0.  1.
         12    1    3    3    0    0 -0.26774641180E+02 -0.70461362613E+01 -0.76500711469E+00  0.27696835242E+02  0.00000000000E+00 0. -1.
</event>
<event>
 7    1  0.3196678E-013  0.7246152E+02  0.7816164E-02  0.1226708E+00
        -11   -1    0    0    0    0  0.00000000000E+00  0.00000000000E+00  0.45593999997E+02  0.45594000000E+02  0.51100000000E-03 0.  1.
         11   -1    0    0    0    0 -0.00000000000E+00 -0.00000000000E+00 -0.45593999997E+02  0.45594000000E+02  0.51100000000E-03 0. -1.
    9900012    2    1    2    0    0  0.14520998870E+02  0.88543668255E+01  0.78372044754E+01  0.72461521579E+02  0.69999936539E+02 0.  0.
         12    1    1    2    0    0 -0.14520998870E+02 -0.88543668255E+01 -0.78372044754E+01  0.18726478421E+02  0.00000000000E+00 0. -1.
         11    1    3    3    0    0 -0.38872758576E+01 -0.61793550463E+01  0.15877142595E+02  0.17475096556E+02  0.51100000000E-03 0. -1.
        -11    1    3    3    0    0  0.11448571059E+02 -0.17485480850E+02 -0.56222157661E+01  0.21643038840E+02  0.51100000000E-03 0.  1.
         12    1    3    3    0    0  0.69597036682E+01  0.32519202722E+02 -0.24177223538E+01  0.33343386183E+02  0.00000000000E+00 0. -1.
</event>
<event>
 7    1  0.3196678E-013  0.7246157E+02  0.7816164E-02  0.1226708E+00
        -11   -1    0    0    0    0  0.00000000000E+00  0.00000000000E+00  0.45593999997E+02  0.45594000000E+02  0.51100000000E-03 0.  1.
         11   -1    0    0    0    0 -0.00000000000E+00 -0.00000000000E+00 -0.45593999997E+02  0.45594000000E+02  0.51100000000E-03 0. -1.
    9900012    2    1    2    0    0  0.14332646636E+02  0.32665530047E+00  0.12047732132E+02  0.72461566468E+02  0.69999995016E+02 0.  0.
         12    1    1    2    0    0 -0.14332646636E+02 -0.32665530047E+00 -0.12047732132E+02  0.18726433532E+02  0.00000000000E+00 0. -1.
         11    1    3    3    0    0  0.20383614966E+02 -0.16843069700E+01 -0.37128695640E+01  0.20787353120E+02  0.51100000000E-03 0. -1.
        -11    1    3    3    0    0  0.21318707618E+02  0.26134186827E+01  0.38566244510E+01  0.21821796538E+02  0.51100000000E-03 0.  1.
         12    1    3    3    0    0 -0.27369675948E+02 -0.60245641228E+00  0.11903977245E+02  0.29852416811E+02  0.00000000000E+00 0. -1.
</event>
<event>
 7    1  0.3196678E-013  0.7246174E+02  0.7816164E-02  0.1226708E+00
        -11   -1    0    0    0    0  0.00000000000E+00  0.00000000000E+00  0.45593999997E+02  0.45594000000E+02  0.51100000000E-03 0. -1.
         11   -1    0    0    0    0 -0.00000000000E+00 -0.00000000000E+00 -0.45593999997E+02  0.45594000000E+02  0.51100000000E-03 0.  1.
    9900012    2    1    2    0    0 -0.15814391671E+02 -0.84817700402E+01  0.53513924410E+01  0.72461740149E+02  0.70000221267E+02 0.  0.
         12    1    1    2    0    0  0.15814391671E+02  0.84817700402E+01 -0.53513924410E+01  0.18726259851E+02  0.00000000000E+00 0. -1.
         11    1    3    3    0    0  0.19888331667E+01 -0.24434895965E+02  0.11745848926E+02  0.27184270552E+02  0.51100000000E-03 0.  1.
        -11    1    3    3    0    0  0.10166033999E+02  0.75539686501E+01  0.54182553321E+01  0.13775637217E+02  0.51100000000E-03 0. -1.
        -12    1    3    3    0    0 -0.27969258837E+02  0.83991572748E+01 -0.11812711817E+02  0.31501832380E+02  0.00000000000E+00 0.  1.
</event>
<event>
 7    1  0.3196678E-013  0.7246146E+02  0.7816164E-02  0.1226708E+00
        -11   -1    0    0    0    0  0.00000000000E+00  0.00000000000E+00  0.45593999997E+02  0.45594000000E+02  0.51100000000E-03 0. -1.
         11   -1    0    0    0    0 -0.00000000000E+00 -0.00000000000E+00 -0.45593999997E+02  0.45594000000E+02  0.51100000000E-03 0.  1.
    9900012    2    1    2    0    0 -0.12340010382E+02 -0.78631814921E+01 -0.11686644659E+02  0.72461464207E+02  0.69999861802E+02 0.  0.
         12    1    1    2    0    0  0.12340010382E+02  0.78631814921E+01  0.11686644659E+02  0.18726535793E+02  0.00000000000E+00 0. -1.
         11    1    3    3    0    0  0.89073939344E+01  0.82078101053E+01 -0.35022607040E+01  0.12608554387E+02  0.51100000000E-03 0. -1.
        -11    1    3    3    0    0 -0.85180852903E+01  0.21678766371E+01 -0.28441664840E+02  0.29768872422E+02  0.51100000000E-03 0.  1.
        -12    1    3    3    0    0 -0.12729319026E+02 -0.18238868235E+02  0.20257280885E+02  0.30084037398E+02  0.00000000000E+00 0.  1.
</event>
<event>
 7    1  0.3196678E-013  0.7246163E+02  0.7816164E-02  0.1226708E+00
        -11   -1    0    0    0    0  0.00000000000E+00  0.00000000000E+00  0.45593999997E+02  0.45594000000E+02  0.51100000000E-03 0.  1.
         11   -1    0    0    0    0 -0.00000000000E+00 -0.00000000000E+00 -0.45593999997E+02  0.45594000000E+02  0.51100000000E-03 0. -1.
    9900012    2    1    2    0    0 -0.42450604921E+01 -0.12248713982E+02  0.13513899109E+02  0.72461628170E+02  0.70000075393E+02 0.  0.
         12    1    1    2    0    0  0.42450604921E+01  0.12248713982E+02 -0.13513899109E+02  0.18726371830E+02  0.00000000000E+00 0. -1.
         11    1    3    3    0    0  0.27413253243E+02 -0.65595296635E+01  0.10353306895E+02  0.30028400668E+02  0.51100000000E-03 0. -1.
        -11    1    3    3    0    0  0.48714116349E+01 -0.24644665378E+01 -0.91569392926E+00  0.55355887010E+01  0.51100000000E-03 0.  1.
        -12    1    3    3    0    0 -0.36529725370E+02 -0.32247177809E+01  0.40762861435E+01  0.36897638801E+02  0.00000000000E+00 0.  1.
</event>
<event>
 7    1  0.3196678E-013  0.7246156E+02  0.7816164E-02  0.1226708E+00
        -11   -1    0    0    0    0  0.00000000000E+00  0.00000000000E+00  0.45593999997E+02  0.45594000000E+02  0.51100000000E-03 0. -1.
         11   -1    0    0    0    0 -0.00000000000E+00 -0.00000000000E+00 -0.45593999997E+02  0.45594000000E+02  0.51100000000E-03 0.  1.
    9900012    2    1    2    0    0  0.12229727240E+02  0.70808133640E+01 -0.12287200631E+02  0.72461562922E+02  0.69999990397E+02 0.  0.
         12    1    1    2    0    0 -0.12229727240E+02 -0.70808133640E+01  0.12287200631E+02  0.18726437078E+02  0.00000000000E+00 0. -1.
         11    1    3    3    0    0 -0.62115212602E+01 -0.46418815764E+01  0.16240395767E+02  0.17996680690E+02  0.51100000000E-03 0. -1.
        -11    1    3    3    0    0 -0.31035311905E+01 -0.13090636807E+02 -0.97694430573E+01  0.16626445675E+02  0.51100000000E-03 0.  1.
         12    1    3    3    0    0  0.21544779691E+02  0.24813331747E+02 -0.18758153341E+02  0.37838436557E+02  0.00000000000E+00 0. -1.
</event>
<event>
 7    1  0.4411364E-013  0.7246162E+02  0.7816164E-02  0.1226708E+00
        -11   -1    0    0    0    0  0.00000000000E+00  0.00000000000E+00  0.45593999997E+02  0.45594000000E+02  0.51100000000E-03 0. -1.
         11   -1    0    0    0    0 -0.00000000000E+00 -0.00000000000E+00 -0.45593999997E+02  0.45594000000E+02  0.51100000000E-03 0.  1.
    9900012    2    1    2    0    0  0.16026007709E+02 -0.70861210738E+01  0.66053915503E+01  0.72461622013E+02  0.70000067374E+02 0.  0.
         12    1    1    2    0    0 -0.16026007709E+02  0.70861210738E+01 -0.66053915503E+01  0.18726377987E+02  0.00000000000E+00 0. -1.
         11    1    3    3    0    0  0.30551183253E+01  0.17954562438E+02  0.98835576562E+01  0.20721601591E+02  0.51100000000E-03 0. -1.
        -11    1    3    3    0    0 -0.13637115063E+02 -0.20149260568E+02 -0.41016881714E+01  0.24673618599E+02  0.51100000000E-03 0.  1.
         12    1    3    3    0    0  0.26608004446E+02 -0.48914229431E+01  0.82352206555E+00  0.27066401823E+02  0.00000000000E+00 0. -1.
</event>
<event>
 7    1  0.3196678E-013  0.7246210E+02  0.7816164E-02  0.1226707E+00
        -11   -1    0    0    0    0  0.00000000000E+00  0.00000000000E+00  0.45593999997E+02  0.45594000000E+02  0.51100000000E-03 0. -1.
         11   -1    0    0    0    0 -0.00000000000E+00 -0.00000000000E+00 -0.45593999997E+02  0.45594000000E+02  0.51100000000E-03 0.  1.
    9900012    2    1    2    0    0  0.29586598488E+01 -0.37373497505E+01 -0.18109054563E+02  0.72462100598E+02  0.70000690816E+02 0.  0.
         12    1    1    2    0    0 -0.29586598488E+01  0.37373497505E+01  0.18109054563E+02  0.18725899402E+02  0.00000000000E+00 0. -1.
         11    1    3    3    0    0 -0.53699801945E+01  0.24668924964E+00 -0.20023577486E+01  0.57364605541E+01  0.51100000000E-03 0. -1.
        -11    1    3    3    0    0 -0.21495620383E+02 -0.15657963411E+01 -0.27296650972E+02  0.34779599888E+02  0.51100000000E-03 0.  1.
         12    1    3    3    0    0  0.29824260427E+02 -0.24182426590E+01  0.11189954158E+02  0.31946040156E+02  0.00000000000E+00 0. -1.
</event>
<event>
 7    1  0.3196678E-013  0.7246157E+02  0.7816164E-02  0.1226708E+00
        -11   -1    0    0    0    0  0.00000000000E+00  0.00000000000E+00  0.45593999997E+02  0.45594000000E+02  0.51100000000E-03 0.  1.
         11   -1    0    0    0    0 -0.00000000000E+00 -0.00000000000E+00 -0.45593999997E+02  0.45594000000E+02  0.51100000000E-03 0. -1.
    9900012    2    1    2    0    0  0.10009854422E+02  0.15764475067E+02  0.14011319495E+01  0.72461574008E+02  0.70000004838E+02 0.  0.
         12    1    1    2    0    0 -0.10009854422E+02 -0.15764475067E+02 -0.14011319495E+01  0.18726425992E+02  0.00000000000E+00 0. -1.
         11    1    3    3    0    0  0.66810366891E+01 -0.32861907294E+01  0.79801803445E+01  0.10914145837E+02  0.51100000000E-03 0. -1.
        -11    1    3    3    0    0 -0.10315940758E+02  0.25135307563E+02  0.18136704600E+02  0.32667145177E+02  0.51100000000E-03 0.  1.
         12    1    3    3    0    0  0.13644758491E+02 -0.60846417666E+01 -0.24715752995E+02  0.28880282994E+02  0.00000000000E+00 0. -1.
</event>
<event>
 7    1  0.3196678E-013  0.7246153E+02  0.7816164E-02  0.1226708E+00
        -11   -1    0    0    0    0  0.00000000000E+00  0.00000000000E+00  0.45593999997E+02  0.45594000000E+02  0.51100000000E-03 0.  1.
         11   -1    0    0    0    0 -0.00000000000E+00 -0.00000000000E+00 -0.45593999997E+02  0.45594000000E+02  0.51100000000E-03 0. -1.
    9900012    2    1    2    0    0 -0.15099783780E+02  0.20101105371E+00  0.11074156098E+02  0.72461526521E+02  0.69999942978E+02 0.  0.
         12    1    1    2    0    0  0.15099783780E+02 -0.20101105371E+00 -0.11074156098E+02  0.18726473479E+02  0.00000000000E+00 0. -1.
         11    1    3    3    0    0 -0.17644307897E+02 -0.10494033719E+02  0.78285398644E+01  0.21971171601E+02  0.51100000000E-03 0. -1.
        -11    1    3    3    0    0 -0.34985713681E+01 -0.18476641937E+02  0.77901560551E+01  0.20354675888E+02  0.51100000000E-03 0.  1.
         12    1    3    3    0    0  0.60430954850E+01  0.29171686709E+02 -0.45445398216E+01  0.30135679032E+02  0.00000000000E+00 0. -1.
</event>
<event>
 7    1  0.3196678E-013  0.7246174E+02  0.7816164E-02  0.1226708E+00
        -11   -1    0    0    0    0  0.00000000000E+00  0.00000000000E+00  0.45593999997E+02  0.45594000000E+02  0.51100000000E-03 0. -1.
         11   -1    0    0    0    0 -0.00000000000E+00 -0.00000000000E+00 -0.45593999997E+02  0.45594000000E+02  0.51100000000E-03 0.  1.
    9900012    2    1    2    0    0 -0.17509370719E+01 -0.17198149366E+02 -0.71993514382E+01  0.72461740807E+02  0.70000222124E+02 0.  0.
         12    1    1    2    0    0  0.17509370719E+01  0.17198149366E+02  0.71993514382E+01  0.18726259193E+02  0.00000000000E+00 0. -1.
         11    1    3    3    0    0  0.60669338082E+01  0.80087476854E-01 -0.59319047412E+01  0.84853752985E+01  0.51100000000E-03 0. -1.
        -11    1    3    3    0    0 -0.28518729724E+02 -0.27723252414E+02 -0.62478244004E+01  0.40260799539E+02  0.51100000000E-03 0.  1.
         12    1    3    3    0    0  0.20700858844E+02  0.10445015571E+02  0.49803777034E+01  0.23715565969E+02  0.00000000000E+00 0. -1.
</event>
<event>
 7    1  0.3196678E-013  0.7246160E+02  0.7816164E-02  0.1226708E+00
        -11   -1    0    0    0    0  0.00000000000E+00  0.00000000000E+00  0.45593999997E+02  0.45594000000E+02  0.51100000000E-03 0.  1.
         11   -1    0    0    0    0 -0.00000000000E+00 -0.00000000000E+00 -0.45593999997E+02  0.45594000000E+02  0.51100000000E-03 0. -1.
    9900012    2    1    2    0    0 -0.14785722738E+02  0.41315587421E+01  0.10723376236E+02  0.72461596917E+02  0.70000034681E+02 0.  0.
         12    1    1    2    0    0  0.14785722738E+02 -0.41315587421E+01 -0.10723376236E+02  0.18726403083E+02  0.00000000000E+00 0. -1.
         11    1    3    3    0    0 -0.10274049355E+02 -0.47061542183E+01 -0.12300418158E+02  0.16703420752E+02  0.51100000000E-03 0. -1.
        -11    1    3    3    0    0 -0.14787889924E+02 -0.96044552456E+01 -0.70698039337E+01  0.18997615031E+02  0.51100000000E-03 0.  1.
        -12    1    3    3    0    0  0.10276216541E+02  0.18442168206E+02  0.30093598328E+02  0.36760561134E+02  0.00000000000E+00 0.  1.
</event>
<event>
 7    1  0.3196678E-013  0.7246156E+02  0.7816164E-02  0.1226708E+00
        -11   -1    0    0    0    0  0.00000000000E+00  0.00000000000E+00  0.45593999997E+02  0.45594000000E+02  0.51100000000E-03 0.  1.
         11   -1    0    0    0    0 -0.00000000000E+00 -0.00000000000E+00 -0.45593999997E+02  0.45594000000E+02  0.51100000000E-03 0. -1.
    9900012    2    1    2    0    0 -0.11387014914E+02 -0.53664623822E+01 -0.13864214547E+02  0.72461562214E+02  0.69999989474E+02 0.  0.
         12    1    1    2    0    0  0.11387014914E+02  0.53664623822E+01  0.13864214547E+02  0.18726437786E+02  0.00000000000E+00 0. -1.
         11    1    3    3    0    0  0.19242105483E+01 -0.25320242723E+02  0.89899296395E+00  0.25409161072E+02  0.51100000000E-03 0. -1.
        -11    1    3    3    0    0 -0.17488100693E+02 -0.35803527892E+01 -0.14740819788E+02  0.23150472138E+02  0.51100000000E-03 0.  1.
        -12    1    3    3    0    0  0.41768752309E+01  0.23534133130E+02 -0.22387722863E-01  0.23901929003E+02  0.00000000000E+00 0.  1.
</event>
<event>
 7    1  0.3196678E-013  0.7246158E+02  0.7816164E-02  0.1226708E+00
        -11   -1    0    0    0    0  0.00000000000E+00  0.00000000000E+00  0.45593999997E+02  0.45594000000E+02  0.51100000000E-03 0. -1.
         11   -1    0    0    0    0 -0.00000000000E+00 -0.00000000000E+00 -0.45593999997E+02  0.45594000000E+02  0.51100000000E-03 0.  1.
    9900012    2    1    2    0    0  0.16593080981E+02 -0.61235778764E+01  0.61522423156E+01  0.72461584754E+02  0.70000018837E+02 0.  0.
         12    1    1    2    0    0 -0.16593080981E+02  0.61235778764E+01 -0.61522423156E+01  0.18726415246E+02  0.00000000000E+00 0. -1.
         11    1    3    3    0    0  0.15060894830E+02 -0.67936765422E+01  0.24233030991E+02  0.29329582085E+02  0.51100000000E-03 0. -1.
        -11    1    3    3    0    0  0.43802593700E+01  0.10044542237E+01  0.12052246856E+02  0.12862824533E+02  0.51100000000E-03 0.  1.
        -12    1    3    3    0    0 -0.28480732192E+01 -0.33435555789E+00 -0.30133035531E+02  0.30269178136E+02  0.00000000000E+00 0.  1.
</event>
<event>
 7    1  0.3196678E-013  0.7246156E+02  0.7816164E-02  0.1226708E+00
        -11   -1    0    0    0    0  0.00000000000E+00  0.00000000000E+00  0.45593999997E+02  0.45594000000E+02  0.51100000000E-03 0. -1.
         11   -1    0    0    0    0 -0.00000000000E+00 -0.00000000000E+00 -0.45593999997E+02  0.45594000000E+02  0.51100000000E-03 0.  1.
    9900012    2    1    2    0    0  0.13468530387E+02  0.98338265165E+01 -0.85190379959E+01  0.72461562455E+02  0.69999989788E+02 0.  0.
         12    1    1    2    0    0 -0.13468530387E+02 -0.98338265165E+01  0.85190379959E+01  0.18726437545E+02  0.00000000000E+00 0. -1.
         11    1    3    3    0    0  0.13706469969E+02  0.27244388868E+02 -0.22905398225E+02  0.38141595560E+02  0.51100000000E-03 0.  1.
        -11    1    3    3    0    0  0.92491998778E+01 -0.67051941768E+01 -0.29944329757E+01  0.11809909248E+02  0.51100000000E-03 0. -1.
        -12    1    3    3    0    0 -0.94871394596E+01 -0.10705368175E+02  0.17380793204E+02  0.22510057648E+02  0.00000000000E+00 0.  1.
</event>
<event>
 7    1  0.3196678E-013  0.7246235E+02  0.7816164E-02  0.1226706E+00
        -11   -1    0    0    0    0  0.00000000000E+00  0.00000000000E+00  0.45593999997E+02  0.45594000000E+02  0.51100000000E-03 0. -1.
         11   -1    0    0    0    0 -0.00000000000E+00 -0.00000000000E+00 -0.45593999997E+02  0.45594000000E+02  0.51100000000E-03 0.  1.
    9900012    2    1    2    0    0  0.16686362520E+01  0.14827266125E+02 -0.11314498213E+02  0.72462348142E+02  0.70001013284E+02 0.  0.
         12    1    1    2    0    0 -0.16686362520E+01 -0.14827266125E+02  0.11314498213E+02  0.18725651858E+02  0.00000000000E+00 0. -1.
         11    1    3    3    0    0 -0.27036682303E+02 -0.12052581608E+02  0.14528498871E+01  0.29637099832E+02  0.51100000000E-03 0. -1.
        -11    1    3    3    0    0  0.17385271918E+02  0.86476548531E+01 -0.60613162466E+01  0.20341316797E+02  0.51100000000E-03 0.  1.
        -12    1    3    3    0    0  0.11320046637E+02  0.18232192880E+02 -0.67060318533E+01  0.22483931514E+02  0.00000000000E+00 0.  1.
</event>
<event>
 7    1  0.3196678E-013  0.7246131E+02  0.7816164E-02  0.1226709E+00
        -11   -1    0    0    0    0  0.00000000000E+00  0.00000000000E+00  0.45593999997E+02  0.45594000000E+02  0.51100000000E-03 0. -1.
         11   -1    0    0    0    0 -0.00000000000E+00 -0.00000000000E+00 -0.45593999997E+02  0.45594000000E+02  0.51100000000E-03 0.  1.
    9900012    2    1    2    0    0 -0.14262649752E+02 -0.12032830185E+02 -0.15737455191E+01  0.72461311687E+02  0.69999663116E+02 0.  0.
         12    1    1    2    0    0  0.14262649752E+02  0.12032830185E+02  0.15737455191E+01  0.18726688313E+02  0.00000000000E+00 0. -1.
         11    1    3    3    0    0  0.31083997807E+01 -0.18313272966E+02  0.18404521110E+02  0.26148891248E+02  0.51100000000E-03 0. -1.
        -11    1    3    3    0    0 -0.84400144413E+01 -0.15529029259E+02 -0.12272293396E+02  0.21517290233E+02  0.51100000000E-03 0.  1.
         12    1    3    3    0    0 -0.89310350915E+01  0.21809472041E+02 -0.77059732334E+01  0.24795130207E+02  0.00000000000E+00 0. -1.
</event>
<event>
 7    1  0.3196678E-013  0.7246119E+02  0.7816164E-02  0.1226709E+00
        -11   -1    0    0    0    0  0.00000000000E+00  0.00000000000E+00  0.45593999997E+02  0.45594000000E+02  0.51100000000E-03 0.  1.
         11   -1    0    0    0    0 -0.00000000000E+00 -0.00000000000E+00 -0.45593999997E+02  0.45594000000E+02  0.51100000000E-03 0. -1.
    9900012    2    1    2    0    0  0.12499586936E+02  0.89263696812E+01  0.10713242066E+02  0.72461192883E+02  0.69999508350E+02 0.  0.
         12    1    1    2    0    0 -0.12499586936E+02 -0.89263696812E+01 -0.10713242066E+02  0.18726807117E+02  0.00000000000E+00 0. -1.
         11    1    3    3    0    0 -0.92854635893E+00  0.18721053736E+02 -0.11811986602E+02  0.22155430013E+02  0.51100000000E-03 0. -1.
        -11    1    3    3    0    0 -0.11505248824E+02 -0.86498087442E+01 -0.28927850296E+01  0.14681898627E+02  0.51100000000E-03 0.  1.
        -12    1    3    3    0    0  0.24933382118E+02 -0.11448753101E+01  0.25418013697E+02  0.35623864243E+02  0.00000000000E+00 0.  1.
</event>
<event>
 7    1  0.3196678E-013  0.7246155E+02  0.7816164E-02  0.1226708E+00
        -11   -1    0    0    0    0  0.00000000000E+00  0.00000000000E+00  0.45593999997E+02  0.45594000000E+02  0.51100000000E-03 0.  1.
         11   -1    0    0    0    0 -0.00000000000E+00 -0.00000000000E+00 -0.45593999997E+02  0.45594000000E+02  0.51100000000E-03 0. -1.
    9900012    2    1    2    0    0 -0.22416622515E+01  0.96186448800E+01  0.15910261697E+02  0.72461553294E+02  0.69999977854E+02 0.  0.
         12    1    1    2    0    0  0.22416622515E+01 -0.96186448800E+01 -0.15910261697E+02  0.18726446706E+02  0.00000000000E+00 0. -1.
         11    1    3    3    0    0 -0.11504760105E+02 -0.11371565216E+02 -0.11953311580E+02  0.20113519297E+02  0.51100000000E-03 0. -1.
        -11    1    3    3    0    0 -0.13228861673E+02  0.19117902505E+01  0.28297441695E+01  0.13662546448E+02  0.51100000000E-03 0.  1.
        -12    1    3    3    0    0  0.22491959526E+02  0.19078419845E+02  0.25033829107E+02  0.38685487549E+02  0.00000000000E+00 0.  1.
</event>
<event>
 7    1  0.3196678E-013  0.7246148E+02  0.7816164E-02  0.1226708E+00
        -11   -1    0    0    0    0  0.00000000000E+00  0.00000000000E+00  0.45593999997E+02  0.45594000000E+02  0.51100000000E-03 0.  1.
         11   -1    0    0    0    0 -0.00000000000E+00 -0.00000000000E+00 -0.45593999997E+02  0.45594000000E+02  0.51100000000E-03 0. -1.
    9900012    2    1    2    0    0 -0.10855020406E+00  0.12113500433E+02  0.14280545832E+02  0.72461476961E+02  0.69999878416E+02 0.  0.
         12    1    1    2    0    0  0.10855020406E+00 -0.12113500433E+02 -0.14280545832E+02  0.18726523039E+02  0.00000000000E+00 0. -1.
         11    1    3    3    0    0 -0.17898901023E+02 -0.12791839673E+02 -0.69271158184E+01  0.23064838041E+02  0.51100000000E-03 0. -1.
        -11    1    3    3    0    0 -0.33643803851E+01  0.25192456176E+01  0.17937337014E+02  0.18423184124E+02  0.51100000000E-03 0.  1.
        -12    1    3    3    0    0  0.21154731204E+02  0.22386094489E+02  0.32703246365E+01  0.30973454796E+02  0.00000000000E+00 0.  1.
</event>
<event>
 7    1  0.3196678E-013  0.7246155E+02  0.7816164E-02  0.1226708E+00
        -11   -1    0    0    0    0  0.00000000000E+00  0.00000000000E+00  0.45593999997E+02  0.45594000000E+02  0.51100000000E-03 0.  1.
         11   -1    0    0    0    0 -0.00000000000E+00 -0.00000000000E+00 -0.45593999997E+02  0.45594000000E+02  0.51100000000E-03 0. -1.
    9900012    2    1    2    0    0  0.99250348054E+00  0.18681765145E+02 -0.82863111458E+00  0.72461547009E+02  0.69999969667E+02 0.  0.
         12    1    1    2    0    0 -0.99250348054E+00 -0.18681765145E+02  0.82863111458E+00  0.18726452991E+02  0.00000000000E+00 0. -1.
         11    1    3    3    0    0 -0.23629060386E+01 -0.11268082968E+02 -0.27354302608E+02  0.29678458352E+02  0.51100000000E-03 0. -1.
        -11    1    3    3    0    0 -0.40539751141E+01  0.67930246841E+01  0.18140460213E+01  0.81160742858E+01  0.51100000000E-03 0.  1.
        -12    1    3    3    0    0  0.74093846332E+01  0.23156823428E+02  0.24711625472E+02  0.34667014371E+02  0.00000000000E+00 0.  1.
</event>
<event>
 7    1  0.3196678E-013  0.7246140E+02  0.7816164E-02  0.1226708E+00
        -11   -1    0    0    0    0  0.00000000000E+00  0.00000000000E+00  0.45593999997E+02  0.45594000000E+02  0.51100000000E-03 0.  1.
         11   -1    0    0    0    0 -0.00000000000E+00 -0.00000000000E+00 -0.45593999997E+02  0.45594000000E+02  0.51100000000E-03 0. -1.
    9900012    2    1    2    0    0 -0.15871608578E+02 -0.99301537611E+01  0.41167675912E+00  0.72461404198E+02  0.69999783629E+02 0.  0.
         12    1    1    2    0    0  0.15871608578E+02  0.99301537611E+01 -0.41167675912E+00  0.18726595802E+02  0.00000000000E+00 0. -1.
         11    1    3    3    0    0 -0.80240464521E+01  0.69835799849E+00  0.23215862174E+02  0.24573344951E+02  0.51100000000E-03 0. -1.
        -11    1    3    3    0    0 -0.10279633182E+02  0.11020985925E+02  0.16220873600E+01  0.15157973373E+02  0.51100000000E-03 0.  1.
         12    1    3    3    0    0  0.24320710563E+01 -0.21649497685E+02 -0.24426272775E+02  0.32730085874E+02  0.00000000000E+00 0. -1.
</event>
<event>
 7    1  0.3196678E-013  0.7246157E+02  0.7816164E-02  0.1226708E+00
        -11   -1    0    0    0    0  0.00000000000E+00  0.00000000000E+00  0.45593999997E+02  0.45594000000E+02  0.51100000000E-03 0.  1.
         11   -1    0    0    0    0 -0.00000000000E+00 -0.00000000000E+00 -0.45593999997E+02  0.45594000000E+02  0.51100000000E-03 0. -1.
    9900012    2    1    2    0    0 -0.52205316710E+01 -0.14372446320E+02 -0.10810088843E+02  0.72461569883E+02  0.69999999464E+02 0.  0.
         12    1    1    2    0    0  0.52205316710E+01  0.14372446320E+02  0.10810088843E+02  0.18726430117E+02  0.00000000000E+00 0. -1.
         11    1    3    3    0    0 -0.10185157505E+02  0.88323418678E+01  0.63820044593E+01  0.14915685618E+02  0.51100000000E-03 0. -1.
        -11    1    3    3    0    0 -0.11870743005E+02 -0.23331099670E+02  0.78870989840E+01  0.27339734489E+02  0.51100000000E-03 0.  1.
         12    1    3    3    0    0  0.16835368838E+02  0.12631148277E+00 -0.25079192287E+02  0.30206149776E+02  0.00000000000E+00 0. -1.
</event>
<event>
 7    1  0.3196678E-013  0.7246156E+02  0.7816164E-02  0.1226708E+00
        -11   -1    0    0    0    0  0.00000000000E+00  0.00000000000E+00  0.45593999997E+02  0.45594000000E+02  0.51100000000E-03 0.  1.
         11   -1    0    0    0    0 -0.00000000000E+00 -0.00000000000E+00 -0.45593999997E+02  0.45594000000E+02  0.51100000000E-03 0. -1.
    9900012    2    1    2    0    0 -0.96453340783E+01 -0.11236561329E+01  0.16012005866E+02  0.72461564022E+02  0.69999991829E+02 0.  0.
         12    1    1    2    0    0  0.96453340783E+01  0.11236561329E+01 -0.16012005866E+02  0.18726435978E+02  0.00000000000E+00 0. -1.
         11    1    3    3    0    0 -0.17285326230E+02 -0.73601492065E+01 -0.11289339478E+02  0.21918108616E+02  0.51100000000E-03 0. -1.
        -11    1    3    3    0    0 -0.84415910481E+01  0.10693639773E+02 -0.47332585639E+01  0.14422833561E+02  0.51100000000E-03 0.  1.
        -12    1    3    3    0    0  0.16081583199E+02 -0.44571466999E+01  0.32034603908E+02  0.36120621845E+02  0.00000000000E+00 0.  1.
</event>
<event>
 7    1  0.3196678E-013  0.7246160E+02  0.7816164E-02  0.1226708E+00
        -11   -1    0    0    0    0  0.00000000000E+00  0.00000000000E+00  0.45593999997E+02  0.45594000000E+02  0.51100000000E-03 0.  1.
         11   -1    0    0    0    0 -0.00000000000E+00 -0.00000000000E+00 -0.45593999997E+02  0.45594000000E+02  0.51100000000E-03 0. -1.
    9900012    2    1    2    0    0 -0.23125996196E+01 -0.91473936548E+01  0.16175758682E+02  0.72461598941E+02  0.70000037318E+02 0.  0.
         12    1    1    2    0    0  0.23125996196E+01  0.91473936548E+01 -0.16175758682E+02  0.18726401059E+02  0.00000000000E+00 0. -1.
         11    1    3    3    0    0  0.51582356669E+01  0.17674588966E+01 -0.31797859719E+01  0.63120793115E+01  0.51100000000E-03 0. -1.
        -11    1    3    3    0    0  0.21231326904E+02  0.13665760520E+02  0.50885863246E+01  0.25756862459E+02  0.51100000000E-03 0.  1.
        -12    1    3    3    0    0 -0.28702162190E+02 -0.24580613071E+02  0.14266958329E+02  0.40392657171E+02  0.00000000000E+00 0.  1.
</event>
<event>
 7    1  0.3196678E-013  0.7246158E+02  0.7816164E-02  0.1226708E+00
        -11   -1    0    0    0    0  0.00000000000E+00  0.00000000000E+00  0.45593999997E+02  0.45594000000E+02  0.51100000000E-03 0. -1.
         11   -1    0    0    0    0 -0.00000000000E+00 -0.00000000000E+00 -0.45593999997E+02  0.45594000000E+02  0.51100000000E-03 0.  1.
    9900012    2    1    2    0    0  0.69704745488E+01  0.62969404481E+00 -0.17369365180E+02  0.72461578110E+02  0.70000010182E+02 0.  0.
         12    1    1    2    0    0 -0.69704745488E+01 -0.62969404481E+00  0.17369365180E+02  0.18726421890E+02  0.00000000000E+00 0. -1.
         11    1    3    3    0    0 -0.97258057052E+00  0.15597516750E+01  0.30852226686E+00  0.18638466954E+01  0.51100000000E-03 0. -1.
        -11    1    3    3    0    0 -0.27172686610E+02  0.12471123132E+02 -0.22956021938E+01  0.29985890006E+02  0.51100000000E-03 0.  1.
         12    1    3    3    0    0  0.35115741729E+02 -0.13401180762E+02 -0.15382285254E+02  0.40611841409E+02  0.00000000000E+00 0. -1.
</event>
<event>
 7    1  0.3196678E-013  0.7246167E+02  0.7816164E-02  0.1226708E+00
        -11   -1    0    0    0    0  0.00000000000E+00  0.00000000000E+00  0.45593999997E+02  0.45594000000E+02  0.51100000000E-03 0. -1.
         11   -1    0    0    0    0 -0.00000000000E+00 -0.00000000000E+00 -0.45593999997E+02  0.45594000000E+02  0.51100000000E-03 0.  1.
    9900012    2    1    2    0    0 -0.17415688585E+02  0.51131463261E+01 -0.46070629585E+01  0.72461668182E+02  0.70000127517E+02 0.  0.
         12    1    1    2    0    0  0.17415688585E+02 -0.51131463261E+01  0.46070629585E+01  0.18726331818E+02  0.00000000000E+00 0. -1.
         11    1    3    3    0    0 -0.37222709349E+01 -0.29040727877E+01 -0.68073452726E+01  0.82842555243E+01  0.51100000000E-03 0. -1.
        -11    1    3    3    0    0 -0.12228733180E+00 -0.10814969556E+02 -0.25700186103E+02  0.27883294042E+02  0.51100000000E-03 0.  1.
         12    1    3    3    0    0 -0.13571130318E+02  0.18832188670E+02  0.27900468417E+02  0.36294118616E+02  0.00000000000E+00 0. -1.
</event>
<event>
 7    1  0.3196678E-013  0.7246156E+02  0.7816164E-02  0.1226708E+00
        -11   -1    0    0    0    0  0.00000000000E+00  0.00000000000E+00  0.45593999997E+02  0.45594000000E+02  0.51100000000E-03 0. -1.
         11   -1    0    0    0    0 -0.00000000000E+00 -0.00000000000E+00 -0.45593999997E+02  0.45594000000E+02  0.51100000000E-03 0.  1.
    9900012    2    1    2    0    0  0.16364336012E+02 -0.78830624952E+01 -0.45546953098E+01  0.72461563692E+02  0.69999991399E+02 0.  0.
         12    1    1    2    0    0 -0.16364336012E+02  0.78830624952E+01  0.45546953098E+01  0.18726436308E+02  0.00000000000E+00 0. -1.
         11    1    3    3    0    0  0.18968081703E+02 -0.11249081666E+02  0.40971208149E+01  0.22430255484E+02  0.51100000000E-03 0. -1.
        -11    1    3    3    0    0 -0.22783446712E+02 -0.35196908734E+01  0.64072185895E+01  0.23927518012E+02  0.51100000000E-03 0.  1.
         12    1    3    3    0    0  0.20179701021E+02  0.68857100442E+01 -0.15059034714E+02  0.26103790196E+02  0.00000000000E+00 0. -1.
</event>
<event>
 7    1  0.3196678E-013  0.7246163E+02  0.7816164E-02  0.1226708E+00
        -11   -1    0    0    0    0  0.00000000000E+00  0.00000000000E+00  0.45593999997E+02  0.45594000000E+02  0.51100000000E-03 0. -1.
         11   -1    0    0    0    0 -0.00000000000E+00 -0.00000000000E+00 -0.45593999997E+02  0.45594000000E+02  0.51100000000E-03 0.  1.
    9900012    2    1    2    0    0 -0.18079997560E+02 -0.27978092548E+01 -0.39953655500E+01  0.72461628374E+02  0.70000075659E+02 0.  0.
         12    1    1    2    0    0  0.18079997560E+02  0.27978092548E+01  0.39953655500E+01  0.18726371626E+02  0.00000000000E+00 0. -1.
         11    1    3    3    0    0 -0.49667404913E+01 -0.11693173280E+02  0.66577756454E+01  0.14343109470E+02  0.51100000000E-03 0. -1.
        -11    1    3    3    0    0 -0.15592790780E+02 -0.14923581894E+02 -0.22690080353E+02  0.31315941109E+02  0.51100000000E-03 0.  1.
         12    1    3    3    0    0  0.24795337114E+01  0.23818945919E+02  0.12036939158E+02  0.26802577794E+02  0.00000000000E+00 0. -1.
</event>
<event>
 7    1  0.3196678E-013  0.7246162E+02  0.7816164E-02  0.1226708E+00
        -11   -1    0    0    0    0  0.00000000000E+00  0.00000000000E+00  0.45593999997E+02  0.45594000000E+02  0.51100000000E-03 0. -1.
         11   -1    0    0    0    0 -0.00000000000E+00 -0.00000000000E+00 -0.45593999997E+02  0.45594000000E+02  0.51100000000E-03 0.  1.
    9900012    2    1    2    0    0 -0.82168597364E+01 -0.12933738521E+02 -0.10764701905E+02  0.72461623330E+02  0.70000069089E+02 0.  0.
         12    1    1    2    0    0  0.82168597364E+01  0.12933738521E+02  0.10764701905E+02  0.18726376670E+02  0.00000000000E+00 0. -1.
         11    1    3    3    0    0 -0.81921437148E+00 -0.14532394492E+02 -0.17776444462E+02  0.22975281931E+02  0.51100000000E-03 0. -1.
        -11    1    3    3    0    0 -0.10299908107E+02 -0.22000274341E+02 -0.12263133187E+01  0.24322911477E+02  0.51100000000E-03 0.  1.
         12    1    3    3    0    0  0.29022627422E+01  0.23598930311E+02  0.82380558751E+01  0.25163429922E+02  0.00000000000E+00 0. -1.
</event>
<event>
 7    1  0.3196678E-013  0.7246161E+02  0.7816164E-02  0.1226708E+00
        -11   -1    0    0    0    0  0.00000000000E+00  0.00000000000E+00  0.45593999997E+02  0.45594000000E+02  0.51100000000E-03 0. -1.
         11   -1    0    0    0    0 -0.00000000000E+00 -0.00000000000E+00 -0.45593999997E+02  0.45594000000E+02  0.51100000000E-03 0.  1.
    9900012    2    1    2    0    0 -0.21418816702E+01  0.12386287277E+02 -0.13880565351E+02  0.72461605150E+02  0.70000045406E+02 0.  0.
         12    1    1    2    0    0  0.21418816702E+01 -0.12386287277E+02  0.13880565351E+02  0.18726394850E+02  0.00000000000E+00 0. -1.
         11    1    3    3    0    0 -0.60061081931E+01  0.11145447565E+02  0.81660657247E+01  0.15065821144E+02  0.51100000000E-03 0. -1.
        -11    1    3    3    0    0  0.28229517344E+01  0.21929487445E+02 -0.28155004911E+02  0.35799103032E+02  0.51100000000E-03 0.  1.
         12    1    3    3    0    0  0.10412747885E+01 -0.20688647733E+02  0.61083738353E+01  0.21596680975E+02  0.00000000000E+00 0. -1.
</event>
<event>
 7    1  0.3196678E-013  0.7246157E+02  0.7816164E-02  0.1226708E+00
        -11   -1    0    0    0    0  0.00000000000E+00  0.00000000000E+00  0.45593999997E+02  0.45594000000E+02  0.51100000000E-03 0.  1.
         11   -1    0    0    0    0 -0.00000000000E+00 -0.00000000000E+00 -0.45593999997E+02  0.45594000000E+02  0.51100000000E-03 0. -1.
    9900012    2    1    2    0    0 -0.17315015864E+02 -0.55637565303E+01 -0.44625274650E+01  0.72461566477E+02  0.69999995028E+02 0.  0.
         12    1    1    2    0    0  0.17315015864E+02  0.55637565303E+01  0.44625274650E+01  0.18726433523E+02  0.00000000000E+00 0. -1.
         11    1    3    3    0    0 -0.15234566246E+02  0.87699249269E+01 -0.11945362301E+02  0.21253123834E+02  0.51100000000E-03 0. -1.
        -11    1    3    3    0    0 -0.14043056737E+02  0.92315063698E+01  0.16237479690E+02  0.23368438101E+02  0.51100000000E-03 0.  1.
         12    1    3    3    0    0  0.11962607118E+02 -0.23565187827E+02 -0.87546448541E+01  0.27840004542E+02  0.00000000000E+00 0. -1.
</event>
<event>
 7    1  0.3196678E-013  0.7246154E+02  0.7816164E-02  0.1226708E+00
        -11   -1    0    0    0    0  0.00000000000E+00  0.00000000000E+00  0.45593999997E+02  0.45594000000E+02  0.51100000000E-03 0.  1.
         11   -1    0    0    0    0 -0.00000000000E+00 -0.00000000000E+00 -0.45593999997E+02  0.45594000000E+02  0.51100000000E-03 0. -1.
    9900012    2    1    2    0    0 -0.93583536249E+01  0.15398233526E+02  0.50986309281E+01  0.72461537023E+02  0.69999956657E+02 0.  0.
         12    1    1    2    0    0  0.93583536249E+01 -0.15398233526E+02 -0.50986309281E+01  0.18726462977E+02  0.00000000000E+00 0. -1.
         11    1    3    3    0    0 -0.23566540795E+01  0.15886443510E+01 -0.60438861917E+01  0.66787850604E+01  0.51100000000E-03 0. -1.
        -11    1    3    3    0    0 -0.34018189604E+02  0.15415036584E+02  0.27577411054E+01  0.37449508850E+02  0.51100000000E-03 0.  1.
        -12    1    3    3    0    0  0.27016490058E+02 -0.16054474089E+01  0.83847760144E+01  0.28333243112E+02  0.00000000000E+00 0.  1.
</event>
<event>
 7    1  0.3196678E-013  0.7246165E+02  0.7816164E-02  0.1226708E+00
        -11   -1    0    0    0    0  0.00000000000E+00  0.00000000000E+00  0.45593999997E+02  0.45594000000E+02  0.51100000000E-03 0. -1.
         11   -1    0    0    0    0 -0.00000000000E+00 -0.00000000000E+00 -0.45593999997E+02  0.45594000000E+02  0.51100000000E-03 0.  1.
    9900012    2    1    2    0    0 -0.68124054958E+01 -0.16789153787E+02 -0.47319637366E+01  0.72461654005E+02  0.70000109048E+02 0.  0.
         12    1    1    2    0    0  0.68124054958E+01  0.16789153787E+02  0.47319637366E+01  0.18726345995E+02  0.00000000000E+00 0. -1.
         11    1    3    3    0    0  0.19263163665E+01 -0.18150886586E+02  0.47663775696E+01  0.18864880970E+02  0.51100000000E-03 0.  1.
        -11    1    3    3    0    0 -0.23373991699E+02 -0.73329273159E+01  0.11082919983E+02  0.26887663092E+02  0.51100000000E-03 0. -1.
         12    1    3    3    0    0  0.14635269836E+02  0.86946601146E+01 -0.20581261289E+02  0.26709109943E+02  0.00000000000E+00 0. -1.
</event>
<event>
 7    1  0.3196678E-013  0.7246163E+02  0.7816164E-02  0.1226708E+00
        -11   -1    0    0    0    0  0.00000000000E+00  0.00000000000E+00  0.45593999997E+02  0.45594000000E+02  0.51100000000E-03 0.  1.
         11   -1    0    0    0    0 -0.00000000000E+00 -0.00000000000E+00 -0.45593999997E+02  0.45594000000E+02  0.51100000000E-03 0. -1.
    9900012    2    1    2    0    0  0.13730757671E+02  0.73772755448E+01 -0.10378776639E+02  0.72461630752E+02  0.70000078757E+02 0.  0.
         12    1    1    2    0    0 -0.13730757671E+02 -0.73772755448E+01  0.10378776639E+02  0.18726369248E+02  0.00000000000E+00 0. -1.
         11    1    3    3    0    0  0.11332840654E+02  0.13337693770E+02  0.29514183234E+01  0.17749316121E+02  0.51100000000E-03 0. -1.
        -11    1    3    3    0    0  0.16021498031E+02  0.13209810496E+02  0.86754146538E+01  0.22504450941E+02  0.51100000000E-03 0.  1.
         12    1    3    3    0    0 -0.13623581014E+02 -0.19170228721E+02 -0.22005609616E+02  0.32207863689E+02  0.00000000000E+00 0. -1.
</event>
<event>
 7    1  0.3196678E-013  0.7246168E+02  0.7816164E-02  0.1226708E+00
        -11   -1    0    0    0    0  0.00000000000E+00  0.00000000000E+00  0.45593999997E+02  0.45594000000E+02  0.51100000000E-03 0. -1.
         11   -1    0    0    0    0 -0.00000000000E+00 -0.00000000000E+00 -0.45593999997E+02  0.45594000000E+02  0.51100000000E-03 0.  1.
    9900012    2    1    2    0    0 -0.72025807046E+01  0.95253447079E+01 -0.14424481441E+02  0.72461680942E+02  0.70000144140E+02 0.  0.
         12    1    1    2    0    0  0.72025807046E+01 -0.95253447079E+01  0.14424481441E+02  0.18726319058E+02  0.00000000000E+00 0. -1.
         11    1    3    3    0    0 -0.23179979633E+00 -0.35605734159E+00 -0.21936312875E+02  0.21940426859E+02  0.51100000000E-03 0. -1.
        -11    1    3    3    0    0 -0.22187866966E+01 -0.15989989828E+01 -0.20077627472E+02  0.20263043634E+02  0.51100000000E-03 0.  1.
         12    1    3    3    0    0 -0.47519942117E+01  0.11480401032E+02  0.27589458906E+02  0.30258210449E+02  0.00000000000E+00 0. -1.
</event>
<event>
 7    1  0.3196678E-013  0.7246156E+02  0.7816164E-02  0.1226708E+00
        -11   -1    0    0    0    0  0.00000000000E+00  0.00000000000E+00  0.45593999997E+02  0.45594000000E+02  0.51100000000E-03 0. -1.
         11   -1    0    0    0    0 -0.00000000000E+00 -0.00000000000E+00 -0.45593999997E+02  0.45594000000E+02  0.51100000000E-03 0.  1.
    9900012    2    1    2    0    0 -0.97158449499E+01  0.15630043218E+02 -0.34617166321E+01  0.72461564778E+02  0.69999992814E+02 0.  0.
         12    1    1    2    0    0  0.97158449499E+01 -0.15630043218E+02  0.34617166321E+01  0.18726435222E+02  0.00000000000E+00 0. -1.
         11    1    3    3    0    0  0.21576898148E+02  0.39161471470E+01 -0.16178931550E+02  0.27251725973E+02  0.51100000000E-03 0. -1.
        -11    1    3    3    0    0 -0.11292599629E+02 -0.14407673766E+01 -0.77027051204E+01  0.13745191285E+02  0.51100000000E-03 0.  1.
        -12    1    3    3    0    0 -0.20000143469E+02  0.13154663447E+02  0.20419920038E+02  0.31464647520E+02  0.00000000000E+00 0.  1.
</event>
<event>
 7    1  0.3196678E-013  0.7246158E+02  0.7816164E-02  0.1226708E+00
        -11   -1    0    0    0    0  0.00000000000E+00  0.00000000000E+00  0.45593999997E+02  0.45594000000E+02  0.51100000000E-03 0.  1.
         11   -1    0    0    0    0 -0.00000000000E+00 -0.00000000000E+00 -0.45593999997E+02  0.45594000000E+02  0.51100000000E-03 0. -1.
    9900012    2    1    2    0    0 -0.10859141705E+02  0.69323391663E+01  0.13590460175E+02  0.72461577687E+02  0.70000009631E+02 0.  0.
         12    1    1    2    0    0  0.10859141705E+02 -0.69323391663E+01 -0.13590460175E+02  0.18726422313E+02  0.00000000000E+00 0. -1.
         11    1    3    3    0    0 -0.62441776494E+01  0.11085715461E+02  0.46402707381E+01  0.13543077737E+02  0.51100000000E-03 0. -1.
        -11    1    3    3    0    0  0.10858134555E+02  0.23756876108E+02  0.64692820849E+01  0.26909846885E+02  0.51100000000E-03 0.  1.
        -12    1    3    3    0    0 -0.15473098610E+02 -0.27910252403E+02  0.24809073515E+01  0.32008653065E+02  0.00000000000E+00 0.  1.
</event>
<event>
 7    1  0.4548652E-013  0.7246164E+02  0.7816164E-02  0.1226708E+00
        -11   -1    0    0    0    0  0.00000000000E+00  0.00000000000E+00  0.45593999997E+02  0.45594000000E+02  0.51100000000E-03 0. -1.
         11   -1    0    0    0    0 -0.00000000000E+00 -0.00000000000E+00 -0.45593999997E+02  0.45594000000E+02  0.51100000000E-03 0.  1.
    9900012    2    1    2    0    0  0.80980094557E+01  0.48409372912E+01 -0.16176037217E+02  0.72461638606E+02  0.70000088989E+02 0.  0.
         12    1    1    2    0    0 -0.80980094557E+01 -0.48409372912E+01  0.16176037217E+02  0.18726361394E+02  0.00000000000E+00 0. -1.
         11    1    3    3    0    0  0.73959718746E+01 -0.89341494291E+01  0.63748937153E+01  0.13234753346E+02  0.51100000000E-03 0. -1.
        -11    1    3    3    0    0 -0.48563064952E+01 -0.63498610683E+00 -0.37448862562E+02  0.37767767045E+02  0.51100000000E-03 0.  1.
         12    1    3    3    0    0  0.55583440763E+01  0.14410072827E+02  0.14897931629E+02  0.21459118215E+02  0.00000000000E+00 0. -1.
</event>
<event>
 7    1  0.3196678E-013  0.7246160E+02  0.7816164E-02  0.1226708E+00
        -11   -1    0    0    0    0  0.00000000000E+00  0.00000000000E+00  0.45593999997E+02  0.45594000000E+02  0.51100000000E-03 0. -1.
         11   -1    0    0    0    0 -0.00000000000E+00 -0.00000000000E+00 -0.45593999997E+02  0.45594000000E+02  0.51100000000E-03 0.  1.
    9900012    2    1    2    0    0 -0.25827993195E+01  0.18396275271E+02 -0.23631051167E+01  0.72461599866E+02  0.70000038523E+02 0.  0.
         12    1    1    2    0    0  0.25827993195E+01 -0.18396275271E+02  0.23631051167E+01  0.18726400134E+02  0.00000000000E+00 0. -1.
         11    1    3    3    0    0 -0.23884051674E+02  0.82964657093E+00  0.13499442544E+02  0.27447608039E+02  0.51100000000E-03 0. -1.
        -11    1    3    3    0    0 -0.27756801446E+01  0.29425863080E+01 -0.16346540861E+02  0.16839614391E+02  0.51100000000E-03 0.  1.
        -12    1    3    3    0    0  0.24076932499E+02  0.14624042393E+02  0.48399320091E+00  0.28174377436E+02  0.00000000000E+00 0.  1.
</event>
<event>
 7    1  0.3196678E-013  0.7246160E+02  0.7816164E-02  0.1226708E+00
        -11   -1    0    0    0    0  0.00000000000E+00  0.00000000000E+00  0.45593999997E+02  0.45594000000E+02  0.51100000000E-03 0.  1.
         11   -1    0    0    0    0 -0.00000000000E+00 -0.00000000000E+00 -0.45593999997E+02  0.45594000000E+02  0.51100000000E-03 0. -1.
    9900012    2    1    2    0    0  0.27722922207E+01  0.13177438755E+02  0.13013367582E+02  0.72461595323E+02  0.70000032605E+02 0.  0.
         12    1    1    2    0    0 -0.27722922207E+01 -0.13177438755E+02 -0.13013367582E+02  0.18726404677E+02  0.00000000000E+00 0. -1.
         11    1    3    3    0    0  0.86135198535E+01  0.57040938060E+01 -0.17470986144E+02  0.20296915222E+02  0.51100000000E-03 0. -1.
        -11    1    3    3    0    0  0.11654095396E+02  0.17420869276E+02  0.92552983198E+01  0.22912118477E+02  0.51100000000E-03 0.  1.
        -12    1    3    3    0    0 -0.17495323029E+02 -0.99475243277E+01  0.21229055407E+02  0.29252561625E+02  0.00000000000E+00 0.  1.
</event>
<event>
 7    1  0.3196678E-013  0.7246158E+02  0.7816164E-02  0.1226708E+00
        -11   -1    0    0    0    0  0.00000000000E+00  0.00000000000E+00  0.45593999997E+02  0.45594000000E+02  0.51100000000E-03 0. -1.
         11   -1    0    0    0    0 -0.00000000000E+00 -0.00000000000E+00 -0.45593999997E+02  0.45594000000E+02  0.51100000000E-03 0.  1.
    9900012    2    1    2    0    0 -0.70504288515E+00  0.17876620564E+02 -0.55324619301E+01  0.72461580608E+02  0.70000013435E+02 0.  0.
         12    1    1    2    0    0  0.70504288515E+00 -0.17876620564E+02  0.55324619301E+01  0.18726419392E+02  0.00000000000E+00 0. -1.
         11    1    3    3    0    0  0.78924618438E+01 -0.94248499150E+01  0.15434424818E+02  0.19731705948E+02  0.51100000000E-03 0. -1.
        -11    1    3    3    0    0  0.15461238000E+02  0.11091374288E+02 -0.52657299429E+01  0.19743261538E+02  0.51100000000E-03 0.  1.
         12    1    3    3    0    0 -0.24058742729E+02  0.16210096191E+02 -0.15701156806E+02  0.32986613122E+02  0.00000000000E+00 0. -1.
</event>
<event>
 7    1  0.3196678E-013  0.7246162E+02  0.7816164E-02  0.1226708E+00
        -11   -1    0    0    0    0  0.00000000000E+00  0.00000000000E+00  0.45593999997E+02  0.45594000000E+02  0.51100000000E-03 0.  1.
         11   -1    0    0    0    0 -0.00000000000E+00 -0.00000000000E+00 -0.45593999997E+02  0.45594000000E+02  0.51100000000E-03 0. -1.
    9900012    2    1    2    0    0 -0.17198674240E+02  0.55507803484E+01 -0.49062912828E+01  0.72461621486E+02  0.70000066687E+02 0.  0.
         12    1    1    2    0    0  0.17198674240E+02 -0.55507803484E+01  0.49062912828E+01  0.18726378514E+02  0.00000000000E+00 0. -1.
         11    1    3    3    0    0 -0.45460509622E+00  0.24415924331E+02 -0.20557413139E+02  0.31921015992E+02  0.51100000000E-03 0. -1.
        -11    1    3    3    0    0  0.52563388730E+01 -0.13503745979E+02  0.37907936345E+01  0.14978330029E+02  0.51100000000E-03 0.  1.
        -12    1    3    3    0    0 -0.22000408016E+02 -0.53613980042E+01  0.11860328222E+02  0.25562275466E+02  0.00000000000E+00 0.  1.
</event>
<event>
 7    1  0.3196678E-013  0.7246153E+02  0.7816164E-02  0.1226708E+00
        -11   -1    0    0    0    0  0.00000000000E+00  0.00000000000E+00  0.45593999997E+02  0.45594000000E+02  0.51100000000E-03 0. -1.
         11   -1    0    0    0    0 -0.00000000000E+00 -0.00000000000E+00 -0.45593999997E+02  0.45594000000E+02  0.51100000000E-03 0.  1.
    9900012    2    1    2    0    0  0.92687123103E+01  0.15401526319E+02 -0.52502190058E+01  0.72461525680E+02  0.69999941882E+02 0.  0.
         12    1    1    2    0    0 -0.92687123103E+01 -0.15401526319E+02  0.52502190058E+01  0.18726474320E+02  0.00000000000E+00 0. -1.
         11    1    3    3    0    0 -0.20980410604E+02  0.25982452284E+01 -0.24444596884E+01  0.21281538732E+02  0.51100000000E-03 0. -1.
        -11    1    3    3    0    0 -0.79048700669E+01 -0.89434524944E+00 -0.67730819987E+01  0.10448036381E+02  0.51100000000E-03 0.  1.
        -12    1    3    3    0    0  0.38153992981E+02  0.13697626340E+02  0.39673226813E+01  0.40731950567E+02  0.00000000000E+00 0.  1.
</event>
<event>
 7    1  0.3196678E-013  0.7246155E+02  0.7816164E-02  0.1226708E+00
        -11   -1    0    0    0    0  0.00000000000E+00  0.00000000000E+00  0.45593999997E+02  0.45594000000E+02  0.51100000000E-03 0.  1.
         11   -1    0    0    0    0 -0.00000000000E+00 -0.00000000000E+00 -0.45593999997E+02  0.45594000000E+02  0.51100000000E-03 0. -1.
    9900012    2    1    2    0    0  0.17634568010E+02 -0.34902688405E+01 -0.52459511728E+01  0.72461548943E+02  0.69999972186E+02 0.  0.
         12    1    1    2    0    0 -0.17634568010E+02  0.34902688405E+01  0.52459511728E+01  0.18726451057E+02  0.00000000000E+00 0. -1.
         11    1    3    3    0    0  0.16449986115E+02 -0.30665849047E+02 -0.10332370285E+01  0.34814708385E+02  0.51100000000E-03 0. -1.
        -11    1    3    3    0    0 -0.81920640702E+01  0.67392636410E+00  0.27826797061E+01  0.86779834686E+01  0.51100000000E-03 0.  1.
        -12    1    3    3    0    0  0.93766459652E+01  0.26501653842E+02 -0.69953938505E+01  0.28968857089E+02  0.00000000000E+00 0.  1.
</event>
<event>
 7    1  0.3196678E-013  0.7246156E+02  0.7816164E-02  0.1226708E+00
        -11   -1    0    0    0    0  0.00000000000E+00  0.00000000000E+00  0.45593999997E+02  0.45594000000E+02  0.51100000000E-03 0.  1.
         11   -1    0    0    0    0 -0.00000000000E+00 -0.00000000000E+00 -0.45593999997E+02  0.45594000000E+02  0.51100000000E-03 0. -1.
    9900012    2    1    2    0    0 -0.14961941273E+01  0.12790606638E+01  0.18622703868E+02  0.72461556333E+02  0.69999981813E+02 0.  0.
         12    1    1    2    0    0  0.14961941273E+01 -0.12790606638E+01 -0.18622703868E+02  0.18726443667E+02  0.00000000000E+00 0. -1.
         11    1    3    3    0    0 -0.19498089371E+02  0.18314920793E+02  0.13688975200E+02  0.30049955991E+02  0.51100000000E-03 0. -1.
        -11    1    3    3    0    0 -0.38884283433E+01 -0.19171079093E+02 -0.11385315497E+01  0.19594550338E+02  0.51100000000E-03 0.  1.
        -12    1    3    3    0    0  0.21890323587E+02  0.21352189640E+01  0.60722602182E+01  0.22817050005E+02  0.00000000000E+00 0.  1.
</event>
<event>
 7    1  0.3196678E-013  0.7246155E+02  0.7816164E-02  0.1226708E+00
        -11   -1    0    0    0    0  0.00000000000E+00  0.00000000000E+00  0.45593999997E+02  0.45594000000E+02  0.51100000000E-03 0. -1.
         11   -1    0    0    0    0 -0.00000000000E+00 -0.00000000000E+00 -0.45593999997E+02  0.45594000000E+02  0.51100000000E-03 0.  1.
    9900012    2    1    2    0    0 -0.70611463139E+01  0.17307676440E+02 -0.11245201243E+01  0.72461548213E+02  0.69999971234E+02 0.  0.
         12    1    1    2    0    0  0.70611463139E+01 -0.17307676440E+02  0.11245201243E+01  0.18726451787E+02  0.00000000000E+00 0. -1.
         11    1    3    3    0    0 -0.56563212325E+01 -0.86916181847E+01  0.10584929453E+02  0.14818195853E+02  0.51100000000E-03 0. -1.
        -11    1    3    3    0    0  0.79136749040E+01 -0.12653201177E+02 -0.97669940833E+01  0.17836028824E+02  0.51100000000E-03 0.  1.
        -12    1    3    3    0    0 -0.93184999854E+01  0.38652495802E+02 -0.19424554940E+01  0.39807323536E+02  0.00000000000E+00 0.  1.
</event>
<event>
 7    1  0.3196678E-013  0.7246157E+02  0.7816164E-02  0.1226708E+00
        -11   -1    0    0    0    0  0.00000000000E+00  0.00000000000E+00  0.45593999997E+02  0.45594000000E+02  0.51100000000E-03 0. -1.
         11   -1    0    0    0    0 -0.00000000000E+00 -0.00000000000E+00 -0.45593999997E+02  0.45594000000E+02  0.51100000000E-03 0.  1.
    9900012    2    1    2    0    0 -0.14701563239E+02  0.63129777342E+01 -0.97308633163E+01  0.72461565464E+02  0.69999993708E+02 0.  0.
         12    1    1    2    0    0  0.14701563239E+02 -0.63129777342E+01  0.97308633163E+01  0.18726434536E+02  0.00000000000E+00 0. -1.
         11    1    3    3    0    0 -0.19870851891E+02 -0.38709153394E+01 -0.21976261100E+02  0.29879604961E+02  0.51100000000E-03 0. -1.
        -11    1    3    3    0    0 -0.68474379059E+01 -0.12984970567E+02  0.41341846699E+01  0.15250847505E+02  0.51100000000E-03 0.  1.
         12    1    3    3    0    0  0.12016726557E+02  0.23168863640E+02  0.81112131134E+01  0.27331112998E+02  0.00000000000E+00 0. -1.
</event>
<event>
 7    1  0.3196678E-013  0.7246158E+02  0.7816164E-02  0.1226708E+00
        -11   -1    0    0    0    0  0.00000000000E+00  0.00000000000E+00  0.45593999997E+02  0.45594000000E+02  0.51100000000E-03 0.  1.
         11   -1    0    0    0    0 -0.00000000000E+00 -0.00000000000E+00 -0.45593999997E+02  0.45594000000E+02  0.51100000000E-03 0. -1.
    9900012    2    1    2    0    0 -0.14126900787E+01  0.18166945233E+02 -0.43180007654E+01  0.72461582218E+02  0.70000015532E+02 0.  0.
         12    1    1    2    0    0  0.14126900787E+01 -0.18166945233E+02  0.43180007654E+01  0.18726417782E+02  0.00000000000E+00 0. -1.
         11    1    3    3    0    0 -0.12909329181E+02  0.99883658672E+00 -0.26940373763E+02  0.29890336117E+02  0.51100000000E-03 0. -1.
        -11    1    3    3    0    0 -0.11206590898E+01  0.15928076785E+02 -0.74642099423E+00  0.15984888221E+02  0.51100000000E-03 0.  1.
        -12    1    3    3    0    0  0.12617298192E+02  0.12400318607E+01  0.23368793992E+02  0.26586357880E+02  0.00000000000E+00 0.  1.
</event>
<event>
 7    1  0.3196678E-013  0.7246158E+02  0.7816164E-02  0.1226708E+00
        -11   -1    0    0    0    0  0.00000000000E+00  0.00000000000E+00  0.45593999997E+02  0.45594000000E+02  0.51100000000E-03 0. -1.
         11   -1    0    0    0    0 -0.00000000000E+00 -0.00000000000E+00 -0.45593999997E+02  0.45594000000E+02  0.51100000000E-03 0.  1.
    9900012    2    1    2    0    0 -0.22930912302E+00  0.50347898483E+01 -0.18035441208E+02  0.72461579331E+02  0.70000011772E+02 0.  0.
         12    1    1    2    0    0  0.22930912302E+00 -0.50347898483E+01  0.18035441208E+02  0.18726420669E+02  0.00000000000E+00 0. -1.
         11    1    3    3    0    0  0.46916335749E+01  0.76862780211E+01 -0.13240312033E+02  0.16012375165E+02  0.51100000000E-03 0. -1.
        -11    1    3    3    0    0 -0.20168584362E+02 -0.17472071545E+02 -0.17280647720E+02  0.31790971441E+02  0.51100000000E-03 0.  1.
         12    1    3    3    0    0  0.15247641664E+02  0.14820583372E+02  0.12485518545E+02  0.24658232726E+02  0.00000000000E+00 0. -1.
</event>
<event>
 7    1  0.3196678E-013  0.7246149E+02  0.7816164E-02  0.1226708E+00
        -11   -1    0    0    0    0  0.00000000000E+00  0.00000000000E+00  0.45593999997E+02  0.45594000000E+02  0.51100000000E-03 0.  1.
         11   -1    0    0    0    0 -0.00000000000E+00 -0.00000000000E+00 -0.45593999997E+02  0.45594000000E+02  0.51100000000E-03 0. -1.
    9900012    2    1    2    0    0  0.10673218749E+02 -0.14099021828E+02  0.61629747755E+01  0.72461487430E+02  0.69999892053E+02 0.  0.
         12    1    1    2    0    0 -0.10673218749E+02  0.14099021828E+02 -0.61629747755E+01  0.18726512570E+02  0.00000000000E+00 0. -1.
         11    1    3    3    0    0 -0.59698761684E+00  0.15653311807E+01 -0.91775840853E+01  0.93292392950E+01  0.51100000000E-03 0. -1.
        -11    1    3    3    0    0 -0.80481205086E+01  0.18828124918E+02  0.11313670306E+02  0.23393795496E+02  0.51100000000E-03 0.  1.
        -12    1    3    3    0    0  0.19318326874E+02 -0.34492477926E+02  0.40268885544E+01  0.39738452639E+02  0.00000000000E+00 0.  1.
</event>
<event>
 7    1  0.3196678E-013  0.7246155E+02  0.7816164E-02  0.1226708E+00
        -11   -1    0    0    0    0  0.00000000000E+00  0.00000000000E+00  0.45593999997E+02  0.45594000000E+02  0.51100000000E-03 0.  1.
         11   -1    0    0    0    0 -0.00000000000E+00 -0.00000000000E+00 -0.45593999997E+02  0.45594000000E+02  0.51100000000E-03 0. -1.
    9900012    2    1    2    0    0  0.14012978458E+02 -0.23925850324E+01 -0.12189829025E+02  0.72461549187E+02  0.69999972504E+02 0.  0.
         12    1    1    2    0    0 -0.14012978458E+02  0.23925850324E+01  0.12189829025E+02  0.18726450813E+02  0.00000000000E+00 0. -1.
         11    1    3    3    0    0 -0.15696820327E+02 -0.79788701631E+01 -0.17592658366E+02  0.24890845026E+02  0.51100000000E-03 0. -1.
        -11    1    3    3    0    0 -0.79227901469E+01 -0.23596419682E+01 -0.17475045488E+01  0.84493956197E+01  0.51100000000E-03 0.  1.
        -12    1    3    3    0    0  0.37632588932E+02  0.79459270989E+01  0.71503338900E+01  0.39121308541E+02  0.00000000000E+00 0.  1.
</event>
<event>
 7    1  0.3196678E-013  0.7246161E+02  0.7816164E-02  0.1226708E+00
        -11   -1    0    0    0    0  0.00000000000E+00  0.00000000000E+00  0.45593999997E+02  0.45594000000E+02  0.51100000000E-03 0.  1.
         11   -1    0    0    0    0 -0.00000000000E+00 -0.00000000000E+00 -0.45593999997E+02  0.45594000000E+02  0.51100000000E-03 0. -1.
    9900012    2    1    2    0    0  0.17526485279E+02 -0.33088625027E+01  0.57053932276E+01  0.72461607684E+02  0.70000048707E+02 0.  0.
         12    1    1    2    0    0 -0.17526485279E+02  0.33088625027E+01 -0.57053932276E+01  0.18726392316E+02  0.00000000000E+00 0. -1.
         11    1    3    3    0    0  0.79235997479E+01 -0.25646612078E+02 -0.51045331802E+01  0.27323769931E+02  0.51100000000E-03 0. -1.
        -11    1    3    3    0    0  0.80943357580E+01 -0.27925905730E+01  0.17156584638E+02  0.19174598566E+02  0.51100000000E-03 0.  1.
        -12    1    3    3    0    0  0.15085497727E+01  0.25130340148E+02 -0.63466582302E+01  0.25963239186E+02  0.00000000000E+00 0.  1.
</event>
<event>
 7    1  0.3196678E-013  0.7246159E+02  0.7816164E-02  0.1226708E+00
        -11   -1    0    0    0    0  0.00000000000E+00  0.00000000000E+00  0.45593999997E+02  0.45594000000E+02  0.51100000000E-03 0. -1.
         11   -1    0    0    0    0 -0.00000000000E+00 -0.00000000000E+00 -0.45593999997E+02  0.45594000000E+02  0.51100000000E-03 0.  1.
    9900012    2    1    2    0    0  0.25061248338E+01  0.10314609439E+02 -0.15427463050E+02  0.72461589620E+02  0.70000025175E+02 0.  0.
         12    1    1    2    0    0 -0.25061248338E+01 -0.10314609439E+02  0.15427463050E+02  0.18726410380E+02  0.00000000000E+00 0. -1.
         11    1    3    3    0    0 -0.75606895033E+00  0.11075103191E+02 -0.11003986386E+02  0.15630651541E+02  0.51100000000E-03 0.  1.
        -11    1    3    3    0    0  0.29169974720E+02  0.44971704137E+01  0.21411529181E+01  0.29592169622E+02  0.51100000000E-03 0. -1.
         12    1    3    3    0    0 -0.25907780936E+02 -0.52576641650E+01 -0.65646295820E+01  0.27238768457E+02  0.00000000000E+00 0. -1.
</event>
<event>
 7    1  0.3196678E-013  0.7246159E+02  0.7816164E-02  0.1226708E+00
        -11   -1    0    0    0    0  0.00000000000E+00  0.00000000000E+00  0.45593999997E+02  0.45594000000E+02  0.51100000000E-03 0. -1.
         11   -1    0    0    0    0 -0.00000000000E+00 -0.00000000000E+00 -0.45593999997E+02  0.45594000000E+02  0.51100000000E-03 0.  1.
    9900012    2    1    2    0    0 -0.74354584617E+01 -0.11427573465E+02 -0.12837560048E+02  0.72461590152E+02  0.70000025868E+02 0.  0.
         12    1    1    2    0    0  0.74354584617E+01  0.11427573465E+02  0.12837560048E+02  0.18726409848E+02  0.00000000000E+00 0. -1.
         11    1    3    3    0    0 -0.47530582552E+00 -0.12578506111E+02  0.43737731467E+01  0.13325712867E+02  0.51100000000E-03 0. -1.
        -11    1    3    3    0    0 -0.89095222579E+01 -0.25501334321E+02 -0.17896850988E+02  0.32403625022E+02  0.51100000000E-03 0.  1.
         12    1    3    3    0    0  0.19493696218E+01  0.26652266967E+02  0.68551779383E+00  0.26732252263E+02  0.00000000000E+00 0. -1.
</event>
<event>
 7    1  0.3196678E-013  0.7246156E+02  0.7816164E-02  0.1226708E+00
        -11   -1    0    0    0    0  0.00000000000E+00  0.00000000000E+00  0.45593999997E+02  0.45594000000E+02  0.51100000000E-03 0.  1.
         11   -1    0    0    0    0 -0.00000000000E+00 -0.00000000000E+00 -0.45593999997E+02  0.45594000000E+02  0.51100000000E-03 0. -1.
    9900012    2    1    2    0    0  0.15092192610E+02 -0.99268420889E+01  0.49359143736E+01  0.72461555534E+02  0.69999980772E+02 0.  0.
         12    1    1    2    0    0 -0.15092192610E+02  0.99268420889E+01 -0.49359143736E+01  0.18726444466E+02  0.00000000000E+00 0. -1.
         11    1    3    3    0    0  0.31038538347E+02 -0.13623989656E+01 -0.12063668151E+02  0.33328352542E+02  0.51100000000E-03 0. -1.
        -11    1    3    3    0    0 -0.12801480701E+02  0.89100564230E+01  0.14325914575E+02  0.21177791251E+02  0.51100000000E-03 0.  1.
        -12    1    3    3    0    0 -0.31448650363E+01 -0.17474499546E+02  0.26736679499E+01  0.17955411741E+02  0.00000000000E+00 0.  1.
</event>
<event>
 7    1  0.3196678E-013  0.7246157E+02  0.7816164E-02  0.1226708E+00
        -11   -1    0    0    0    0  0.00000000000E+00  0.00000000000E+00  0.45593999997E+02  0.45594000000E+02  0.51100000000E-03 0. -1.
         11   -1    0    0    0    0 -0.00000000000E+00 -0.00000000000E+00 -0.45593999997E+02  0.45594000000E+02  0.51100000000E-03 0.  1.
    9900012    2    1    2    0    0 -0.18706635521E+02 -0.18194387682E+00 -0.84125654758E+00  0.72461574055E+02  0.70000004899E+02 0.  0.
         12    1    1    2    0    0  0.18706635521E+02  0.18194387682E+00  0.84125654758E+00  0.18726425945E+02  0.00000000000E+00 0. -1.
         11    1    3    3    0    0 -0.12325326783E+02  0.80084777227E+00 -0.20021229038E+02  0.23524554192E+02  0.51100000000E-03 0. -1.
        -11    1    3    3    0    0 -0.37360775320E+01 -0.21855188893E+01 -0.14499838153E+02  0.15132087591E+02  0.51100000000E-03 0.  1.
        -12    1    3    3    0    0 -0.26452312061E+01  0.12027272402E+01  0.33679810644E+02  0.33804932272E+02  0.00000000000E+00 0.  1.
</event>
<event>
 7    1  0.3631646E-013  0.7246168E+02  0.7816164E-02  0.1226708E+00
        -11   -1    0    0    0    0  0.00000000000E+00  0.00000000000E+00  0.45593999997E+02  0.45594000000E+02  0.51100000000E-03 0.  1.
         11   -1    0    0    0    0 -0.00000000000E+00 -0.00000000000E+00 -0.45593999997E+02  0.45594000000E+02  0.51100000000E-03 0. -1.
    9900012    2    1    2    0    0 -0.12752192321E+02 -0.11700862596E+02 -0.71516783785E+01  0.72461679003E+02  0.70000141613E+02 0.  0.
         12    1    1    2    0    0  0.12752192321E+02  0.11700862596E+02  0.71516783785E+01  0.18726320997E+02  0.00000000000E+00 0. -1.
         11    1    3    3    0    0  0.16983084665E+01  0.11771981715E+02 -0.64519729671E+00  0.11911342702E+02  0.51100000000E-03 0.  1.
        -11    1    3    3    0    0 -0.19557086238E+02  0.98879845542E+01 -0.13965778557E+02  0.25986435532E+02  0.51100000000E-03 0. -1.
         12    1    3    3    0    0  0.51065854509E+01 -0.33360828865E+02  0.74592974756E+01  0.34563900769E+02  0.00000000000E+00 0. -1.
</event>
<event>
 7    1  0.3196678E-013  0.7246163E+02  0.7816164E-02  0.1226708E+00
        -11   -1    0    0    0    0  0.00000000000E+00  0.00000000000E+00  0.45593999997E+02  0.45594000000E+02  0.51100000000E-03 0.  1.
         11   -1    0    0    0    0 -0.00000000000E+00 -0.00000000000E+00 -0.45593999997E+02  0.45594000000E+02  0.51100000000E-03 0. -1.
    9900012    2    1    2    0    0  0.57121638595E+00  0.18667534248E+02  0.13688321798E+01  0.72461632904E+02  0.70000081561E+02 0.  0.
         12    1    1    2    0    0 -0.57121638595E+00 -0.18667534248E+02 -0.13688321798E+01  0.18726367096E+02  0.00000000000E+00 0. -1.
         11    1    3    3    0    0 -0.14520823132E+02  0.83366712085E+00  0.72675601895E-01  0.14544916201E+02  0.51100000000E-03 0. -1.
        -11    1    3    3    0    0 -0.16206949228E+02 -0.67521737029E+01 -0.32555683910E+01  0.17856533224E+02  0.51100000000E-03 0.  1.
         12    1    3    3    0    0  0.31298988745E+02  0.24586040830E+02  0.45517249688E+01  0.40060183479E+02  0.00000000000E+00 0. -1.
</event>
<event>
 7    1  0.3196678E-013  0.7246161E+02  0.7816164E-02  0.1226708E+00
        -11   -1    0    0    0    0  0.00000000000E+00  0.00000000000E+00  0.45593999997E+02  0.45594000000E+02  0.51100000000E-03 0. -1.
         11   -1    0    0    0    0 -0.00000000000E+00 -0.00000000000E+00 -0.45593999997E+02  0.45594000000E+02  0.51100000000E-03 0.  1.
    9900012    2    1    2    0    0  0.44958032826E+01 -0.12073241177E+02 -0.13590521286E+02  0.72461610372E+02  0.70000052209E+02 0.  0.
         12    1    1    2    0    0 -0.44958032826E+01  0.12073241177E+02  0.13590521286E+02  0.18726389628E+02  0.00000000000E+00 0. -1.
         11    1    3    3    0    0 -0.17132188087E+02  0.18775827718E+02 -0.11980399956E+01  0.25445606207E+02  0.51100000000E-03 0. -1.
        -11    1    3    3    0    0  0.10734226481E+02 -0.81541034834E+01  0.70460048578E+01  0.15210496589E+02  0.51100000000E-03 0.  1.
        -12    1    3    3    0    0  0.10893764889E+02 -0.22694965411E+02 -0.19438486148E+02  0.31805507577E+02  0.00000000000E+00 0.  1.
</event>
<event>
 7    1  0.3196678E-013  0.7246160E+02  0.7816164E-02  0.1226708E+00
        -11   -1    0    0    0    0  0.00000000000E+00  0.00000000000E+00  0.45593999997E+02  0.45594000000E+02  0.51100000000E-03 0.  1.
         11   -1    0    0    0    0 -0.00000000000E+00 -0.00000000000E+00 -0.45593999997E+02  0.45594000000E+02  0.51100000000E-03 0. -1.
    9900012    2    1    2    0    0  0.13246089007E+02 -0.24763624795E+00  0.13234718217E+02  0.72461602483E+02  0.70000041931E+02 0.  0.
         12    1    1    2    0    0 -0.13246089007E+02  0.24763624795E+00 -0.13234718217E+02  0.18726397517E+02  0.00000000000E+00 0. -1.
         11    1    3    3    0    0 -0.22533989965E+02 -0.65150569084E+01 -0.13475280917E+01  0.23495584744E+02  0.51100000000E-03 0. -1.
        -11    1    3    3    0    0  0.15122685126E+02  0.76024548107E+01 -0.76623094719E+01  0.18579663917E+02  0.51100000000E-03 0.  1.
        -12    1    3    3    0    0  0.20657393846E+02 -0.13350341503E+01  0.22244555780E+02  0.30386353821E+02  0.00000000000E+00 0.  1.
</event>
<event>
 7    1  0.3196678E-013  0.7246158E+02  0.7816164E-02  0.1226708E+00
        -11   -1    0    0    0    0  0.00000000000E+00  0.00000000000E+00  0.45593999997E+02  0.45594000000E+02  0.51100000000E-03 0.  1.
         11   -1    0    0    0    0 -0.00000000000E+00 -0.00000000000E+00 -0.45593999997E+02  0.45594000000E+02  0.51100000000E-03 0. -1.
    9900012    2    1    2    0    0  0.34548698597E+01  0.16690489555E+01  0.18329125012E+02  0.72461583529E+02  0.70000017240E+02 0.  0.
         12    1    1    2    0    0 -0.34548698597E+01 -0.16690489555E+01 -0.18329125012E+02  0.18726416471E+02  0.00000000000E+00 0. -1.
         11    1    3    3    0    0 -0.24709391990E+02  0.31693018670E+01 -0.85432024831E+01  0.26335998856E+02  0.51100000000E-03 0. -1.
        -11    1    3    3    0    0  0.17864338877E+01 -0.91504671770E+01  0.10941303734E+02  0.14374787764E+02  0.51100000000E-03 0.  1.
        -12    1    3    3    0    0  0.26377827962E+02  0.76502142656E+01  0.15931023761E+02  0.31750796909E+02  0.00000000000E+00 0.  1.
</event>
<event>
 7    1  0.3196678E-013  0.7246162E+02  0.7816164E-02  0.1226708E+00
        -11   -1    0    0    0    0  0.00000000000E+00  0.00000000000E+00  0.45593999997E+02  0.45594000000E+02  0.51100000000E-03 0.  1.
         11   -1    0    0    0    0 -0.00000000000E+00 -0.00000000000E+00 -0.45593999997E+02  0.45594000000E+02  0.51100000000E-03 0. -1.
    9900012    2    1    2    0    0  0.75143047254E+01  0.95581465386E+01  0.14242690426E+02  0.72461623646E+02  0.70000069501E+02 0.  0.
         12    1    1    2    0    0 -0.75143047254E+01 -0.95581465386E+01 -0.14242690426E+02  0.18726376354E+02  0.00000000000E+00 0. -1.
         11    1    3    3    0    0  0.11059055148E+02 -0.75238944021E+00 -0.21338937056E+01  0.11288148353E+02  0.51100000000E-03 0. -1.
        -11    1    3    3    0    0  0.22686672948E+02  0.14542445524E+01 -0.81859267775E+01  0.24162147135E+02  0.51100000000E-03 0.  1.
        -12    1    3    3    0    0 -0.26231423371E+02  0.88562914265E+01  0.24562510909E+02  0.37011328159E+02  0.00000000000E+00 0.  1.
</event>
<event>
 7    1  0.3196678E-013  0.7246155E+02  0.7816164E-02  0.1226708E+00
        -11   -1    0    0    0    0  0.00000000000E+00  0.00000000000E+00  0.45593999997E+02  0.45594000000E+02  0.51100000000E-03 0. -1.
         11   -1    0    0    0    0 -0.00000000000E+00 -0.00000000000E+00 -0.45593999997E+02  0.45594000000E+02  0.51100000000E-03 0.  1.
    9900012    2    1    2    0    0  0.15836391996E+02 -0.99933509326E+01 -0.14665215858E+00  0.72461551293E+02  0.69999975247E+02 0.  0.
         12    1    1    2    0    0 -0.15836391996E+02  0.99933509326E+01  0.14665215858E+00  0.18726448707E+02  0.00000000000E+00 0. -1.
         11    1    3    3    0    0 -0.10751678102E+01  0.95273426852E+00 -0.29081494255E+00  0.14656950564E+01  0.51100000000E-03 0. -1.
        -11    1    3    3    0    0  0.53861470240E+01  0.28938595135E+02 -0.11659316285E+01  0.29458653482E+02  0.51100000000E-03 0.  1.
         12    1    3    3    0    0  0.11525412782E+02 -0.39884680336E+02  0.13100944125E+01  0.41537202755E+02  0.00000000000E+00 0. -1.
</event>
<event>
 7    1  0.3196678E-013  0.7246162E+02  0.7816164E-02  0.1226708E+00
        -11   -1    0    0    0    0  0.00000000000E+00  0.00000000000E+00  0.45593999997E+02  0.45594000000E+02  0.51100000000E-03 0.  1.
         11   -1    0    0    0    0 -0.00000000000E+00 -0.00000000000E+00 -0.45593999997E+02  0.45594000000E+02  0.51100000000E-03 0. -1.
    9900012    2    1    2    0    0  0.81008623797E+01  0.91313857457E+01  0.14201102493E+02  0.72461615166E+02  0.70000058453E+02 0.  0.
         12    1    1    2    0    0 -0.81008623797E+01 -0.91313857457E+01 -0.14201102493E+02  0.18726384834E+02  0.00000000000E+00 0. -1.
         11    1    3    3    0    0 -0.80519188129E+00  0.93248912564E+01  0.26418097322E+01  0.97252809642E+01  0.51100000000E-03 0. -1.
        -11    1    3    3    0    0 -0.14250451709E+02  0.19498090473E+02  0.19813805426E+02  0.31238402516E+02  0.51100000000E-03 0.  1.
         12    1    3    3    0    0  0.23156505970E+02 -0.19691595984E+02 -0.82545126650E+01  0.31497931686E+02  0.00000000000E+00 0. -1.
</event>
<event>
 7    1  0.3196678E-013  0.7246160E+02  0.7816164E-02  0.1226708E+00
        -11   -1    0    0    0    0  0.00000000000E+00  0.00000000000E+00  0.45593999997E+02  0.45594000000E+02  0.51100000000E-03 0. -1.
         11   -1    0    0    0    0 -0.00000000000E+00 -0.00000000000E+00 -0.45593999997E+02  0.45594000000E+02  0.51100000000E-03 0.  1.
    9900012    2    1    2    0    0 -0.68898493731E+01 -0.16908903803E+02 -0.41589527244E+01  0.72461603123E+02  0.70000042766E+02 0.  0.
         12    1    1    2    0    0  0.68898493731E+01  0.16908903803E+02  0.41589527244E+01  0.18726396877E+02  0.00000000000E+00 0. -1.
         11    1    3    3    0    0  0.11851254988E+02  0.17755440272E+02 -0.13324502266E+02  0.25164464329E+02  0.51100000000E-03 0. -1.
        -11    1    3    3    0    0 -0.80726526207E+01  0.19134229570E+01  0.18242402087E+01  0.84945135439E+01  0.51100000000E-03 0.  1.
        -12    1    3    3    0    0 -0.10668451740E+02 -0.36577767033E+02  0.73413093333E+01  0.38802625251E+02  0.00000000000E+00 0.  1.
</event>
<event>
 7    1  0.3196678E-013  0.7246157E+02  0.7816164E-02  0.1226708E+00
        -11   -1    0    0    0    0  0.00000000000E+00  0.00000000000E+00  0.45593999997E+02  0.45594000000E+02  0.51100000000E-03 0.  1.
         11   -1    0    0    0    0 -0.00000000000E+00 -0.00000000000E+00 -0.45593999997E+02  0.45594000000E+02  0.51100000000E-03 0. -1.
    9900012    2    1    2    0    0 -0.61847459654E+01  0.17595945920E+02  0.16765474880E+01  0.72461569295E+02  0.69999998698E+02 0.  0.
         12    1    1    2    0    0  0.61847459654E+01 -0.17595945920E+02 -0.16765474880E+01  0.18726430705E+02  0.00000000000E+00 0. -1.
         11    1    3    3    0    0 -0.17138736841E+02  0.54519845094E+00  0.17858009372E+02  0.24757666304E+02  0.51100000000E-03 0. -1.
        -11    1    3    3    0    0  0.11587552929E+02  0.12610886751E+02  0.10869112006E+02  0.20284068713E+02  0.51100000000E-03 0.  1.
         12    1    3    3    0    0 -0.63356205317E+00  0.44398607182E+01 -0.27050573889E+02  0.27419834277E+02  0.00000000000E+00 0. -1.
</event>
<event>
 7    1  0.3196678E-013  0.7246157E+02  0.7816164E-02  0.1226708E+00
        -11   -1    0    0    0    0  0.00000000000E+00  0.00000000000E+00  0.45593999997E+02  0.45594000000E+02  0.51100000000E-03 0.  1.
         11   -1    0    0    0    0 -0.00000000000E+00 -0.00000000000E+00 -0.45593999997E+02  0.45594000000E+02  0.51100000000E-03 0. -1.
    9900012    2    1    2    0    0 -0.14536171967E+02 -0.10185107526E+02  0.59701241454E+01  0.72461572335E+02  0.70000002659E+02 0.  0.
         12    1    1    2    0    0  0.14536171967E+02  0.10185107526E+02 -0.59701241454E+01  0.18726427665E+02  0.00000000000E+00 0. -1.
         11    1    3    3    0    0 -0.10409253520E+02  0.23736686902E+01 -0.18989731009E+02  0.21785241471E+02  0.51100000000E-03 0. -1.
        -11    1    3    3    0    0 -0.19414140805E+02  0.57258683429E+01  0.12379854986E+02  0.23726677837E+02  0.51100000000E-03 0.  1.
        -12    1    3    3    0    0  0.15287222357E+02 -0.18284644559E+02  0.12580000169E+02  0.26949653027E+02  0.00000000000E+00 0.  1.
</event>
<event>
 7    1  0.3196678E-013  0.7246150E+02  0.7816164E-02  0.1226708E+00
        -11   -1    0    0    0    0  0.00000000000E+00  0.00000000000E+00  0.45593999997E+02  0.45594000000E+02  0.51100000000E-03 0. -1.
         11   -1    0    0    0    0 -0.00000000000E+00 -0.00000000000E+00 -0.45593999997E+02  0.45594000000E+02  0.51100000000E-03 0.  1.
    9900012    2    1    2    0    0 -0.26201160350E+01 -0.17731753223E+02 -0.54223396130E+01  0.72461498797E+02  0.69999906862E+02 0.  0.
         12    1    1    2    0    0  0.26201160350E+01  0.17731753223E+02  0.54223396130E+01  0.18726501203E+02  0.00000000000E+00 0. -1.
         11    1    3    3    0    0  0.72616736858E+01  0.14905071931E+02  0.16612417220E+02  0.23470523644E+02  0.51100000000E-03 0. -1.
        -11    1    3    3    0    0 -0.94476692736E+00 -0.23079501648E+01  0.61486582086E+01  0.66351500765E+01  0.51100000000E-03 0.  1.
        -12    1    3    3    0    0 -0.89370227935E+01 -0.30328874990E+02 -0.28183415041E+02  0.42355825077E+02  0.00000000000E+00 0.  1.
</event>
<event>
 7    1  0.3196678E-013  0.7246166E+02  0.7816164E-02  0.1226708E+00
        -11   -1    0    0    0    0  0.00000000000E+00  0.00000000000E+00  0.45593999997E+02  0.45594000000E+02  0.51100000000E-03 0. -1.
         11   -1    0    0    0    0 -0.00000000000E+00 -0.00000000000E+00 -0.45593999997E+02  0.45594000000E+02  0.51100000000E-03 0.  1.
    9900012    2    1    2    0    0 -0.14681309843E+00  0.89698332199E+01 -0.16437654282E+02  0.72461656513E+02  0.70000112316E+02 0.  0.
         12    1    1    2    0    0  0.14681309843E+00 -0.89698332199E+01  0.16437654282E+02  0.18726343487E+02  0.00000000000E+00 0. -1.
         11    1    3    3    0    0  0.43680311266E+01 -0.14015177028E+02 -0.97070644517E+01  0.17599204061E+02  0.51100000000E-03 0. -1.
        -11    1    3    3    0    0  0.17716382988E+02  0.97061111782E+01  0.11452023362E+02  0.23221276014E+02  0.51100000000E-03 0.  1.
        -12    1    3    3    0    0 -0.22231227213E+02  0.13278899070E+02 -0.18182613192E+02  0.31641176438E+02  0.00000000000E+00 0.  1.
</event>
<event>
 7    1  0.3669150E-013  0.7246160E+02  0.7816164E-02  0.1226708E+00
        -11   -1    0    0    0    0  0.00000000000E+00  0.00000000000E+00  0.45593999997E+02  0.45594000000E+02  0.51100000000E-03 0.  1.
         11   -1    0    0    0    0 -0.00000000000E+00 -0.00000000000E+00 -0.45593999997E+02  0.45594000000E+02  0.51100000000E-03 0. -1.
    9900012    2    1    2    0    0  0.16567195408E+02 -0.59528858390E+00  0.87092946757E+01  0.72461597624E+02  0.70000035602E+02 0.  0.
         12    1    1    2    0    0 -0.16567195408E+02  0.59528858390E+00 -0.87092946757E+01  0.18726402376E+02  0.00000000000E+00 0. -1.
         11    1    3    3    0    0 -0.17467311243E+01 -0.11718654259E+02 -0.52365599664E+01  0.12953744162E+02  0.51100000000E-03 0. -1.
        -11    1    3    3    0    0 -0.15771387134E+02  0.11186271851E+02  0.16372375724E+02  0.25336219473E+02  0.51100000000E-03 0.  1.
         12    1    3    3    0    0  0.34085313667E+02 -0.62906176023E-01 -0.24265210821E+01  0.34171633989E+02  0.00000000000E+00 0. -1.
</event>
<event>
 7    1  0.3196678E-013  0.7246152E+02  0.7816164E-02  0.1226708E+00
        -11   -1    0    0    0    0  0.00000000000E+00  0.00000000000E+00  0.45593999997E+02  0.45594000000E+02  0.51100000000E-03 0. -1.
         11   -1    0    0    0    0 -0.00000000000E+00 -0.00000000000E+00 -0.45593999997E+02  0.45594000000E+02  0.51100000000E-03 0.  1.
    9900012    2    1    2    0    0  0.13049969451E+02 -0.12231149833E+02 -0.55478055463E+01  0.72461524750E+02  0.69999940670E+02 0.  0.
         12    1    1    2    0    0 -0.13049969451E+02  0.12231149833E+02  0.55478055463E+01  0.18726475250E+02  0.00000000000E+00 0. -1.
         11    1    3    3    0    0  0.18216666184E+01 -0.98083998236E+01  0.70864315071E+01  0.12236857772E+02  0.51100000000E-03 0. -1.
        -11    1    3    3    0    0 -0.78371998180E+01 -0.10126950131E+02 -0.30439937717E+02  0.33023728263E+02  0.51100000000E-03 0.  1.
         12    1    3    3    0    0  0.19065502650E+02  0.77042001219E+01  0.17805700663E+02  0.27200938714E+02  0.00000000000E+00 0. -1.
</event>
<event>
 7    1  0.3196678E-013  0.7246157E+02  0.7816164E-02  0.1226708E+00
        -11   -1    0    0    0    0  0.00000000000E+00  0.00000000000E+00  0.45593999997E+02  0.45594000000E+02  0.51100000000E-03 0.  1.
         11   -1    0    0    0    0 -0.00000000000E+00 -0.00000000000E+00 -0.45593999997E+02  0.45594000000E+02  0.51100000000E-03 0. -1.
    9900012    2    1    2    0    0 -0.14896251081E+00  0.53947837245E+01  0.17931902682E+02  0.72461574419E+02  0.70000005373E+02 0.  0.
         12    1    1    2    0    0  0.14896251081E+00 -0.53947837245E+01 -0.17931902682E+02  0.18726425581E+02  0.00000000000E+00 0. -1.
         11    1    3    3    0    0 -0.10190312414E+02 -0.80188914350E+00  0.94812733708E+01  0.13942024182E+02  0.51100000000E-03 0. -1.
        -11    1    3    3    0    0 -0.21969628027E+02 -0.47362099306E+01  0.10129069584E+02  0.24651456165E+02  0.51100000000E-03 0.  1.
         12    1    3    3    0    0  0.32010977930E+02  0.10932882799E+02 -0.16784402728E+01  0.33868094072E+02  0.00000000000E+00 0. -1.
</event>
<event>
 7    1  0.3196678E-013  0.7246158E+02  0.7816164E-02  0.1226708E+00
        -11   -1    0    0    0    0  0.00000000000E+00  0.00000000000E+00  0.45593999997E+02  0.45594000000E+02  0.51100000000E-03 0. -1.
         11   -1    0    0    0    0 -0.00000000000E+00 -0.00000000000E+00 -0.45593999997E+02  0.45594000000E+02  0.51100000000E-03 0.  1.
    9900012    2    1    2    0    0 -0.12667057563E+02 -0.90172723557E+01 -0.10436152648E+02  0.72461579356E+02  0.70000011804E+02 0.  0.
         12    1    1    2    0    0  0.12667057563E+02  0.90172723557E+01  0.10436152648E+02  0.18726420644E+02  0.00000000000E+00 0. -1.
         11    1    3    3    0    0 -0.13494836020E+02 -0.22174740744E+02  0.10768539321E+02  0.28103223403E+02  0.51100000000E-03 0. -1.
        -11    1    3    3    0    0 -0.79945337020E+01 -0.92857035809E+01 -0.98285088928E-02  0.12253038683E+02  0.51100000000E-03 0.  1.
        -12    1    3    3    0    0  0.88223121594E+01  0.22443171969E+02 -0.21194863461E+02  0.32105317270E+02  0.00000000000E+00 0.  1.
</event>
<event>
 7    1  0.3196678E-013  0.7246157E+02  0.7816164E-02  0.1226708E+00
        -11   -1    0    0    0    0  0.00000000000E+00  0.00000000000E+00  0.45593999997E+02  0.45594000000E+02  0.51100000000E-03 0.  1.
         11   -1    0    0    0    0 -0.00000000000E+00 -0.00000000000E+00 -0.45593999997E+02  0.45594000000E+02  0.51100000000E-03 0. -1.
    9900012    2    1    2    0    0  0.86760700344E+01  0.12497011035E+02  0.10919230638E+02  0.72461572851E+02  0.70000003331E+02 0.  0.
         12    1    1    2    0    0 -0.86760700344E+01 -0.12497011035E+02 -0.10919230638E+02  0.18726427149E+02  0.00000000000E+00 0. -1.
         11    1    3    3    0    0  0.17071656878E+02 -0.15013057721E+01 -0.26266681678E+00  0.17139556053E+02  0.51100000000E-03 0. -1.
        -11    1    3    3    0    0 -0.13461642944E+01  0.19524686738E+02  0.29227904699E+02  0.35175218036E+02  0.51100000000E-03 0.  1.
         12    1    3    3    0    0 -0.70494225489E+01 -0.55263699317E+01 -0.18046007245E+02  0.20146798762E+02  0.00000000000E+00 0. -1.
</event>
<event>
 7    1  0.3196678E-013  0.7246160E+02  0.7816164E-02  0.1226708E+00
        -11   -1    0    0    0    0  0.00000000000E+00  0.00000000000E+00  0.45593999997E+02  0.45594000000E+02  0.51100000000E-03 0. -1.
         11   -1    0    0    0    0 -0.00000000000E+00 -0.00000000000E+00 -0.45593999997E+02  0.45594000000E+02  0.51100000000E-03 0.  1.
    9900012    2    1    2    0    0  0.48582056356E+01 -0.57518152452E+01 -0.17146213415E+02  0.72461596846E+02  0.70000034588E+02 0.  0.
         12    1    1    2    0    0 -0.48582056356E+01  0.57518152452E+01  0.17146213415E+02  0.18726403154E+02  0.00000000000E+00 0. -1.
         11    1    3    3    0    0  0.10027027111E+02  0.67313169364E+01 -0.86084638104E+00  0.12107557852E+02  0.51100000000E-03 0. -1.
        -11    1    3    3    0    0  0.33783612899E+01 -0.33647609691E+02 -0.30135156302E+01  0.33950791444E+02  0.51100000000E-03 0.  1.
         12    1    3    3    0    0 -0.85471827658E+01  0.21164477510E+02 -0.13271851404E+02  0.26403247550E+02  0.00000000000E+00 0. -1.
</event>
<event>
 7    1  0.3196678E-013  0.7246158E+02  0.7816164E-02  0.1226708E+00
        -11   -1    0    0    0    0  0.00000000000E+00  0.00000000000E+00  0.45593999997E+02  0.45594000000E+02  0.51100000000E-03 0. -1.
         11   -1    0    0    0    0 -0.00000000000E+00 -0.00000000000E+00 -0.45593999997E+02  0.45594000000E+02  0.51100000000E-03 0.  1.
    9900012    2    1    2    0    0 -0.12089453868E+02 -0.91279167182E+01  0.11009310106E+02  0.72461583699E+02  0.70000017462E+02 0.  0.
         12    1    1    2    0    0  0.12089453868E+02  0.91279167182E+01 -0.11009310106E+02  0.18726416301E+02  0.00000000000E+00 0. -1.
         11    1    3    3    0    0 -0.35204214274E+01 -0.13549464306E+02 -0.20098233830E+00  0.14000776556E+02  0.51100000000E-03 0. -1.
        -11    1    3    3    0    0 -0.12219405380E+01 -0.26024504985E+02  0.48059654782E+01  0.26492740568E+02  0.51100000000E-03 0.  1.
         12    1    3    3    0    0 -0.73470919029E+01  0.30446052572E+02  0.64043269666E+01  0.31968066575E+02  0.00000000000E+00 0. -1.
</event>
<event>
 7    1  0.3196678E-013  0.7246159E+02  0.7816164E-02  0.1226708E+00
        -11   -1    0    0    0    0  0.00000000000E+00  0.00000000000E+00  0.45593999997E+02  0.45594000000E+02  0.51100000000E-03 0.  1.
         11   -1    0    0    0    0 -0.00000000000E+00 -0.00000000000E+00 -0.45593999997E+02  0.45594000000E+02  0.51100000000E-03 0. -1.
    9900012    2    1    2    0    0  0.14245084917E+01 -0.18072223756E+02  0.46950875083E+01  0.72461592372E+02  0.70000028760E+02 0.  0.
         12    1    1    2    0    0 -0.14245084917E+01  0.18072223756E+02 -0.46950875083E+01  0.18726407628E+02  0.00000000000E+00 0. -1.
         11    1    3    3    0    0  0.41823071464E+01 -0.80812352788E+00  0.20461610683E+02  0.20900293508E+02  0.51100000000E-03 0. -1.
        -11    1    3    3    0    0 -0.13897422605E+02 -0.22550886467E+02  0.54291658156E+01  0.27039908972E+02  0.51100000000E-03 0.  1.
         12    1    3    3    0    0  0.11139623950E+02  0.52867862381E+01 -0.21195688990E+02  0.24521389892E+02  0.00000000000E+00 0. -1.
</event>
<event>
 7    1  0.3196678E-013  0.7246159E+02  0.7816164E-02  0.1226708E+00
        -11   -1    0    0    0    0  0.00000000000E+00  0.00000000000E+00  0.45593999997E+02  0.45594000000E+02  0.51100000000E-03 0.  1.
         11   -1    0    0    0    0 -0.00000000000E+00 -0.00000000000E+00 -0.45593999997E+02  0.45594000000E+02  0.51100000000E-03 0. -1.
    9900012    2    1    2    0    0 -0.60913086058E+01 -0.82807589579E+01  0.15652585771E+02  0.72461589485E+02  0.70000025000E+02 0.  0.
         12    1    1    2    0    0  0.60913086058E+01  0.82807589579E+01 -0.15652585771E+02  0.18726410515E+02  0.00000000000E+00 0. -1.
         11    1    3    3    0    0 -0.63474818780E+01 -0.92438795865E+01  0.18088110125E+02  0.21281906967E+02  0.51100000000E-03 0. -1.
        -11    1    3    3    0    0 -0.18688569358E+02 -0.90977331666E+01 -0.15620824487E+02  0.26000798667E+02  0.51100000000E-03 0.  1.
         12    1    3    3    0    0  0.18944742630E+02  0.10060853795E+02  0.13185300132E+02  0.25178883851E+02  0.00000000000E+00 0. -1.
</event>
<event>
 7    1  0.3219016E-013  0.7246167E+02  0.7816164E-02  0.1226708E+00
        -11   -1    0    0    0    0  0.00000000000E+00  0.00000000000E+00  0.45593999997E+02  0.45594000000E+02  0.51100000000E-03 0. -1.
         11   -1    0    0    0    0 -0.00000000000E+00 -0.00000000000E+00 -0.45593999997E+02  0.45594000000E+02  0.51100000000E-03 0.  1.
    9900012    2    1    2    0    0 -0.12979216266E+02 -0.24477370850E+01 -0.13274932148E+02  0.72461673739E+02  0.70000134755E+02 0.  0.
         12    1    1    2    0    0  0.12979216266E+02  0.24477370850E+01  0.13274932148E+02  0.18726326261E+02  0.00000000000E+00 0. -1.
         11    1    3    3    0    0  0.62320434165E+01  0.59317681805E+01  0.64351646195E+01  0.10744095254E+02  0.51100000000E-03 0. -1.
        -11    1    3    3    0    0 -0.36499113919E+02 -0.12441037293E+02 -0.54544804705E+01  0.38945039264E+02  0.51100000000E-03 0.  1.
         12    1    3    3    0    0  0.17287854237E+02  0.40615320278E+01 -0.14255616297E+02  0.22772539220E+02  0.00000000000E+00 0. -1.
</event>
<event>
 7    1  0.3196678E-013  0.7246173E+02  0.7816164E-02  0.1226708E+00
        -11   -1    0    0    0    0  0.00000000000E+00  0.00000000000E+00  0.45593999997E+02  0.45594000000E+02  0.51100000000E-03 0.  1.
         11   -1    0    0    0    0 -0.00000000000E+00 -0.00000000000E+00 -0.45593999997E+02  0.45594000000E+02  0.51100000000E-03 0. -1.
    9900012    2    1    2    0    0 -0.16997780795E+02 -0.59277200914E+01  0.51585518226E+01  0.72461733037E+02  0.70000212003E+02 0.  0.
         12    1    1    2    0    0  0.16997780795E+02  0.59277200914E+01 -0.51585518226E+01  0.18726266963E+02  0.00000000000E+00 0. -1.
         11    1    3    3    0    0 -0.13919467927E+02  0.12455479604E+01 -0.44289759626E+01  0.14660109325E+02  0.51100000000E-03 0. -1.
        -11    1    3    3    0    0  0.11879646128E+00 -0.30332045332E+02 -0.42598468040E+01  0.30629942568E+02  0.51100000000E-03 0.  1.
         12    1    3    3    0    0 -0.31971093295E+01  0.23158777281E+02  0.13847374589E+02  0.27171681144E+02  0.00000000000E+00 0. -1.
</event>
<event>
 7    1  0.3196678E-013  0.7246156E+02  0.7816164E-02  0.1226708E+00
        -11   -1    0    0    0    0  0.00000000000E+00  0.00000000000E+00  0.45593999997E+02  0.45594000000E+02  0.51100000000E-03 0.  1.
         11   -1    0    0    0    0 -0.00000000000E+00 -0.00000000000E+00 -0.45593999997E+02  0.45594000000E+02  0.51100000000E-03 0. -1.
    9900012    2    1    2    0    0  0.17610619716E+02  0.28973150031E+01  0.56701860649E+01  0.72461564915E+02  0.69999992992E+02 0.  0.
         12    1    1    2    0    0 -0.17610619716E+02 -0.28973150031E+01 -0.56701860649E+01  0.18726435085E+02  0.00000000000E+00 0. -1.
         11    1    3    3    0    0  0.86571464102E+01 -0.51013359136E+00 -0.51995984642E+01  0.10111490726E+02  0.51100000000E-03 0. -1.
        -11    1    3    3    0    0  0.70083057364E+01  0.29369999418E+02  0.18259560121E+02  0.35286325272E+02  0.51100000000E-03 0.  1.
         12    1    3    3    0    0  0.19451675690E+01 -0.25962550824E+02 -0.73897755918E+01  0.27063748917E+02  0.00000000000E+00 0. -1.
</event>
<event>
 7    1  0.3196678E-013  0.7246158E+02  0.7816164E-02  0.1226708E+00
        -11   -1    0    0    0    0  0.00000000000E+00  0.00000000000E+00  0.45593999997E+02  0.45594000000E+02  0.51100000000E-03 0.  1.
         11   -1    0    0    0    0 -0.00000000000E+00 -0.00000000000E+00 -0.45593999997E+02  0.45594000000E+02  0.51100000000E-03 0. -1.
    9900012    2    1    2    0    0  0.52244003997E+01 -0.16173753923E+02  0.78609240117E+01  0.72461580112E+02  0.70000012790E+02 0.  0.
         12    1    1    2    0    0 -0.52244003997E+01  0.16173753923E+02 -0.78609240117E+01  0.18726419888E+02  0.00000000000E+00 0. -1.
         11    1    3    3    0    0 -0.95301811664E+01 -0.53767613468E+01  0.18417669365E+02  0.21422989072E+02  0.51100000000E-03 0. -1.
        -11    1    3    3    0    0  0.43938547802E+01  0.95345911395E+01  0.14011223110E+02  0.17507962798E+02  0.51100000000E-03 0.  1.
         12    1    3    3    0    0  0.10360726786E+02 -0.20331583715E+02 -0.24567968464E+02  0.33530628243E+02  0.00000000000E+00 0. -1.
</event>
<event>
 7    1  0.3196678E-013  0.7246157E+02  0.7816164E-02  0.1226708E+00
        -11   -1    0    0    0    0  0.00000000000E+00  0.00000000000E+00  0.45593999997E+02  0.45594000000E+02  0.51100000000E-03 0.  1.
         11   -1    0    0    0    0 -0.00000000000E+00 -0.00000000000E+00 -0.45593999997E+02  0.45594000000E+02  0.51100000000E-03 0. -1.
    9900012    2    1    2    0    0 -0.16497565347E+02 -0.64497779648E+01 -0.60753520655E+01  0.72461569457E+02  0.69999998909E+02 0.  0.
         12    1    1    2    0    0  0.16497565347E+02  0.64497779648E+01  0.60753520655E+01  0.18726430543E+02  0.00000000000E+00 0. -1.
         11    1    3    3    0    0  0.10606492197E+02 -0.12910319457E+01 -0.87884096115E+01  0.13834759989E+02  0.51100000000E-03 0. -1.
        -11    1    3    3    0    0  0.15307867808E+02 -0.41006636042E+01 -0.18580242852E+01  0.15956143436E+02  0.51100000000E-03 0.  1.
        -12    1    3    3    0    0 -0.42411925352E+02 -0.10580824149E+01  0.45710818312E+01  0.42670666032E+02  0.00000000000E+00 0.  1.
</event>
<event>
 7    1  0.3196678E-013  0.7246158E+02  0.7816164E-02  0.1226708E+00
        -11   -1    0    0    0    0  0.00000000000E+00  0.00000000000E+00  0.45593999997E+02  0.45594000000E+02  0.51100000000E-03 0. -1.
         11   -1    0    0    0    0 -0.00000000000E+00 -0.00000000000E+00 -0.45593999997E+02  0.45594000000E+02  0.51100000000E-03 0.  1.
    9900012    2    1    2    0    0  0.99833864955E+01  0.87019160658E+01  0.13239616906E+02  0.72461580028E+02  0.70000012681E+02 0.  0.
         12    1    1    2    0    0 -0.99833864955E+01 -0.87019160658E+01 -0.13239616906E+02  0.18726419972E+02  0.00000000000E+00 0. -1.
         11    1    3    3    0    0  0.65686673007E+01  0.90200988442E+01  0.81457915999E+01  0.13815335476E+02  0.51100000000E-03 0.  1.
        -11    1    3    3    0    0  0.41428160430E+00  0.23337875864E+02  0.19818916701E+02  0.30620541121E+02  0.51100000000E-03 0. -1.
        -12    1    3    3    0    0  0.30004375905E+01 -0.23656058642E+02 -0.14725091395E+02  0.28025703431E+02  0.00000000000E+00 0.  1.
</event>
<event>
 7    1  0.3196678E-013  0.7246150E+02  0.7816164E-02  0.1226708E+00
        -11   -1    0    0    0    0  0.00000000000E+00  0.00000000000E+00  0.45593999997E+02  0.45594000000E+02  0.51100000000E-03 0. -1.
         11   -1    0    0    0    0 -0.00000000000E+00 -0.00000000000E+00 -0.45593999997E+02  0.45594000000E+02  0.51100000000E-03 0.  1.
    9900012    2    1    2    0    0  0.58336731810E+01 -0.96034777058E+01 -0.14980764259E+02  0.72461499403E+02  0.69999907650E+02 0.  0.
         12    1    1    2    0    0 -0.58336731810E+01  0.96034777058E+01  0.14980764259E+02  0.18726500597E+02  0.00000000000E+00 0. -1.
         11    1    3    3    0    0  0.22705129937E+01  0.15281267325E+02 -0.68600104045E+01  0.16903612138E+02  0.51100000000E-03 0. -1.
        -11    1    3    3    0    0 -0.14767288027E+02 -0.13453297578E+02 -0.22128023180E+02  0.29811296878E+02  0.51100000000E-03 0.  1.
        -12    1    3    3    0    0  0.18330448214E+02 -0.11431447452E+02  0.14007269326E+02  0.25746590387E+02  0.00000000000E+00 0.  1.
</event>
<event>
 7    1  0.3196678E-013  0.7246154E+02  0.7816164E-02  0.1226708E+00
        -11   -1    0    0    0    0  0.00000000000E+00  0.00000000000E+00  0.45593999997E+02  0.45594000000E+02  0.51100000000E-03 0.  1.
         11   -1    0    0    0    0 -0.00000000000E+00 -0.00000000000E+00 -0.45593999997E+02  0.45594000000E+02  0.51100000000E-03 0. -1.
    9900012    2    1    2    0    0  0.84874163294E+01 -0.11589801098E+02  0.12013344480E+02  0.72461543554E+02  0.69999965166E+02 0.  0.
         12    1    1    2    0    0 -0.84874163294E+01  0.11589801098E+02 -0.12013344480E+02  0.18726456446E+02  0.00000000000E+00 0. -1.
         11    1    3    3    0    0 -0.15748103491E+02  0.67197675278E+01  0.17704984342E+02  0.24629748476E+02  0.51100000000E-03 0. -1.
        -11    1    3    3    0    0 -0.43097371922E+01 -0.72623420043E+00  0.99266435378E+01  0.10846174578E+02  0.51100000000E-03 0.  1.
        -12    1    3    3    0    0  0.28545257012E+02 -0.17583334425E+02 -0.15618283400E+02  0.36985620500E+02  0.00000000000E+00 0.  1.
</event>
<event>
 7    1  0.3196678E-013  0.7246155E+02  0.7816164E-02  0.1226708E+00
        -11   -1    0    0    0    0  0.00000000000E+00  0.00000000000E+00  0.45593999997E+02  0.45594000000E+02  0.51100000000E-03 0.  1.
         11   -1    0    0    0    0 -0.00000000000E+00 -0.00000000000E+00 -0.45593999997E+02  0.45594000000E+02  0.51100000000E-03 0. -1.
    9900012    2    1    2    0    0 -0.10967845220E+02 -0.14285331168E+02  0.51298709715E+01  0.72461551016E+02  0.69999974886E+02 0.  0.
         12    1    1    2    0    0  0.10967845220E+02  0.14285331168E+02 -0.51298709715E+01  0.18726448984E+02  0.00000000000E+00 0. -1.
         11    1    3    3    0    0  0.12441911423E+00  0.73614906296E+01 -0.11555522923E+02  0.13701720136E+02  0.51100000000E-03 0. -1.
        -11    1    3    3    0    0  0.80907587731E+01  0.11716833460E+02  0.14331775296E+02  0.20202582687E+02  0.51100000000E-03 0.  1.
        -12    1    3    3    0    0 -0.19183023108E+02 -0.33363655257E+02  0.23536185981E+01  0.38557248193E+02  0.00000000000E+00 0.  1.
</event>
<event>
 7    1  0.3196678E-013  0.7246155E+02  0.7816164E-02  0.1226708E+00
        -11   -1    0    0    0    0  0.00000000000E+00  0.00000000000E+00  0.45593999997E+02  0.45594000000E+02  0.51100000000E-03 0.  1.
         11   -1    0    0    0    0 -0.00000000000E+00 -0.00000000000E+00 -0.45593999997E+02  0.45594000000E+02  0.51100000000E-03 0. -1.
    9900012    2    1    2    0    0 -0.12919494162E+01 -0.18490603777E+02  0.26661796073E+01  0.72461546117E+02  0.69999968504E+02 0.  0.
         12    1    1    2    0    0  0.12919494162E+01  0.18490603777E+02 -0.26661796073E+01  0.18726453883E+02  0.00000000000E+00 0. -1.
         11    1    3    3    0    0  0.65502305968E+01 -0.16613780169E+01 -0.10958379235E+02  0.12874462067E+02  0.51100000000E-03 0. -1.
        -11    1    3    3    0    0 -0.31182081471E+02 -0.10981916683E+02  0.27227580360E+01  0.33171344720E+02  0.51100000000E-03 0.  1.
         12    1    3    3    0    0  0.23339901458E+02 -0.58473090775E+01  0.10901800807E+02  0.26415739330E+02  0.00000000000E+00 0. -1.
</event>
<event>
 7    1  0.3196678E-013  0.7246161E+02  0.7816164E-02  0.1226708E+00
        -11   -1    0    0    0    0  0.00000000000E+00  0.00000000000E+00  0.45593999997E+02  0.45594000000E+02  0.51100000000E-03 0.  1.
         11   -1    0    0    0    0 -0.00000000000E+00 -0.00000000000E+00 -0.45593999997E+02  0.45594000000E+02  0.51100000000E-03 0. -1.
    9900012    2    1    2    0    0 -0.67267792720E+01 -0.15963630857E+02  0.71126961871E+01  0.72461614429E+02  0.70000057494E+02 0.  0.
         12    1    1    2    0    0  0.67267792720E+01  0.15963630857E+02 -0.71126961871E+01  0.18726385571E+02  0.00000000000E+00 0. -1.
         11    1    3    3    0    0 -0.46220359410E+01 -0.35757220748E+01 -0.30766537347E+01  0.66041504420E+01  0.51100000000E-03 0. -1.
        -11    1    3    3    0    0 -0.14698199034E+02  0.13422513872E+02  0.26257356921E+02  0.32949199174E+02  0.51100000000E-03 0.  1.
         12    1    3    3    0    0  0.12593455703E+02 -0.25810422653E+02 -0.16068006999E+02  0.32908264813E+02  0.00000000000E+00 0. -1.
</event>
<event>
 7    1  0.3196678E-013  0.7246168E+02  0.7816164E-02  0.1226708E+00
        -11   -1    0    0    0    0  0.00000000000E+00  0.00000000000E+00  0.45593999997E+02  0.45594000000E+02  0.51100000000E-03 0.  1.
         11   -1    0    0    0    0 -0.00000000000E+00 -0.00000000000E+00 -0.45593999997E+02  0.45594000000E+02  0.51100000000E-03 0. -1.
    9900012    2    1    2    0    0 -0.86730739672E+01  0.67199457706E+01  0.15175484136E+02  0.72461676230E+02  0.70000138000E+02 0.  0.
         12    1    1    2    0    0  0.86730739672E+01 -0.67199457706E+01 -0.15175484136E+02  0.18726323770E+02  0.00000000000E+00 0. -1.
         11    1    3    3    0    0  0.59815249019E+01 -0.17203567491E+02  0.10279010584E+02  0.20914096524E+02  0.51100000000E-03 0. -1.
        -11    1    3    3    0    0 -0.12218546886E+02 -0.87697829808E+01  0.10426316193E+02  0.18300547837E+02  0.51100000000E-03 0.  1.
         12    1    3    3    0    0 -0.24360519832E+01  0.32693296242E+02 -0.55298426410E+01  0.33247031869E+02  0.00000000000E+00 0. -1.
</event>
<event>
 7    1  0.3196678E-013  0.7246155E+02  0.7816164E-02  0.1226708E+00
        -11   -1    0    0    0    0  0.00000000000E+00  0.00000000000E+00  0.45593999997E+02  0.45594000000E+02  0.51100000000E-03 0.  1.
         11   -1    0    0    0    0 -0.00000000000E+00 -0.00000000000E+00 -0.45593999997E+02  0.45594000000E+02  0.51100000000E-03 0. -1.
    9900012    2    1    2    0    0  0.52422180790E+01 -0.16666074844E+02  0.67410080662E+01  0.72461545695E+02  0.69999967955E+02 0.  0.
         12    1    1    2    0    0 -0.52422180790E+01  0.16666074844E+02 -0.67410080662E+01  0.18726454305E+02  0.00000000000E+00 0. -1.
         11    1    3    3    0    0 -0.15810081429E+02 -0.11913553212E+02 -0.14602323256E+02  0.24599172134E+02  0.51100000000E-03 0. -1.
        -11    1    3    3    0    0  0.10182272685E+02 -0.59162157339E+01 -0.95054140662E+01  0.15133842290E+02  0.51100000000E-03 0.  1.
        -12    1    3    3    0    0  0.10870026823E+02  0.11636941025E+01  0.30848745388E+02  0.32728531271E+02  0.00000000000E+00 0.  1.
</event>
<event>
 7    1  0.3196678E-013  0.7246156E+02  0.7816164E-02  0.1226708E+00
        -11   -1    0    0    0    0  0.00000000000E+00  0.00000000000E+00  0.45593999997E+02  0.45594000000E+02  0.51100000000E-03 0. -1.
         11   -1    0    0    0    0 -0.00000000000E+00 -0.00000000000E+00 -0.45593999997E+02  0.45594000000E+02  0.51100000000E-03 0.  1.
    9900012    2    1    2    0    0  0.10564076052E+02  0.94935420249E-01 -0.15461920971E+02  0.72461555711E+02  0.69999981003E+02 0.  0.
         12    1    1    2    0    0 -0.10564076052E+02 -0.94935420249E-01  0.15461920971E+02  0.18726444289E+02  0.00000000000E+00 0. -1.
         11    1    3    3    0    0 -0.45821320714E+01  0.57842906193E+01  0.47342710176E+01  0.87673983950E+01  0.51100000000E-03 0. -1.
        -11    1    3    3    0    0 -0.85536475970E+01 -0.19632186520E+01 -0.34610587916E+02  0.35705908627E+02  0.51100000000E-03 0.  1.
         12    1    3    3    0    0  0.23699855721E+02 -0.37261365470E+01  0.14414395927E+02  0.27988248689E+02  0.00000000000E+00 0. -1.
</event>
<event>
 7    1  0.3196678E-013  0.7246159E+02  0.7816164E-02  0.1226708E+00
        -11   -1    0    0    0    0  0.00000000000E+00  0.00000000000E+00  0.45593999997E+02  0.45594000000E+02  0.51100000000E-03 0.  1.
         11   -1    0    0    0    0 -0.00000000000E+00 -0.00000000000E+00 -0.45593999997E+02  0.45594000000E+02  0.51100000000E-03 0. -1.
    9900012    2    1    2    0    0 -0.18222062982E+02 -0.43163864986E+01 -0.60694403659E-01  0.72461589358E+02  0.70000024834E+02 0.  0.
         12    1    1    2    0    0  0.18222062982E+02  0.43163864986E+01  0.60694403659E-01  0.18726410642E+02  0.00000000000E+00 0. -1.
         11    1    3    3    0    0  0.64548793456E+01 -0.43270575722E+00 -0.85783305056E+01  0.10744322043E+02  0.51100000000E-03 0. -1.
        -11    1    3    3    0    0 -0.10954424844E+02  0.25555450271E+02 -0.11519322313E+01  0.27828176554E+02  0.51100000000E-03 0.  1.
         12    1    3    3    0    0 -0.13722517483E+02 -0.29439131012E+02  0.96695683333E+01  0.33889090761E+02  0.00000000000E+00 0. -1.
</event>
<event>
 7    1  0.3196678E-013  0.7246124E+02  0.7816164E-02  0.1226709E+00
        -11   -1    0    0    0    0  0.00000000000E+00  0.00000000000E+00  0.45593999997E+02  0.45594000000E+02  0.51100000000E-03 0. -1.
         11   -1    0    0    0    0 -0.00000000000E+00 -0.00000000000E+00 -0.45593999997E+02  0.45594000000E+02  0.51100000000E-03 0.  1.
    9900012    2    1    2    0    0 -0.71609610232E+01  0.13533504567E+02 -0.10782230830E+02  0.72461238126E+02  0.69999567287E+02 0.  0.
         12    1    1    2    0    0  0.71609610232E+01 -0.13533504567E+02  0.10782230830E+02  0.18726761874E+02  0.00000000000E+00 0. -1.
         11    1    3    3    0    0  0.76910364611E+01 -0.41987334391E+01  0.16793720287E+01  0.89219782005E+01  0.51100000000E-03 0. -1.
        -11    1    3    3    0    0 -0.30321796773E+02 -0.82326860621E+01 -0.10966010812E+02  0.33278249244E+02  0.51100000000E-03 0.  1.
         12    1    3    3    0    0  0.15469799289E+02  0.25964924068E+02 -0.14955920466E+01  0.30261010681E+02  0.00000000000E+00 0. -1.
</event>
<event>
 7    1  0.3196678E-013  0.7246177E+02  0.7816164E-02  0.1226707E+00
        -11   -1    0    0    0    0  0.00000000000E+00  0.00000000000E+00  0.45593999997E+02  0.45594000000E+02  0.51100000000E-03 0.  1.
         11   -1    0    0    0    0 -0.00000000000E+00 -0.00000000000E+00 -0.45593999997E+02  0.45594000000E+02  0.51100000000E-03 0. -1.
    9900012    2    1    2    0    0 -0.86518418083E+01 -0.10389451896E+02  0.12956714804E+02  0.72461774115E+02  0.70000265514E+02 0.  0.
         12    1    1    2    0    0  0.86518418083E+01  0.10389451896E+02 -0.12956714804E+02  0.18726225885E+02  0.00000000000E+00 0. -1.
         11    1    3    3    0    0  0.35411397677E+01 -0.21456291194E+02  0.23611669264E+01  0.21874350554E+02  0.51100000000E-03 0. -1.
        -11    1    3    3    0    0  0.64303293764E+01 -0.13559941118E+02 -0.52296019113E+01  0.15892447119E+02  0.51100000000E-03 0.  1.
        -12    1    3    3    0    0 -0.18623310952E+02  0.24626780416E+02  0.15825149789E+02  0.34694976442E+02  0.00000000000E+00 0.  1.
</event>
<event>
 7    1  0.3196678E-013  0.7246155E+02  0.7816164E-02  0.1226708E+00
        -11   -1    0    0    0    0  0.00000000000E+00  0.00000000000E+00  0.45593999997E+02  0.45594000000E+02  0.51100000000E-03 0.  1.
         11   -1    0    0    0    0 -0.00000000000E+00 -0.00000000000E+00 -0.45593999997E+02  0.45594000000E+02  0.51100000000E-03 0. -1.
    9900012    2    1    2    0    0 -0.12956984891E+02 -0.15919990663E-01  0.13520210030E+02  0.72461553723E+02  0.69999978413E+02 0.  0.
         12    1    1    2    0    0  0.12956984891E+02  0.15919990663E-01 -0.13520210030E+02  0.18726446277E+02  0.00000000000E+00 0. -1.
         11    1    3    3    0    0 -0.68569751832E+01  0.23038125421E+01 -0.24178825489E+02  0.25237695283E+02  0.51100000000E-03 0. -1.
        -11    1    3    3    0    0 -0.77003432839E+01  0.16714399632E+01 -0.13019878950E+01  0.79864992945E+01  0.51100000000E-03 0.  1.
        -12    1    3    3    0    0  0.16003335766E+01 -0.39911724959E+01  0.39001023414E+02  0.39237359146E+02  0.00000000000E+00 0.  1.
</event>
<event>
 7    1  0.3196678E-013  0.7246170E+02  0.7816164E-02  0.1226708E+00
        -11   -1    0    0    0    0  0.00000000000E+00  0.00000000000E+00  0.45593999997E+02  0.45594000000E+02  0.51100000000E-03 0.  1.
         11   -1    0    0    0    0 -0.00000000000E+00 -0.00000000000E+00 -0.45593999997E+02  0.45594000000E+02  0.51100000000E-03 0. -1.
    9900012    2    1    2    0    0  0.48851910449E+01  0.14957786622E+02 -0.10152524433E+02  0.72461702327E+02  0.70000171997E+02 0.  0.
         12    1    1    2    0    0 -0.48851910449E+01 -0.14957786622E+02  0.10152524433E+02  0.18726297673E+02  0.00000000000E+00 0. -1.
         11    1    3    3    0    0 -0.23711902202E+01  0.80013516575E+01  0.34138531737E+01  0.90165716966E+01  0.51100000000E-03 0. -1.
        -11    1    3    3    0    0 -0.94318230167E+01  0.98897874247E+01  0.20938888003E+02  0.25004083902E+02  0.51100000000E-03 0.  1.
         12    1    3    3    0    0  0.16688204282E+02 -0.29333524601E+01 -0.34505265609E+02  0.38441046728E+02  0.00000000000E+00 0. -1.
</event>
<event>
 7    1  0.3196678E-013  0.7246154E+02  0.7816164E-02  0.1226708E+00
        -11   -1    0    0    0    0  0.00000000000E+00  0.00000000000E+00  0.45593999997E+02  0.45594000000E+02  0.51100000000E-03 0.  1.
         11   -1    0    0    0    0 -0.00000000000E+00 -0.00000000000E+00 -0.45593999997E+02  0.45594000000E+02  0.51100000000E-03 0. -1.
    9900012    2    1    2    0    0  0.61581676685E+01 -0.13719579212E+02  0.11159319132E+02  0.72461540476E+02  0.69999961156E+02 0.  0.
         12    1    1    2    0    0 -0.61581676685E+01  0.13719579212E+02 -0.11159319132E+02  0.18726459524E+02  0.00000000000E+00 0. -1.
         11    1    3    3    0    0  0.22623216103E+02  0.20176663319E+02  0.13452557379E+02  0.33164422953E+02  0.51100000000E-03 0. -1.
        -11    1    3    3    0    0 -0.22180379830E+01  0.24780888030E+00 -0.62365679913E-01  0.22327094470E+01  0.51100000000E-03 0.  1.
        -12    1    3    3    0    0 -0.14247010451E+02 -0.34144051412E+02 -0.22308725672E+01  0.37064408076E+02  0.00000000000E+00 0.  1.
</event>
<event>
 7    1  0.3196678E-013  0.7246175E+02  0.7816164E-02  0.1226708E+00
        -11   -1    0    0    0    0  0.00000000000E+00  0.00000000000E+00  0.45593999997E+02  0.45594000000E+02  0.51100000000E-03 0. -1.
         11   -1    0    0    0    0 -0.00000000000E+00 -0.00000000000E+00 -0.45593999997E+02  0.45594000000E+02  0.51100000000E-03 0.  1.
    9900012    2    1    2    0    0  0.10825463728E+02  0.14408962473E+02  0.50856165487E+01  0.72461752107E+02  0.70000236845E+02 0.  0.
         12    1    1    2    0    0 -0.10825463728E+02 -0.14408962473E+02 -0.50856165487E+01  0.18726247893E+02  0.00000000000E+00 0. -1.
         11    1    3    3    0    0  0.22402278635E+01 -0.87281443230E+01  0.19377329381E+02  0.21370072962E+02  0.51100000000E-03 0. -1.
        -11    1    3    3    0    0  0.15661208283E+02  0.66190281254E+00  0.89038856933E+01  0.18027499574E+02  0.51100000000E-03 0.  1.
        -12    1    3    3    0    0 -0.70759724187E+01  0.22475203983E+02 -0.23195598525E+02  0.33064179571E+02  0.00000000000E+00 0.  1.
</event>
<event>
 7    1  0.3196678E-013  0.7246157E+02  0.7816164E-02  0.1226708E+00
        -11   -1    0    0    0    0  0.00000000000E+00  0.00000000000E+00  0.45593999997E+02  0.45594000000E+02  0.51100000000E-03 0.  1.
         11   -1    0    0    0    0 -0.00000000000E+00 -0.00000000000E+00 -0.45593999997E+02  0.45594000000E+02  0.51100000000E-03 0. -1.
    9900012    2    1    2    0    0  0.73731980933E+01  0.11871631872E+02  0.12465124236E+02  0.72461574403E+02  0.70000005352E+02 0.  0.
         12    1    1    2    0    0 -0.73731980933E+01 -0.11871631872E+02 -0.12465124236E+02  0.18726425597E+02  0.00000000000E+00 0. -1.
         11    1    3    3    0    0 -0.73480568235E+01  0.78822514159E+01 -0.15472731458E+02  0.18855483168E+02  0.51100000000E-03 0. -1.
        -11    1    3    3    0    0  0.25407122399E+02  0.10034842419E+02  0.52610640731E+01  0.27819035325E+02  0.51100000000E-03 0.  1.
        -12    1    3    3    0    0 -0.10685867483E+02 -0.60454619633E+01  0.22676791622E+02  0.25787055909E+02  0.00000000000E+00 0.  1.
</event>
<event>
 7    1  0.3196678E-013  0.7246157E+02  0.7816164E-02  0.1226708E+00
        -11   -1    0    0    0    0  0.00000000000E+00  0.00000000000E+00  0.45593999997E+02  0.45594000000E+02  0.51100000000E-03 0.  1.
         11   -1    0    0    0    0 -0.00000000000E+00 -0.00000000000E+00 -0.45593999997E+02  0.45594000000E+02  0.51100000000E-03 0. -1.
    9900012    2    1    2    0    0  0.10452642585E+02  0.10237486563E+02  0.11688256955E+02  0.72461568979E+02  0.69999998286E+02 0.  0.
         12    1    1    2    0    0 -0.10452642585E+02 -0.10237486563E+02 -0.11688256955E+02  0.18726431021E+02  0.00000000000E+00 0. -1.
         11    1    3    3    0    0 -0.93456757158E+01 -0.12822589937E+02  0.28680956284E+02  0.32777396494E+02  0.51100000000E-03 0. -1.
        -11    1    3    3    0    0  0.27440239628E+01  0.50645494778E+01  0.41507975995E+01  0.70998908369E+01  0.51100000000E-03 0.  1.
        -12    1    3    3    0    0  0.17054294338E+02  0.17995527022E+02 -0.21143496929E+02  0.32584281648E+02  0.00000000000E+00 0.  1.
</event>
<event>
 7    1  0.3196678E-013  0.7246150E+02  0.7816164E-02  0.1226708E+00
        -11   -1    0    0    0    0  0.00000000000E+00  0.00000000000E+00  0.45593999997E+02  0.45594000000E+02  0.51100000000E-03 0.  1.
         11   -1    0    0    0    0 -0.00000000000E+00 -0.00000000000E+00 -0.45593999997E+02  0.45594000000E+02  0.51100000000E-03 0. -1.
    9900012    2    1    2    0    0  0.82696434327E+01 -0.13102436981E+02 -0.10517646759E+02  0.72461501377E+02  0.69999910222E+02 0.  0.
         12    1    1    2    0    0 -0.82696434327E+01  0.13102436981E+02  0.10517646759E+02  0.18726498623E+02  0.00000000000E+00 0. -1.
         11    1    3    3    0    0 -0.18245206051E+02 -0.16141168856E+02  0.57576867171E+01  0.25031496809E+02  0.51100000000E-03 0. -1.
        -11    1    3    3    0    0 -0.38386292114E+01 -0.82241424245E+01  0.32289284895E+01  0.96331496559E+01  0.51100000000E-03 0.  1.
        -12    1    3    3    0    0  0.30353478695E+02  0.11262874299E+02 -0.19504261966E+02  0.37796854912E+02  0.00000000000E+00 0.  1.
</event>
<event>
 7    1  0.3196678E-013  0.7246156E+02  0.7816164E-02  0.1226708E+00
        -11   -1    0    0    0    0  0.00000000000E+00  0.00000000000E+00  0.45593999997E+02  0.45594000000E+02  0.51100000000E-03 0.  1.
         11   -1    0    0    0    0 -0.00000000000E+00 -0.00000000000E+00 -0.45593999997E+02  0.45594000000E+02  0.51100000000E-03 0. -1.
    9900012    2    1    2    0    0 -0.58672584334E+01  0.17263882144E+02  0.42676908438E+01  0.72461560581E+02  0.69999987346E+02 0.  0.
         12    1    1    2    0    0  0.58672584334E+01 -0.17263882144E+02 -0.42676908438E+01  0.18726439419E+02  0.00000000000E+00 0. -1.
         11    1    3    3    0    0  0.88794916064E+01 -0.15886712812E+02 -0.14108724036E+02  0.23028007064E+02  0.51100000000E-03 0. -1.
        -11    1    3    3    0    0  0.37306162588E+01 -0.67976746154E+00 -0.34578080660E+01  0.51318630491E+01  0.51100000000E-03 0.  1.
         12    1    3    3    0    0 -0.18477366299E+02  0.33830362417E+02  0.21834222946E+02  0.44301690467E+02  0.00000000000E+00 0. -1.
</event>
<event>
 7    1  0.3196678E-013  0.7246153E+02  0.7816164E-02  0.1226708E+00
        -11   -1    0    0    0    0  0.00000000000E+00  0.00000000000E+00  0.45593999997E+02  0.45594000000E+02  0.51100000000E-03 0.  1.
         11   -1    0    0    0    0 -0.00000000000E+00 -0.00000000000E+00 -0.45593999997E+02  0.45594000000E+02  0.51100000000E-03 0. -1.
    9900012    2    1    2    0    0 -0.62230168736E+01  0.13046906754E+01  0.17613989174E+02  0.72461527525E+02  0.69999944284E+02 0.  0.
         12    1    1    2    0    0  0.62230168736E+01 -0.13046906754E+01 -0.17613989174E+02  0.18726472475E+02  0.00000000000E+00 0. -1.
         11    1    3    3    0    0 -0.18768443605E+02  0.36353064451E+01  0.16611963499E+02  0.25326414271E+02  0.51100000000E-03 0. -1.
        -11    1    3    3    0    0 -0.10500927879E+02 -0.78841034226E+01  0.14736270242E+02  0.19737938951E+02  0.51100000000E-03 0.  1.
         12    1    3    3    0    0  0.23046354611E+02  0.55534876529E+01 -0.13734244567E+02  0.27397174303E+02  0.00000000000E+00 0. -1.
</event>
<event>
 7    1  0.3196678E-013  0.7246162E+02  0.7816164E-02  0.1226708E+00
        -11   -1    0    0    0    0  0.00000000000E+00  0.00000000000E+00  0.45593999997E+02  0.45594000000E+02  0.51100000000E-03 0.  1.
         11   -1    0    0    0    0 -0.00000000000E+00 -0.00000000000E+00 -0.45593999997E+02  0.45594000000E+02  0.51100000000E-03 0. -1.
    9900012    2    1    2    0    0  0.30521016624E+01 -0.76680859376E+01  0.16809589244E+02  0.72461624027E+02  0.70000069997E+02 0.  0.
         12    1    1    2    0    0 -0.30521016624E+01  0.76680859376E+01 -0.16809589244E+02  0.18726375973E+02  0.00000000000E+00 0. -1.
         11    1    3    3    0    0 -0.11244859490E+02 -0.63810297272E+01  0.28092362054E+01  0.13230881061E+02  0.51100000000E-03 0. -1.
        -11    1    3    3    0    0 -0.16598716602E+02 -0.14800160684E+02  0.12420467950E+02  0.25472145050E+02  0.51100000000E-03 0.  1.
        -12    1    3    3    0    0  0.30895677754E+02  0.13513104473E+02  0.15798850895E+01  0.33758597917E+02  0.00000000000E+00 0.  1.
</event>
<event>
 7    1  0.3196678E-013  0.7246157E+02  0.7816164E-02  0.1226708E+00
        -11   -1    0    0    0    0  0.00000000000E+00  0.00000000000E+00  0.45593999997E+02  0.45594000000E+02  0.51100000000E-03 0.  1.
         11   -1    0    0    0    0 -0.00000000000E+00 -0.00000000000E+00 -0.45593999997E+02  0.45594000000E+02  0.51100000000E-03 0. -1.
    9900012    2    1    2    0    0 -0.12604082193E+02 -0.10072008509E+02  0.95063693429E+01  0.72461566773E+02  0.69999995413E+02 0.  0.
         12    1    1    2    0    0  0.12604082193E+02  0.10072008509E+02 -0.95063693429E+01  0.18726433227E+02  0.00000000000E+00 0. -1.
         11    1    3    3    0    0  0.17586811576E+02  0.15812447476E+02  0.11781677384E+02  0.26422289053E+02  0.51100000000E-03 0. -1.
        -11    1    3    3    0    0 -0.85338691178E+01  0.31178709682E+01  0.27576795793E+01  0.94948848554E+01  0.51100000000E-03 0.  1.
        -12    1    3    3    0    0 -0.21657024651E+02 -0.29002326953E+02 -0.50329876203E+01  0.36544392864E+02  0.00000000000E+00 0.  1.
</event>
<event>
 7    1  0.3196678E-013  0.7246166E+02  0.7816164E-02  0.1226708E+00
        -11   -1    0    0    0    0  0.00000000000E+00  0.00000000000E+00  0.45593999997E+02  0.45594000000E+02  0.51100000000E-03 0.  1.
         11   -1    0    0    0    0 -0.00000000000E+00 -0.00000000000E+00 -0.45593999997E+02  0.45594000000E+02  0.51100000000E-03 0. -1.
    9900012    2    1    2    0    0  0.21022159823E+01  0.18209070023E+02  0.38322448184E+01  0.72461664440E+02  0.70000122642E+02 0.  0.
         12    1    1    2    0    0 -0.21022159823E+01 -0.18209070023E+02 -0.38322448184E+01  0.18726335560E+02  0.00000000000E+00 0. -1.
         11    1    3    3    0    0  0.11708733502E+02 -0.14239788382E+02  0.25445189210E+02  0.31421706949E+02  0.51100000000E-03 0. -1.
        -11    1    3    3    0    0  0.87159223428E+00  0.21795797292E+00 -0.11590509754E+00  0.90587689758E+00  0.51100000000E-03 0.  1.
        -12    1    3    3    0    0 -0.10478109754E+02  0.32230900432E+02 -0.21497039294E+02  0.40134080594E+02  0.00000000000E+00 0.  1.
</event>
<event>
 7    1  0.3196678E-013  0.7246143E+02  0.7816164E-02  0.1226708E+00
        -11   -1    0    0    0    0  0.00000000000E+00  0.00000000000E+00  0.45593999997E+02  0.45594000000E+02  0.51100000000E-03 0.  1.
         11   -1    0    0    0    0 -0.00000000000E+00 -0.00000000000E+00 -0.45593999997E+02  0.45594000000E+02  0.51100000000E-03 0. -1.
    9900012    2    1    2    0    0 -0.81812229381E+01  0.14855006978E+02  0.79423388802E+01  0.72461430961E+02  0.69999818493E+02 0.  0.
         12    1    1    2    0    0  0.81812229381E+01 -0.14855006978E+02 -0.79423388802E+01  0.18726569039E+02  0.00000000000E+00 0. -1.
         11    1    3    3    0    0 -0.33051461531E+02  0.77705458596E+01 -0.13614706849E+01  0.33979907225E+02  0.51100000000E-03 0. -1.
        -11    1    3    3    0    0  0.22567159362E+01  0.26786676070E+01 -0.86117400755E+01  0.92967787085E+01  0.51100000000E-03 0.  1.
        -12    1    3    3    0    0  0.22613522657E+02  0.44057935110E+01  0.17915549641E+02  0.29184745028E+02  0.00000000000E+00 0.  1.
</event>
<event>
 7    1  0.3196678E-013  0.7246156E+02  0.7816164E-02  0.1226708E+00
        -11   -1    0    0    0    0  0.00000000000E+00  0.00000000000E+00  0.45593999997E+02  0.45594000000E+02  0.51100000000E-03 0.  1.
         11   -1    0    0    0    0 -0.00000000000E+00 -0.00000000000E+00 -0.45593999997E+02  0.45594000000E+02  0.51100000000E-03 0. -1.
    9900012    2    1    2    0    0 -0.61598886476E+00  0.47382922733E+01  0.18106595624E+02  0.72461557171E+02  0.69999982904E+02 0.  0.
         12    1    1    2    0    0  0.61598886476E+00 -0.47382922733E+01 -0.18106595624E+02  0.18726442829E+02  0.00000000000E+00 0. -1.
         11    1    3    3    0    0  0.49623781157E+01  0.15205941357E+02  0.14469530814E+01  0.16060495715E+02  0.51100000000E-03 0. -1.
        -11    1    3    3    0    0 -0.13441834717E+02 -0.15048536949E+01  0.33292977864E+02  0.35935635246E+02  0.51100000000E-03 0.  1.
         12    1    3    3    0    0  0.78634677365E+01 -0.89627953889E+01 -0.16633335322E+02  0.20465426210E+02  0.00000000000E+00 0. -1.
</event>
<event>
 7    1  0.3196678E-013  0.7246157E+02  0.7816164E-02  0.1226708E+00
        -11   -1    0    0    0    0  0.00000000000E+00  0.00000000000E+00  0.45593999997E+02  0.45594000000E+02  0.51100000000E-03 0.  1.
         11   -1    0    0    0    0 -0.00000000000E+00 -0.00000000000E+00 -0.45593999997E+02  0.45594000000E+02  0.51100000000E-03 0. -1.
    9900012    2    1    2    0    0 -0.71851239610E+01  0.14229710670E+02  0.98269329212E+01  0.72461567272E+02  0.69999996063E+02 0.  0.
         12    1    1    2    0    0  0.71851239610E+01 -0.14229710670E+02 -0.98269329212E+01  0.18726432728E+02  0.00000000000E+00 0. -1.
         11    1    3    3    0    0  0.68022852525E+01  0.19274775268E+02 -0.14022101181E+02  0.24787242043E+02  0.51100000000E-03 0. -1.
        -11    1    3    3    0    0  0.12762440417E+02  0.24471868154E+01  0.42318405825E+01  0.13666641273E+02  0.51100000000E-03 0.  1.
         12    1    3    3    0    0 -0.26749849630E+02 -0.74922514139E+01  0.19617193520E+02  0.34007683957E+02  0.00000000000E+00 0. -1.
</event>
<event>
 7    1  0.3196678E-013  0.7246131E+02  0.7816164E-02  0.1226709E+00
        -11   -1    0    0    0    0  0.00000000000E+00  0.00000000000E+00  0.45593999997E+02  0.45594000000E+02  0.51100000000E-03 0.  1.
         11   -1    0    0    0    0 -0.00000000000E+00 -0.00000000000E+00 -0.45593999997E+02  0.45594000000E+02  0.51100000000E-03 0. -1.
    9900012    2    1    2    0    0 -0.10147488245E+02 -0.15409446200E+02 -0.32041209241E+01  0.72461309402E+02  0.69999660138E+02 0.  0.
         12    1    1    2    0    0  0.10147488245E+02  0.15409446200E+02  0.32041209241E+01  0.18726690598E+02  0.00000000000E+00 0. -1.
         11    1    3    3    0    0 -0.12320071553E+02 -0.30346944375E+02 -0.67368084706E+01  0.33438088830E+02  0.51100000000E-03 0. -1.
        -11    1    3    3    0    0 -0.15902294322E+02  0.31929164951E+01 -0.30102588856E+01  0.16496646304E+02  0.51100000000E-03 0.  1.
         12    1    3    3    0    0  0.18074877631E+02  0.11744581681E+02  0.65429464321E+01  0.22526574267E+02  0.00000000000E+00 0. -1.
</event>
<event>
 7    1  0.3196678E-013  0.7246158E+02  0.7816164E-02  0.1226708E+00
        -11   -1    0    0    0    0  0.00000000000E+00  0.00000000000E+00  0.45593999997E+02  0.45594000000E+02  0.51100000000E-03 0.  1.
         11   -1    0    0    0    0 -0.00000000000E+00 -0.00000000000E+00 -0.45593999997E+02  0.45594000000E+02  0.51100000000E-03 0. -1.
    9900012    2    1    2    0    0  0.92448614997E+01  0.16130019691E+02 -0.22436107170E+01  0.72461580470E+02  0.70000013256E+02 0.  0.
         12    1    1    2    0    0 -0.92448614997E+01 -0.16130019691E+02  0.22436107170E+01  0.18726419530E+02  0.00000000000E+00 0. -1.
         11    1    3    3    0    0 -0.15934578869E+02 -0.55483343770E+01  0.90831491266E+01  0.19162421987E+02  0.51100000000E-03 0. -1.
        -11    1    3    3    0    0 -0.17201486886E+01 -0.14421936461E+01  0.11105883176E+02  0.11330466689E+02  0.51100000000E-03 0.  1.
         12    1    3    3    0    0  0.26899589058E+02  0.23120547714E+02 -0.22432643019E+02  0.41968691794E+02  0.00000000000E+00 0. -1.
</event>
<event>
 7    1  0.3196678E-013  0.7246157E+02  0.7816164E-02  0.1226708E+00
        -11   -1    0    0    0    0  0.00000000000E+00  0.00000000000E+00  0.45593999997E+02  0.45594000000E+02  0.51100000000E-03 0.  1.
         11   -1    0    0    0    0 -0.00000000000E+00 -0.00000000000E+00 -0.45593999997E+02  0.45594000000E+02  0.51100000000E-03 0. -1.
    9900012    2    1    2    0    0  0.14913518355E+02 -0.41900436707E+01  0.10521862784E+02  0.72461572361E+02  0.70000002692E+02 0.  0.
         12    1    1    2    0    0 -0.14913518355E+02  0.41900436707E+01 -0.10521862784E+02  0.18726427639E+02  0.00000000000E+00 0. -1.
         11    1    3    3    0    0  0.55640942708E+01  0.72058887466E+01 -0.11003685294E+02  0.14281633940E+02  0.51100000000E-03 0. -1.
        -11    1    3    3    0    0 -0.17566435907E+02  0.86291662771E+01  0.13223459150E+02  0.23619950323E+02  0.51100000000E-03 0.  1.
         12    1    3    3    0    0  0.26915859991E+02 -0.20025098694E+02  0.83020889280E+01  0.34559988098E+02  0.00000000000E+00 0. -1.
</event>
<event>
 7    1  0.3196678E-013  0.7246156E+02  0.7816164E-02  0.1226708E+00
        -11   -1    0    0    0    0  0.00000000000E+00  0.00000000000E+00  0.45593999997E+02  0.45594000000E+02  0.51100000000E-03 0. -1.
         11   -1    0    0    0    0 -0.00000000000E+00 -0.00000000000E+00 -0.45593999997E+02  0.45594000000E+02  0.51100000000E-03 0.  1.
    9900012    2    1    2    0    0  0.17198168527E+02 -0.58973932810E+01 -0.44858808043E+01  0.72461564814E+02  0.69999992860E+02 0.  0.
         12    1    1    2    0    0 -0.17198168527E+02  0.58973932810E+01  0.44858808043E+01  0.18726435186E+02  0.00000000000E+00 0. -1.
         11    1    3    3    0    0 -0.28160739030E+01 -0.63938298541E+01 -0.17791401287E+02  0.19114007755E+02  0.51100000000E-03 0. -1.
        -11    1    3    3    0    0 -0.47919027990E+01 -0.68509785081E+01 -0.13636354300E+02  0.15995261730E+02  0.51100000000E-03 0.  1.
         12    1    3    3    0    0  0.24806145229E+02  0.73474150811E+01  0.26941874783E+02  0.37352295329E+02  0.00000000000E+00 0. -1.
</event>
<event>
 7    1  0.3196678E-013  0.7246162E+02  0.7816164E-02  0.1226708E+00
        -11   -1    0    0    0    0  0.00000000000E+00  0.00000000000E+00  0.45593999997E+02  0.45594000000E+02  0.51100000000E-03 0. -1.
         11   -1    0    0    0    0 -0.00000000000E+00 -0.00000000000E+00 -0.45593999997E+02  0.45594000000E+02  0.51100000000E-03 0.  1.
    9900012    2    1    2    0    0  0.68699492763E+01  0.10141509935E+02 -0.14164429345E+02  0.72461615258E+02  0.70000058574E+02 0.  0.
         12    1    1    2    0    0 -0.68699492763E+01 -0.10141509935E+02  0.14164429345E+02  0.18726384742E+02  0.00000000000E+00 0. -1.
         11    1    3    3    0    0 -0.22141261956E+01  0.91383588090E+01  0.34772005728E+01  0.10025112499E+02  0.51100000000E-03 0. -1.
        -11    1    3    3    0    0 -0.17413104440E+02  0.16966119369E+02  0.40609812455E+01  0.24648670991E+02  0.51100000000E-03 0.  1.
        -12    1    3    3    0    0  0.26497179912E+02 -0.15962968243E+02 -0.21702611163E+02  0.37787831768E+02  0.00000000000E+00 0.  1.
</event>
<event>
 7    1  0.3196678E-013  0.7246157E+02  0.7816164E-02  0.1226708E+00
        -11   -1    0    0    0    0  0.00000000000E+00  0.00000000000E+00  0.45593999997E+02  0.45594000000E+02  0.51100000000E-03 0.  1.
         11   -1    0    0    0    0 -0.00000000000E+00 -0.00000000000E+00 -0.45593999997E+02  0.45594000000E+02  0.51100000000E-03 0. -1.
    9900012    2    1    2    0    0  0.37422033605E+01 -0.83623907879E+01  0.16332340424E+02  0.72461574569E+02  0.70000005569E+02 0.  0.
         12    1    1    2    0    0 -0.37422033605E+01  0.83623907879E+01 -0.16332340424E+02  0.18726425431E+02  0.00000000000E+00 0. -1.
         11    1    3    3    0    0  0.79205309420E+00 -0.16428071058E+02 -0.12262232480E+02  0.20515145927E+02  0.51100000000E-03 0. -1.
        -11    1    3    3    0    0 -0.45233605247E+00 -0.31780777444E+01 -0.10575904397E+02  0.11052354506E+02  0.51100000000E-03 0.  1.
        -12    1    3    3    0    0  0.34024863188E+01  0.11243758014E+02  0.39170477301E+02  0.40894074136E+02  0.00000000000E+00 0.  1.
</event>
<event>
 7    1  0.3196678E-013  0.7246148E+02  0.7816164E-02  0.1226708E+00
        -11   -1    0    0    0    0  0.00000000000E+00  0.00000000000E+00  0.45593999997E+02  0.45594000000E+02  0.51100000000E-03 0.  1.
         11   -1    0    0    0    0 -0.00000000000E+00 -0.00000000000E+00 -0.45593999997E+02  0.45594000000E+02  0.51100000000E-03 0. -1.
    9900012    2    1    2    0    0  0.15128135745E+02  0.49313509310E+01 -0.98743956347E+01  0.72461483980E+02  0.69999887559E+02 0.  0.
         12    1    1    2    0    0 -0.15128135745E+02 -0.49313509310E+01  0.98743956347E+01  0.18726516020E+02  0.00000000000E+00 0. -1.
         11    1    3    3    0    0  0.15893495328E+02  0.23013217029E+00 -0.42350914130E+01  0.16449685532E+02  0.51100000000E-03 0. -1.
        -11    1    3    3    0    0  0.21588280307E+02  0.15229537960E+02  0.82360573877E+01  0.27673549007E+02  0.51100000000E-03 0.  1.
         12    1    3    3    0    0 -0.22353639891E+02 -0.10528319200E+02 -0.13875361609E+02  0.28338249440E+02  0.00000000000E+00 0. -1.
</event>
<event>
 7    1  0.3196678E-013  0.7246159E+02  0.7816164E-02  0.1226708E+00
        -11   -1    0    0    0    0  0.00000000000E+00  0.00000000000E+00  0.45593999997E+02  0.45594000000E+02  0.51100000000E-03 0.  1.
         11   -1    0    0    0    0 -0.00000000000E+00 -0.00000000000E+00 -0.45593999997E+02  0.45594000000E+02  0.51100000000E-03 0. -1.
    9900012    2    1    2    0    0  0.12481239536E+02 -0.13960436711E+02  0.58786591325E-01  0.72461585784E+02  0.70000020178E+02 0.  0.
         12    1    1    2    0    0 -0.12481239536E+02  0.13960436711E+02 -0.58786591325E-01  0.18726414216E+02  0.00000000000E+00 0. -1.
         11    1    3    3    0    0 -0.94448900434E+01  0.10994681430E+02 -0.16577441158E+02  0.22020456927E+02  0.51100000000E-03 0. -1.
        -11    1    3    3    0    0  0.38547893586E-01  0.24986111922E+01 -0.74531731282E+01  0.78609372069E+01  0.51100000000E-03 0.  1.
        -12    1    3    3    0    0  0.21887581686E+02 -0.27453729333E+02  0.24089400877E+02  0.42580191650E+02  0.00000000000E+00 0.  1.
</event>
<event>
 7    1  0.3196678E-013  0.7246155E+02  0.7816164E-02  0.1226708E+00
        -11   -1    0    0    0    0  0.00000000000E+00  0.00000000000E+00  0.45593999997E+02  0.45594000000E+02  0.51100000000E-03 0.  1.
         11   -1    0    0    0    0 -0.00000000000E+00 -0.00000000000E+00 -0.45593999997E+02  0.45594000000E+02  0.51100000000E-03 0. -1.
    9900012    2    1    2    0    0  0.18709503681E+02 -0.29349962628E+00 -0.74035456620E+00  0.72461553597E+02  0.69999978248E+02 0.  0.
         12    1    1    2    0    0 -0.18709503681E+02  0.29349962628E+00  0.74035456620E+00  0.18726446403E+02  0.00000000000E+00 0. -1.
         11    1    3    3    0    0 -0.35840860815E+01  0.79654281834E+01  0.77474704412E+01  0.11675487899E+02  0.51100000000E-03 0. -1.
        -11    1    3    3    0    0  0.62480052986E+01 -0.27679534288E+02  0.93968296035E+01  0.29891379952E+02  0.51100000000E-03 0.  1.
         12    1    3    3    0    0  0.16045584463E+02  0.19420606478E+02 -0.17884654611E+02  0.30894685745E+02  0.00000000000E+00 0. -1.
</event>
<event>
 7    1  0.3196678E-013  0.7246124E+02  0.7816164E-02  0.1226709E+00
        -11   -1    0    0    0    0  0.00000000000E+00  0.00000000000E+00  0.45593999997E+02  0.45594000000E+02  0.51100000000E-03 0.  1.
         11   -1    0    0    0    0 -0.00000000000E+00 -0.00000000000E+00 -0.45593999997E+02  0.45594000000E+02  0.51100000000E-03 0. -1.
    9900012    2    1    2    0    0  0.13278982113E+02 -0.10072225817E+02  0.85387543794E+01  0.72461243067E+02  0.69999573724E+02 0.  0.
         12    1    1    2    0    0 -0.13278982113E+02  0.10072225817E+02 -0.85387543794E+01  0.18726756933E+02  0.00000000000E+00 0. -1.
         11    1    3    3    0    0  0.51568976697E+01  0.87697608205E+01 -0.61883926072E-02  0.10173609830E+02  0.51100000000E-03 0. -1.
        -11    1    3    3    0    0  0.30377184438E+02 -0.20268396494E+02  0.14361635569E+02  0.39240767160E+02  0.51100000000E-03 0.  1.
         12    1    3    3    0    0 -0.22255099995E+02  0.14264098559E+01 -0.58166927972E+01  0.23046866076E+02  0.00000000000E+00 0. -1.
</event>
<event>
 7    1  0.3196678E-013  0.7246158E+02  0.7816164E-02  0.1226708E+00
        -11   -1    0    0    0    0  0.00000000000E+00  0.00000000000E+00  0.45593999997E+02  0.45594000000E+02  0.51100000000E-03 0.  1.
         11   -1    0    0    0    0 -0.00000000000E+00 -0.00000000000E+00 -0.45593999997E+02  0.45594000000E+02  0.51100000000E-03 0. -1.
    9900012    2    1    2    0    0 -0.92946002504E+01 -0.20496377718E+01  0.16127245571E+02  0.72461583939E+02  0.70000017774E+02 0.  0.
         12    1    1    2    0    0  0.92946002504E+01  0.20496377718E+01 -0.16127245571E+02  0.18726416061E+02  0.00000000000E+00 0. -1.
         11    1    3    3    0    0  0.62358940951E+01 -0.13436437436E+02  0.16730146098E+00  0.14813919676E+02  0.51100000000E-03 0. -1.
        -11    1    3    3    0    0 -0.22672623687E+02  0.54368510093E+01  0.31709981601E+02  0.39358990677E+02  0.51100000000E-03 0.  1.
         12    1    3    3    0    0  0.71421293414E+01  0.59499486548E+01 -0.15750037491E+02  0.18288673585E+02  0.00000000000E+00 0. -1.
</event>
<event>
 7    1  0.3196678E-013  0.7246156E+02  0.7816164E-02  0.1226708E+00
        -11   -1    0    0    0    0  0.00000000000E+00  0.00000000000E+00  0.45593999997E+02  0.45594000000E+02  0.51100000000E-03 0. -1.
         11   -1    0    0    0    0 -0.00000000000E+00 -0.00000000000E+00 -0.45593999997E+02  0.45594000000E+02  0.51100000000E-03 0.  1.
    9900012    2    1    2    0    0 -0.12145880427E+02  0.69231741267E+01 -0.12459000930E+02  0.72461562658E+02  0.69999990053E+02 0.  0.
         12    1    1    2    0    0  0.12145880427E+02 -0.69231741267E+01  0.12459000930E+02  0.18726437342E+02  0.00000000000E+00 0. -1.
         11    1    3    3    0    0 -0.29405554592E+02 -0.32786625011E+01  0.48899447260E+01  0.29989128502E+02  0.51100000000E-03 0. -1.
        -11    1    3    3    0    0  0.37137131256E+01 -0.10219134446E+02 -0.14019923077E+02  0.17742057867E+02  0.51100000000E-03 0.  1.
        -12    1    3    3    0    0  0.13545961039E+02  0.20420971074E+02 -0.33290225788E+01  0.24730376289E+02  0.00000000000E+00 0.  1.
</event>
<event>
 7    1  0.3483941E-013  0.7246154E+02  0.7816164E-02  0.1226708E+00
        -11   -1    0    0    0    0  0.00000000000E+00  0.00000000000E+00  0.45593999997E+02  0.45594000000E+02  0.51100000000E-03 0.  1.
         11   -1    0    0    0    0 -0.00000000000E+00 -0.00000000000E+00 -0.45593999997E+02  0.45594000000E+02  0.51100000000E-03 0. -1.
    9900012    2    1    2    0    0 -0.77350689786E+01 -0.14043633314E+02  0.96760199455E+01  0.72461540357E+02  0.69999961001E+02 0.  0.
         12    1    1    2    0    0  0.77350689786E+01  0.14043633314E+02 -0.96760199455E+01  0.18726459643E+02  0.00000000000E+00 0. -1.
         11    1    3    3    0    0 -0.14069414581E+02 -0.64804885931E+01  0.38512402879E+01  0.15961742106E+02  0.51100000000E-03 0. -1.
        -11    1    3    3    0    0  0.17250136963E+02 -0.24094530589E+01  0.26997058115E+02  0.32128084855E+02  0.51100000000E-03 0.  1.
         12    1    3    3    0    0 -0.10915791360E+02 -0.51536916622E+01 -0.21172278458E+02  0.24371713396E+02  0.00000000000E+00 0. -1.
</event>
<event>
 7    1  0.3196678E-013  0.7246166E+02  0.7816164E-02  0.1226708E+00
        -11   -1    0    0    0    0  0.00000000000E+00  0.00000000000E+00  0.45593999997E+02  0.45594000000E+02  0.51100000000E-03 0. -1.
         11   -1    0    0    0    0 -0.00000000000E+00 -0.00000000000E+00 -0.45593999997E+02  0.45594000000E+02  0.51100000000E-03 0.  1.
    9900012    2    1    2    0    0  0.77627886067E+01 -0.16964493367E+02 -0.16189462389E+01  0.72461657350E+02  0.70000113406E+02 0.  0.
         12    1    1    2    0    0 -0.77627886067E+01  0.16964493367E+02  0.16189462389E+01  0.18726342650E+02  0.00000000000E+00 0. -1.
         11    1    3    3    0    0  0.17366651927E+01 -0.22601126395E+01 -0.15097216774E+02  0.15363921040E+02  0.51100000000E-03 0. -1.
        -11    1    3    3    0    0 -0.15079122845E+02 -0.26035436833E+02  0.10366145615E+01  0.30104791759E+02  0.51100000000E-03 0.  1.
         12    1    3    3    0    0  0.21105246259E+02  0.11331056106E+02  0.12441655974E+02  0.26992944550E+02  0.00000000000E+00 0. -1.
</event>
<event>
 7    1  0.3196678E-013  0.7246157E+02  0.7816164E-02  0.1226708E+00
        -11   -1    0    0    0    0  0.00000000000E+00  0.00000000000E+00  0.45593999997E+02  0.45594000000E+02  0.51100000000E-03 0.  1.
         11   -1    0    0    0    0 -0.00000000000E+00 -0.00000000000E+00 -0.45593999997E+02  0.45594000000E+02  0.51100000000E-03 0. -1.
    9900012    2    1    2    0    0 -0.30687686776E+01 -0.13322855165E+02  0.12797002166E+02  0.72461572808E+02  0.70000003274E+02 0.  0.
         12    1    1    2    0    0  0.30687686776E+01  0.13322855165E+02 -0.12797002166E+02  0.18726427192E+02  0.00000000000E+00 0. -1.
         11    1    3    3    0    0  0.13812571208E+02  0.46280738373E+01  0.16702914802E+02  0.22162886859E+02  0.51100000000E-03 0. -1.
        -11    1    3    3    0    0 -0.13675853671E+02 -0.25775581951E+02  0.12576480004E+02  0.31773848493E+02  0.51100000000E-03 0.  1.
        -12    1    3    3    0    0 -0.32054862139E+01  0.78246529487E+01 -0.16482392639E+02  0.18524837455E+02  0.00000000000E+00 0.  1.
</event>
<event>
 7    1  0.3196678E-013  0.7246155E+02  0.7816164E-02  0.1226708E+00
        -11   -1    0    0    0    0  0.00000000000E+00  0.00000000000E+00  0.45593999997E+02  0.45594000000E+02  0.51100000000E-03 0.  1.
         11   -1    0    0    0    0 -0.00000000000E+00 -0.00000000000E+00 -0.45593999997E+02  0.45594000000E+02  0.51100000000E-03 0. -1.
    9900012    2    1    2    0    0 -0.18325543019E+02 -0.37670817148E+01  0.81444197541E+00  0.72461554867E+02  0.69999979903E+02 0.  0.
         12    1    1    2    0    0  0.18325543019E+02  0.37670817148E+01 -0.81444197541E+00  0.18726445133E+02  0.00000000000E+00 0. -1.
         11    1    3    3    0    0 -0.11561470678E+02 -0.13116085969E+02  0.50289370411E+01  0.18193117474E+02  0.51100000000E-03 0. -1.
        -11    1    3    3    0    0 -0.10085655263E+01 -0.64198735213E+01  0.22111104316E+02  0.23046321069E+02  0.51100000000E-03 0.  1.
         12    1    3    3    0    0 -0.57555068145E+01  0.15768877775E+02 -0.26325599382E+02  0.31222116325E+02  0.00000000000E+00 0. -1.
</event>
<event>
 7    1  0.3196678E-013  0.7246161E+02  0.7816164E-02  0.1226708E+00
        -11   -1    0    0    0    0  0.00000000000E+00  0.00000000000E+00  0.45593999997E+02  0.45594000000E+02  0.51100000000E-03 0. -1.
         11   -1    0    0    0    0 -0.00000000000E+00 -0.00000000000E+00 -0.45593999997E+02  0.45594000000E+02  0.51100000000E-03 0.  1.
    9900012    2    1    2    0    0 -0.70810680276E+01 -0.12343979351E+02 -0.12172189282E+02  0.72461613735E+02  0.70000056589E+02 0.  0.
         12    1    1    2    0    0  0.70810680276E+01  0.12343979351E+02  0.12172189282E+02  0.18726386265E+02  0.00000000000E+00 0. -1.
         11    1    3    3    0    0  0.39287984882E+01  0.23049771234E+02 -0.71222037237E+00  0.23393047463E+02  0.51100000000E-03 0. -1.
        -11    1    3    3    0    0 -0.85625786558E+01 -0.78387901421E+01 -0.17262784767E+02  0.20803079635E+02  0.51100000000E-03 0.  1.
         12    1    3    3    0    0 -0.24472878600E+01 -0.27554960443E+02  0.58028158576E+01  0.28265486636E+02  0.00000000000E+00 0. -1.
</event>
<event>
 7    1  0.3196678E-013  0.7246159E+02  0.7816164E-02  0.1226708E+00
        -11   -1    0    0    0    0  0.00000000000E+00  0.00000000000E+00  0.45593999997E+02  0.45594000000E+02  0.51100000000E-03 0.  1.
         11   -1    0    0    0    0 -0.00000000000E+00 -0.00000000000E+00 -0.45593999997E+02  0.45594000000E+02  0.51100000000E-03 0. -1.
    9900012    2    1    2    0    0  0.44435236958E+01  0.13996102124E+02 -0.11620780793E+02  0.72461592877E+02  0.70000029419E+02 0.  0.
         12    1    1    2    0    0 -0.44435236958E+01 -0.13996102124E+02  0.11620780793E+02  0.18726407123E+02  0.00000000000E+00 0. -1.
         11    1    3    3    0    0  0.12156682351E+02 -0.17883646043E+00 -0.19231467813E+02  0.22752280386E+02  0.51100000000E-03 0. -1.
        -11    1    3    3    0    0  0.10764836029E+02  0.24259316367E+02 -0.19030790633E+01  0.26608604539E+02  0.51100000000E-03 0.  1.
        -12    1    3    3    0    0 -0.18477994684E+02 -0.10084377783E+02  0.95137660841E+01  0.23100707952E+02  0.00000000000E+00 0.  1.
</event>
<event>
 7    1  0.3196678E-013  0.7246159E+02  0.7816164E-02  0.1226708E+00
        -11   -1    0    0    0    0  0.00000000000E+00  0.00000000000E+00  0.45593999997E+02  0.45594000000E+02  0.51100000000E-03 0.  1.
         11   -1    0    0    0    0 -0.00000000000E+00 -0.00000000000E+00 -0.45593999997E+02  0.45594000000E+02  0.51100000000E-03 0. -1.
    9900012    2    1    2    0    0  0.85716053663E+01  0.10849026226E+02  0.12629518607E+02  0.72461587400E+02  0.70000022283E+02 0.  0.
         12    1    1    2    0    0 -0.85716053663E+01 -0.10849026226E+02 -0.12629518607E+02  0.18726412600E+02  0.00000000000E+00 0. -1.
         11    1    3    3    0    0 -0.44710883692E+00 -0.34666258695E+01  0.28828412076E+01  0.45308029002E+01  0.51100000000E-03 0. -1.
        -11    1    3    3    0    0  0.37120069263E+02  0.44570504509E+01  0.39900944445E+01  0.37599011886E+02  0.51100000000E-03 0.  1.
         12    1    3    3    0    0 -0.28101355060E+02  0.98586016445E+01  0.57565829553E+01  0.30331772614E+02  0.00000000000E+00 0. -1.
</event>
<event>
 7    1  0.3196678E-013  0.7246160E+02  0.7816164E-02  0.1226708E+00
        -11   -1    0    0    0    0  0.00000000000E+00  0.00000000000E+00  0.45593999997E+02  0.45594000000E+02  0.51100000000E-03 0. -1.
         11   -1    0    0    0    0 -0.00000000000E+00 -0.00000000000E+00 -0.45593999997E+02  0.45594000000E+02  0.51100000000E-03 0.  1.
    9900012    2    1    2    0    0  0.16135618674E+02 -0.94037032359E+01  0.13748492049E+01  0.72461600590E+02  0.70000039465E+02 0.  0.
         12    1    1    2    0    0 -0.16135618674E+02  0.94037032359E+01 -0.13748492049E+01  0.18726399410E+02  0.00000000000E+00 0. -1.
         11    1    3    3    0    0  0.74456309094E+01 -0.43252410321E+01 -0.99606924362E+00  0.86681764993E+01  0.51100000000E-03 0. -1.
        -11    1    3    3    0    0  0.23926067342E+02 -0.21722286025E+02 -0.14696934684E+02  0.35500905594E+02  0.51100000000E-03 0.  1.
        -12    1    3    3    0    0 -0.15236079577E+02  0.16643823821E+02  0.17067853133E+02  0.28292518496E+02  0.00000000000E+00 0.  1.
</event>
<event>
 7    1  0.3196678E-013  0.7246154E+02  0.7816164E-02  0.1226708E+00
        -11   -1    0    0    0    0  0.00000000000E+00  0.00000000000E+00  0.45593999997E+02  0.45594000000E+02  0.51100000000E-03 0. -1.
         11   -1    0    0    0    0 -0.00000000000E+00 -0.00000000000E+00 -0.45593999997E+02  0.45594000000E+02  0.51100000000E-03 0.  1.
    9900012    2    1    2    0    0 -0.11347557632E+01  0.91681103879E+01 -0.16289205684E+02  0.72461544368E+02  0.69999966226E+02 0.  0.
         12    1    1    2    0    0  0.11347557632E+01 -0.91681103879E+01  0.16289205684E+02  0.18726455632E+02  0.00000000000E+00 0. -1.
         11    1    3    3    0    0  0.45372782635E+01 -0.75888505594E+01 -0.44432731626E+01  0.98954647951E+01  0.51100000000E-03 0. -1.
        -11    1    3    3    0    0  0.26671656237E+02  0.64865435861E+01 -0.65550019873E+01  0.28220923894E+02  0.51100000000E-03 0.  1.
        -12    1    3    3    0    0 -0.32343690264E+02  0.10270417361E+02 -0.52909305339E+01  0.34345155679E+02  0.00000000000E+00 0.  1.
</event>
<event>
 7    1  0.3196678E-013  0.7246162E+02  0.7816164E-02  0.1226708E+00
        -11   -1    0    0    0    0  0.00000000000E+00  0.00000000000E+00  0.45593999997E+02  0.45594000000E+02  0.51100000000E-03 0.  1.
         11   -1    0    0    0    0 -0.00000000000E+00 -0.00000000000E+00 -0.45593999997E+02  0.45594000000E+02  0.51100000000E-03 0. -1.
    9900012    2    1    2    0    0 -0.83610781788E+01  0.81069579345E+01  0.14664475551E+02  0.72461621854E+02  0.70000067167E+02 0.  0.
         12    1    1    2    0    0  0.83610781788E+01 -0.81069579345E+01 -0.14664475551E+02  0.18726378146E+02  0.00000000000E+00 0. -1.
         11    1    3    3    0    0 -0.17810851535E+02 -0.13100063958E+02  0.42134577148E+00  0.22113698032E+02  0.51100000000E-03 0. -1.
        -11    1    3    3    0    0 -0.64632341659E+00 -0.86326708869E+01  0.16638259999E+02  0.18755597476E+02  0.51100000000E-03 0.  1.
         12    1    3    3    0    0  0.10096096773E+02  0.29839692780E+02 -0.23951302199E+01  0.31592326347E+02  0.00000000000E+00 0. -1.
</event>
<event>
 7    1  0.3196678E-013  0.7246156E+02  0.7816164E-02  0.1226708E+00
        -11   -1    0    0    0    0  0.00000000000E+00  0.00000000000E+00  0.45593999997E+02  0.45594000000E+02  0.51100000000E-03 0. -1.
         11   -1    0    0    0    0 -0.00000000000E+00 -0.00000000000E+00 -0.45593999997E+02  0.45594000000E+02  0.51100000000E-03 0.  1.
    9900012    2    1    2    0    0  0.16894211599E+02 -0.38489644168E+01  0.71028498294E+01  0.72461564452E+02  0.69999992389E+02 0.  0.
         12    1    1    2    0    0 -0.16894211599E+02  0.38489644168E+01 -0.71028498294E+01  0.18726435548E+02  0.00000000000E+00 0. -1.
         11    1    3    3    0    0  0.14325037269E+02  0.11434640792E+02  0.18735391972E+02  0.26210162445E+02  0.51100000000E-03 0. -1.
        -11    1    3    3    0    0 -0.32956392826E+00  0.11181691465E+02 -0.15742664112E+02  0.19312439256E+02  0.51100000000E-03 0.  1.
         12    1    3    3    0    0  0.28987382585E+01 -0.26465296673E+02  0.41101219692E+01  0.26938962751E+02  0.00000000000E+00 0. -1.
</event>
<event>
 7    1  0.3196678E-013  0.7246156E+02  0.7816164E-02  0.1226708E+00
        -11   -1    0    0    0    0  0.00000000000E+00  0.00000000000E+00  0.45593999997E+02  0.45594000000E+02  0.51100000000E-03 0.  1.
         11   -1    0    0    0    0 -0.00000000000E+00 -0.00000000000E+00 -0.45593999997E+02  0.45594000000E+02  0.51100000000E-03 0. -1.
    9900012    2    1    2    0    0 -0.17406453851E+02  0.67609063078E+01 -0.14089471253E+01  0.72461558219E+02  0.69999984270E+02 0.  0.
         12    1    1    2    0    0  0.17406453851E+02 -0.67609063078E+01  0.14089471253E+01  0.18726441781E+02  0.00000000000E+00 0. -1.
         11    1    3    3    0    0 -0.17104570418E+02  0.16394620246E+02 -0.16979152017E+02  0.29148610699E+02  0.51100000000E-03 0. -1.
        -11    1    3    3    0    0 -0.16987281304E+02 -0.62908154312E+01 -0.27347628814E+01  0.18319962150E+02  0.51100000000E-03 0.  1.
        -12    1    3    3    0    0  0.16685397871E+02 -0.33428985074E+01  0.18304967773E+02  0.24992985370E+02  0.00000000000E+00 0.  1.
</event>
<event>
 7    1  0.3196678E-013  0.7246179E+02  0.7816164E-02  0.1226707E+00
        -11   -1    0    0    0    0  0.00000000000E+00  0.00000000000E+00  0.45593999997E+02  0.45594000000E+02  0.51100000000E-03 0. -1.
         11   -1    0    0    0    0 -0.00000000000E+00 -0.00000000000E+00 -0.45593999997E+02  0.45594000000E+02  0.51100000000E-03 0.  1.
    9900012    2    1    2    0    0  0.13863106277E+02  0.37773806196E+01 -0.12009017568E+02  0.72461793151E+02  0.70000290312E+02 0.  0.
         12    1    1    2    0    0 -0.13863106277E+02 -0.37773806196E+01  0.12009017568E+02  0.18726206849E+02  0.00000000000E+00 0. -1.
         11    1    3    3    0    0 -0.75016825623E+01 -0.17289043991E+02 -0.88519498005E+01  0.20821702594E+02  0.51100000000E-03 0. -1.
        -11    1    3    3    0    0  0.15154628663E+02 -0.39396473353E+01  0.13736766712E+02  0.20829842798E+02  0.51100000000E-03 0.  1.
        -12    1    3    3    0    0  0.62101601762E+01  0.25006071946E+02 -0.16893834479E+02  0.30810247759E+02  0.00000000000E+00 0.  1.
</event>
<event>
 7    1  0.3196678E-013  0.7246158E+02  0.7816164E-02  0.1226708E+00
        -11   -1    0    0    0    0  0.00000000000E+00  0.00000000000E+00  0.45593999997E+02  0.45594000000E+02  0.51100000000E-03 0. -1.
         11   -1    0    0    0    0 -0.00000000000E+00 -0.00000000000E+00 -0.45593999997E+02  0.45594000000E+02  0.51100000000E-03 0.  1.
    9900012    2    1    2    0    0 -0.17363160969E+02 -0.38395733625E+01  0.58700196514E+01  0.72461579810E+02  0.70000012396E+02 0.  0.
         12    1    1    2    0    0  0.17363160969E+02  0.38395733625E+01 -0.58700196514E+01  0.18726420190E+02  0.00000000000E+00 0. -1.
         11    1    3    3    0    0  0.69042710122E+01 -0.69362601112E+00  0.12909964461E+02  0.14656645520E+02  0.51100000000E-03 0. -1.
        -11    1    3    3    0    0  0.46142151571E+01  0.18626079707E+02  0.47407887376E+01  0.19766054358E+02  0.51100000000E-03 0.  1.
         12    1    3    3    0    0 -0.28881647138E+02 -0.21772027058E+02 -0.11780733547E+02  0.38038879932E+02  0.00000000000E+00 0. -1.
</event>
<event>
 7    1  0.3196678E-013  0.7246156E+02  0.7816164E-02  0.1226708E+00
        -11   -1    0    0    0    0  0.00000000000E+00  0.00000000000E+00  0.45593999997E+02  0.45594000000E+02  0.51100000000E-03 0. -1.
         11   -1    0    0    0    0 -0.00000000000E+00 -0.00000000000E+00 -0.45593999997E+02  0.45594000000E+02  0.51100000000E-03 0.  1.
    9900012    2    1    2    0    0  0.95450505720E+01  0.15957235199E+02 -0.22222128980E+01  0.72461559447E+02  0.69999985870E+02 0.  0.
         12    1    1    2    0    0 -0.95450505720E+01 -0.15957235199E+02  0.22222128980E+01  0.18726440553E+02  0.00000000000E+00 0. -1.
         11    1    3    3    0    0 -0.76715417778E+00 -0.57933757448E+00 -0.85082226752E+01  0.85623601250E+01  0.51100000000E-03 0. -1.
        -11    1    3    3    0    0 -0.47005726196E+01  0.13076228998E+02 -0.25238822313E+02  0.28811131526E+02  0.51100000000E-03 0.  1.
         12    1    3    3    0    0  0.15012777369E+02  0.34603437748E+01  0.31524832090E+02  0.35088067797E+02  0.00000000000E+00 0. -1.
</event>
<event>
 7    1  0.3196678E-013  0.7246160E+02  0.7816164E-02  0.1226708E+00
        -11   -1    0    0    0    0  0.00000000000E+00  0.00000000000E+00  0.45593999997E+02  0.45594000000E+02  0.51100000000E-03 0.  1.
         11   -1    0    0    0    0 -0.00000000000E+00 -0.00000000000E+00 -0.45593999997E+02  0.45594000000E+02  0.51100000000E-03 0. -1.
    9900012    2    1    2    0    0 -0.97566034838E+01  0.79076403773E+00  0.15964382253E+02  0.72461598316E+02  0.70000036503E+02 0.  0.
         12    1    1    2    0    0  0.97566034838E+01 -0.79076403773E+00 -0.15964382253E+02  0.18726401684E+02  0.00000000000E+00 0. -1.
         11    1    3    3    0    0  0.51976527771E+01 -0.99208662737E+01 -0.10981113647E+02  0.15685153465E+02  0.51100000000E-03 0. -1.
        -11    1    3    3    0    0 -0.13658919364E+02 -0.14665115927E+02  0.42138188581E+00  0.20045180626E+02  0.51100000000E-03 0.  1.
        -12    1    3    3    0    0 -0.12953368964E+01  0.25376746238E+02  0.26524114015E+02  0.36731264226E+02  0.00000000000E+00 0.  1.
</event>
<event>
 7    1  0.3196678E-013  0.7246177E+02  0.7816164E-02  0.1226707E+00
        -11   -1    0    0    0    0  0.00000000000E+00  0.00000000000E+00  0.45593999997E+02  0.45594000000E+02  0.51100000000E-03 0. -1.
         11   -1    0    0    0    0 -0.00000000000E+00 -0.00000000000E+00 -0.45593999997E+02  0.45594000000E+02  0.51100000000E-03 0.  1.
    9900012    2    1    2    0    0  0.18325180808E+01  0.29668108427E+01 -0.18398689075E+02  0.72461765762E+02  0.70000254632E+02 0.  0.
         12    1    1    2    0    0 -0.18325180808E+01 -0.29668108427E+01  0.18398689075E+02  0.18726234238E+02  0.00000000000E+00 0. -1.
         11    1    3    3    0    0 -0.70547530459E+01  0.74804412385E+01 -0.66239764290E+00  0.10303655301E+02  0.51100000000E-03 0. -1.
        -11    1    3    3    0    0 -0.22015154244E+02 -0.76184058917E+01  0.47996355990E+01  0.23785365813E+02  0.51100000000E-03 0.  1.
         12    1    3    3    0    0  0.30902425371E+02  0.31047754959E+01 -0.22535927031E+02  0.38372744648E+02  0.00000000000E+00 0. -1.
</event>
<event>
 7    1  0.3196678E-013  0.7246155E+02  0.7816164E-02  0.1226708E+00
        -11   -1    0    0    0    0  0.00000000000E+00  0.00000000000E+00  0.45593999997E+02  0.45594000000E+02  0.51100000000E-03 0.  1.
         11   -1    0    0    0    0 -0.00000000000E+00 -0.00000000000E+00 -0.45593999997E+02  0.45594000000E+02  0.51100000000E-03 0. -1.
    9900012    2    1    2    0    0  0.62390859268E+01  0.17378654182E+02  0.31202656557E+01  0.72461551534E+02  0.69999975561E+02 0.  0.
         12    1    1    2    0    0 -0.62390859268E+01 -0.17378654182E+02 -0.31202656557E+01  0.18726448466E+02  0.00000000000E+00 0. -1.
         11    1    3    3    0    0 -0.54671228222E+01  0.10035966708E+02  0.68773713226E+00  0.11449150289E+02  0.51100000000E-03 0. -1.
        -11    1    3    3    0    0 -0.20818211917E+02  0.14619429064E+02  0.91116212685E+01  0.27021237869E+02  0.51100000000E-03 0.  1.
         12    1    3    3    0    0  0.32524420666E+02 -0.72767415891E+01 -0.66790927451E+01  0.33991163377E+02  0.00000000000E+00 0. -1.
</event>
<event>
 7    1  0.3196678E-013  0.7246153E+02  0.7816164E-02  0.1226708E+00
        -11   -1    0    0    0    0  0.00000000000E+00  0.00000000000E+00  0.45593999997E+02  0.45594000000E+02  0.51100000000E-03 0. -1.
         11   -1    0    0    0    0 -0.00000000000E+00 -0.00000000000E+00 -0.45593999997E+02  0.45594000000E+02  0.51100000000E-03 0.  1.
    9900012    2    1    2    0    0 -0.12657780032E+02  0.12128877598E+02 -0.65842065567E+01  0.72461525609E+02  0.69999941789E+02 0.  0.
         12    1    1    2    0    0  0.12657780032E+02 -0.12128877598E+02  0.65842065567E+01  0.18726474391E+02  0.00000000000E+00 0. -1.
         11    1    3    3    0    0  0.25442160584E+01  0.15405243382E+02 -0.44633821263E+01  0.16239345407E+02  0.51100000000E-03 0. -1.
        -11    1    3    3    0    0  0.40582593095E+01  0.61997236417E+01 -0.24271453058E+02  0.25377341777E+02  0.51100000000E-03 0.  1.
         12    1    3    3    0    0 -0.19260255400E+02 -0.94760894251E+01  0.22150628628E+02  0.30844838425E+02  0.00000000000E+00 0. -1.
</event>
<event>
 7    1  0.3196678E-013  0.7246157E+02  0.7816164E-02  0.1226708E+00
        -11   -1    0    0    0    0  0.00000000000E+00  0.00000000000E+00  0.45593999997E+02  0.45594000000E+02  0.51100000000E-03 0. -1.
         11   -1    0    0    0    0 -0.00000000000E+00 -0.00000000000E+00 -0.45593999997E+02  0.45594000000E+02  0.51100000000E-03 0.  1.
    9900012    2    1    2    0    0  0.59263512118E+01 -0.17594140629E+02 -0.24502887316E+01  0.72461565795E+02  0.69999994139E+02 0.  0.
         12    1    1    2    0    0 -0.59263512118E+01  0.17594140629E+02  0.24502887316E+01  0.18726434205E+02  0.00000000000E+00 0. -1.
         11    1    3    3    0    0 -0.75689319203E+00 -0.16600355491E+02  0.15654084856E+01  0.16691171131E+02  0.51100000000E-03 0. -1.
        -11    1    3    3    0    0 -0.80264231252E+01 -0.25000251844E+02 -0.77311434995E+01  0.27371639346E+02  0.51100000000E-03 0.  1.
         12    1    3    3    0    0  0.14709667529E+02  0.24006466706E+02  0.37154462823E+01  0.28398755318E+02  0.00000000000E+00 0. -1.
</event>
<event>
 7    1  0.3196678E-013  0.7246141E+02  0.7816164E-02  0.1226708E+00
        -11   -1    0    0    0    0  0.00000000000E+00  0.00000000000E+00  0.45593999997E+02  0.45594000000E+02  0.51100000000E-03 0.  1.
         11   -1    0    0    0    0 -0.00000000000E+00 -0.00000000000E+00 -0.45593999997E+02  0.45594000000E+02  0.51100000000E-03 0. -1.
    9900012    2    1    2    0    0  0.80942449851E+01 -0.15233886497E+02  0.72867846028E+01  0.72461405822E+02  0.69999785743E+02 0.  0.
         12    1    1    2    0    0 -0.80942449851E+01  0.15233886497E+02 -0.72867846028E+01  0.18726594178E+02  0.00000000000E+00 0. -1.
         11    1    3    3    0    0  0.17675914131E+01  0.13430653494E+02 -0.37018397310E+01  0.14043163829E+02  0.51100000000E-03 0. -1.
        -11    1    3    3    0    0 -0.43784228408E+01  0.12921083927E+02 -0.14291518264E+01  0.13717414903E+02  0.51100000000E-03 0.  1.
         12    1    3    3    0    0  0.10705076413E+02 -0.41585623918E+02  0.12417776160E+02  0.44700827089E+02  0.00000000000E+00 0. -1.
</event>
<event>
 7    1  0.3196678E-013  0.7246151E+02  0.7816164E-02  0.1226708E+00
        -11   -1    0    0    0    0  0.00000000000E+00  0.00000000000E+00  0.45593999997E+02  0.45594000000E+02  0.51100000000E-03 0.  1.
         11   -1    0    0    0    0 -0.00000000000E+00 -0.00000000000E+00 -0.45593999997E+02  0.45594000000E+02  0.51100000000E-03 0. -1.
    9900012    2    1    2    0    0 -0.11734194720E+01 -0.59812014561E-01  0.18689592280E+02  0.72461512066E+02  0.69999924147E+02 0.  0.
         12    1    1    2    0    0  0.11734194720E+01  0.59812014561E-01 -0.18689592280E+02  0.18726487934E+02  0.00000000000E+00 0. -1.
         11    1    3    3    0    0  0.10538347960E+02 -0.94306825530E+01  0.48569053216E+01  0.14952728203E+02  0.51100000000E-03 0. -1.
        -11    1    3    3    0    0 -0.14623754683E+02 -0.11014494761E+02 -0.13885978503E+02  0.22978113393E+02  0.51100000000E-03 0.  1.
        -12    1    3    3    0    0  0.29119872513E+01  0.20385365299E+02  0.27718665462E+02  0.34530670470E+02  0.00000000000E+00 0.  1.
</event>
<event>
 7    1  0.3196678E-013  0.7246158E+02  0.7816164E-02  0.1226708E+00
        -11   -1    0    0    0    0  0.00000000000E+00  0.00000000000E+00  0.45593999997E+02  0.45594000000E+02  0.51100000000E-03 0.  1.
         11   -1    0    0    0    0 -0.00000000000E+00 -0.00000000000E+00 -0.45593999997E+02  0.45594000000E+02  0.51100000000E-03 0. -1.
    9900012    2    1    2    0    0  0.18239581438E+02  0.18756581730E+01  0.38050426598E+01  0.72461580848E+02  0.70000013748E+02 0.  0.
         12    1    1    2    0    0 -0.18239581438E+02 -0.18756581730E+01 -0.38050426598E+01  0.18726419152E+02  0.00000000000E+00 0. -1.
         11    1    3    3    0    0  0.63944487739E+01  0.19815408591E+02  0.15705155912E+01  0.20880754590E+02  0.51100000000E-03 0. -1.
        -11    1    3    3    0    0  0.78456219364E+01  0.15260718254E+02  0.54047109000E+01  0.17990392030E+02  0.51100000000E-03 0.  1.
         12    1    3    3    0    0  0.39995107275E+01 -0.33200468673E+02 -0.31701838314E+01  0.33590434229E+02  0.00000000000E+00 0. -1.
</event>
<event>
 7    1  0.3196678E-013  0.7246165E+02  0.7816164E-02  0.1226708E+00
        -11   -1    0    0    0    0  0.00000000000E+00  0.00000000000E+00  0.45593999997E+02  0.45594000000E+02  0.51100000000E-03 0.  1.
         11   -1    0    0    0    0 -0.00000000000E+00 -0.00000000000E+00 -0.45593999997E+02  0.45594000000E+02  0.51100000000E-03 0. -1.
    9900012    2    1    2    0    0  0.16567379838E+02 -0.80583566719E+01  0.33557624003E+01  0.72461646158E+02  0.70000098826E+02 0.  0.
         12    1    1    2    0    0 -0.16567379838E+02  0.80583566719E+01 -0.33557624003E+01  0.18726353842E+02  0.00000000000E+00 0. -1.
         11    1    3    3    0    0  0.69995641195E+01  0.10123013603E+02  0.67257803098E+01  0.14025171062E+02  0.51100000000E-03 0. -1.
        -11    1    3    3    0    0  0.22664070061E+02 -0.74302331148E+01  0.18915426981E+02  0.30441120446E+02  0.51100000000E-03 0.  1.
         12    1    3    3    0    0 -0.13096254343E+02 -0.10751137160E+02 -0.22285444890E+02  0.27995354650E+02  0.00000000000E+00 0. -1.
</event>
<event>
 7    1  0.3196678E-013  0.7246157E+02  0.7816164E-02  0.1226708E+00
        -11   -1    0    0    0    0  0.00000000000E+00  0.00000000000E+00  0.45593999997E+02  0.45594000000E+02  0.51100000000E-03 0.  1.
         11   -1    0    0    0    0 -0.00000000000E+00 -0.00000000000E+00 -0.45593999997E+02  0.45594000000E+02  0.51100000000E-03 0. -1.
    9900012    2    1    2    0    0  0.46154587024E+01  0.14296902687E+02  0.11179234692E+02  0.72461570181E+02  0.69999999852E+02 0.  0.
         12    1    1    2    0    0 -0.46154587024E+01 -0.14296902687E+02 -0.11179234692E+02  0.18726429819E+02  0.00000000000E+00 0. -1.
         11    1    3    3    0    0  0.48286988172E+01 -0.36239810940E+01 -0.16199613678E+02  0.17288061049E+02  0.51100000000E-03 0. -1.
        -11    1    3    3    0    0 -0.85089900425E+01 -0.99371064700E+01 -0.26857636650E+01  0.13355235800E+02  0.51100000000E-03 0.  1.
        -12    1    3    3    0    0  0.82957499277E+01  0.27857990251E+02  0.30064612035E+02  0.41818273333E+02  0.00000000000E+00 0.  1.
</event>
<event>
 7    1  0.3196678E-013  0.7246151E+02  0.7816164E-02  0.1226708E+00
        -11   -1    0    0    0    0  0.00000000000E+00  0.00000000000E+00  0.45593999997E+02  0.45594000000E+02  0.51100000000E-03 0.  1.
         11   -1    0    0    0    0 -0.00000000000E+00 -0.00000000000E+00 -0.45593999997E+02  0.45594000000E+02  0.51100000000E-03 0. -1.
    9900012    2    1    2    0    0  0.14694128710E+02  0.29392642148E+01  0.11230529633E+02  0.72461508377E+02  0.69999919341E+02 0.  0.
         12    1    1    2    0    0 -0.14694128710E+02 -0.29392642148E+01 -0.11230529633E+02  0.18726491623E+02  0.00000000000E+00 0. -1.
         11    1    3    3    0    0 -0.13764567394E+02  0.17744723858E+01  0.61985335286E+01  0.15199798879E+02  0.51100000000E-03 0. -1.
        -11    1    3    3    0    0  0.70395560595E+01 -0.13987110478E+02  0.21265813308E+02  0.26408889128E+02  0.51100000000E-03 0.  1.
        -12    1    3    3    0    0  0.21419140045E+02  0.15151902307E+02 -0.16233817204E+02  0.30852820370E+02  0.00000000000E+00 0.  1.
</event>
<event>
 7    1  0.3196678E-013  0.7246158E+02  0.7816164E-02  0.1226708E+00
        -11   -1    0    0    0    0  0.00000000000E+00  0.00000000000E+00  0.45593999997E+02  0.45594000000E+02  0.51100000000E-03 0.  1.
         11   -1    0    0    0    0 -0.00000000000E+00 -0.00000000000E+00 -0.45593999997E+02  0.45594000000E+02  0.51100000000E-03 0. -1.
    9900012    2    1    2    0    0  0.15187887398E+02  0.57481626617E+01  0.93255252313E+01  0.72461582338E+02  0.70000015689E+02 0.  0.
         12    1    1    2    0    0 -0.15187887398E+02 -0.57481626617E+01 -0.93255252313E+01  0.18726417662E+02  0.00000000000E+00 0. -1.
         11    1    3    3    0    0 -0.10050546672E+01  0.48883619623E+01  0.21227974176E+00  0.49951256749E+01  0.51100000000E-03 0. -1.
        -11    1    3    3    0    0 -0.19236278969E+02  0.17350549777E+02 -0.40714763467E+01  0.26223137227E+02  0.51100000000E-03 0.  1.
         12    1    3    3    0    0  0.35429221034E+02 -0.16490749077E+02  0.13184721836E+02  0.41243319436E+02  0.00000000000E+00 0. -1.
</event>
<event>
 7    1  0.3196678E-013  0.7246154E+02  0.7816164E-02  0.1226708E+00
        -11   -1    0    0    0    0  0.00000000000E+00  0.00000000000E+00  0.45593999997E+02  0.45594000000E+02  0.51100000000E-03 0.  1.
         11   -1    0    0    0    0 -0.00000000000E+00 -0.00000000000E+00 -0.45593999997E+02  0.45594000000E+02  0.51100000000E-03 0. -1.
    9900012    2    1    2    0    0 -0.13409409991E+02  0.65524816118E+01  0.11310742251E+02  0.72461543265E+02  0.69999964789E+02 0.  0.
         12    1    1    2    0    0  0.13409409991E+02 -0.65524816118E+01 -0.11310742251E+02  0.18726456735E+02  0.00000000000E+00 0. -1.
         11    1    3    3    0    0 -0.20026726059E+02  0.60605646181E+01  0.15750074649E+01  0.20982870368E+02  0.51100000000E-03 0. -1.
        -11    1    3    3    0    0 -0.11237506143E+02  0.20448454402E+02  0.11623687232E+01  0.23361762199E+02  0.51100000000E-03 0.  1.
         12    1    3    3    0    0  0.17854822211E+02 -0.19956537408E+02  0.85733660628E+01  0.28116910697E+02  0.00000000000E+00 0. -1.
</event>
<event>
 7    1  0.3196678E-013  0.7246110E+02  0.7816164E-02  0.1226709E+00
        -11   -1    0    0    0    0  0.00000000000E+00  0.00000000000E+00  0.45593999997E+02  0.45594000000E+02  0.51100000000E-03 0. -1.
         11   -1    0    0    0    0 -0.00000000000E+00 -0.00000000000E+00 -0.45593999997E+02  0.45594000000E+02  0.51100000000E-03 0.  1.
    9900012    2    1    2    0    0 -0.17421207176E+02 -0.65509199234E+01 -0.20697360730E+01  0.72461099062E+02  0.69999386130E+02 0.  0.
         12    1    1    2    0    0  0.17421207176E+02  0.65509199234E+01  0.20697360730E+01  0.18726900938E+02  0.00000000000E+00 0. -1.
         11    1    3    3    0    0 -0.20067158661E+01 -0.44940389471E+01  0.15027249110E+02  0.15812700930E+02  0.51100000000E-03 0. -1.
        -11    1    3    3    0    0  0.16034780188E+02  0.11524688349E+02 -0.65611957682E+01  0.20808217305E+02  0.51100000000E-03 0.  1.
         12    1    3    3    0    0 -0.31449271498E+02 -0.13581569326E+02 -0.10535789415E+02  0.35840180827E+02  0.00000000000E+00 0. -1.
</event>
<event>
 7    1  0.3196678E-013  0.7246192E+02  0.7816164E-02  0.1226707E+00
        -11   -1    0    0    0    0  0.00000000000E+00  0.00000000000E+00  0.45593999997E+02  0.45594000000E+02  0.51100000000E-03 0. -1.
         11   -1    0    0    0    0 -0.00000000000E+00 -0.00000000000E+00 -0.45593999997E+02  0.45594000000E+02  0.51100000000E-03 0.  1.
    9900012    2    1    2    0    0 -0.17700060753E+00 -0.20463652112E+01 -0.18613094249E+02  0.72461916124E+02  0.70000450506E+02 0.  0.
         12    1    1    2    0    0  0.17700060753E+00  0.20463652112E+01  0.18613094249E+02  0.18726083876E+02  0.00000000000E+00 0. -1.
         11    1    3    3    0    0 -0.56957341857E+01 -0.19163128211E+01 -0.23649480472E+00  0.60141144648E+01  0.51100000000E-03 0. -1.
        -11    1    3    3    0    0 -0.22932302861E+02 -0.11974153941E+02 -0.23804268083E+02  0.35155569351E+02  0.51100000000E-03 0.  1.
         12    1    3    3    0    0  0.28451036439E+02  0.11844101551E+02  0.54276686392E+01  0.31292232309E+02  0.00000000000E+00 0. -1.
</event>
<event>
 7    1  0.3196678E-013  0.7246157E+02  0.7816164E-02  0.1226708E+00
        -11   -1    0    0    0    0  0.00000000000E+00  0.00000000000E+00  0.45593999997E+02  0.45594000000E+02  0.51100000000E-03 0.  1.
         11   -1    0    0    0    0 -0.00000000000E+00 -0.00000000000E+00 -0.45593999997E+02  0.45594000000E+02  0.51100000000E-03 0. -1.
    9900012    2    1    2    0    0  0.52479817596E+01  0.90912370223E+01  0.15507654154E+02  0.72461568399E+02  0.69999997531E+02 0.  0.
         12    1    1    2    0    0 -0.52479817596E+01 -0.90912370223E+01 -0.15507654154E+02  0.18726431601E+02  0.00000000000E+00 0. -1.
         11    1    3    3    0    0 -0.83330823778E+01  0.18447911547E+02 -0.67619575885E+01  0.21342206377E+02  0.51100000000E-03 0. -1.
        -11    1    3    3    0    0 -0.10442361395E+02  0.49958846736E+01  0.19916572902E+02  0.23036311589E+02  0.51100000000E-03 0.  1.
         12    1    3    3    0    0  0.24023425532E+02 -0.14352559198E+02  0.23530388403E+01  0.28083050433E+02  0.00000000000E+00 0. -1.
</event>
<event>
 7    1  0.3196678E-013  0.7246140E+02  0.7816164E-02  0.1226708E+00
        -11   -1    0    0    0    0  0.00000000000E+00  0.00000000000E+00  0.45593999997E+02  0.45594000000E+02  0.51100000000E-03 0.  1.
         11   -1    0    0    0    0 -0.00000000000E+00 -0.00000000000E+00 -0.45593999997E+02  0.45594000000E+02  0.51100000000E-03 0. -1.
    9900012    2    1    2    0    0  0.77948496192E+01 -0.85307900956E+01  0.14736056114E+02  0.72461403672E+02  0.69999782943E+02 0.  0.
         12    1    1    2    0    0 -0.77948496192E+01  0.85307900956E+01 -0.14736056114E+02  0.18726596328E+02  0.00000000000E+00 0. -1.
         11    1    3    3    0    0  0.24359399969E+02 -0.65541770742E+01 -0.17746105706E+02  0.30842533488E+02  0.51100000000E-03 0. -1.
        -11    1    3    3    0    0 -0.52945030887E+01 -0.85116319322E+01  0.49924422616E+01  0.11198398149E+02  0.51100000000E-03 0.  1.
        -12    1    3    3    0    0 -0.11270047261E+02  0.65350189108E+01  0.27489719559E+02  0.30420472035E+02  0.00000000000E+00 0.  1.
</event>
<event>
 7    1  0.3196678E-013  0.7246156E+02  0.7816164E-02  0.1226708E+00
        -11   -1    0    0    0    0  0.00000000000E+00  0.00000000000E+00  0.45593999997E+02  0.45594000000E+02  0.51100000000E-03 0.  1.
         11   -1    0    0    0    0 -0.00000000000E+00 -0.00000000000E+00 -0.45593999997E+02  0.45594000000E+02  0.51100000000E-03 0. -1.
    9900012    2    1    2    0    0 -0.12297674519E+02  0.37540272160E+01  0.13614482612E+02  0.72461557313E+02  0.69999983089E+02 0.  0.
         12    1    1    2    0    0  0.12297674519E+02 -0.37540272160E+01 -0.13614482612E+02  0.18726442687E+02  0.00000000000E+00 0. -1.
         11    1    3    3    0    0 -0.10880560220E+01  0.91280694811E+01 -0.70577433871E+01  0.11589532361E+02  0.51100000000E-03 0. -1.
        -11    1    3    3    0    0  0.20704874570E+02  0.32791181812E+01  0.18116657064E+02  0.27706636578E+02  0.51100000000E-03 0.  1.
         12    1    3    3    0    0 -0.31914493067E+02 -0.86531604463E+01  0.25555689352E+01  0.33165388375E+02  0.00000000000E+00 0. -1.
</event>
<event>
 7    1  0.3196678E-013  0.7246158E+02  0.7816164E-02  0.1226708E+00
        -11   -1    0    0    0    0  0.00000000000E+00  0.00000000000E+00  0.45593999997E+02  0.45594000000E+02  0.51100000000E-03 0. -1.
         11   -1    0    0    0    0 -0.00000000000E+00 -0.00000000000E+00 -0.45593999997E+02  0.45594000000E+02  0.51100000000E-03 0.  1.
    9900012    2    1    2    0    0  0.25986334086E+01  0.18163104372E+02 -0.37453424373E+01  0.72461578933E+02  0.70000011254E+02 0.  0.
         12    1    1    2    0    0 -0.25986334086E+01 -0.18163104372E+02  0.37453424373E+01  0.18726421067E+02  0.00000000000E+00 0. -1.
         11    1    3    3    0    0 -0.14096542110E+01  0.12528479685E+02 -0.83782442849E+01  0.15137533015E+02  0.51100000000E-03 0. -1.
        -11    1    3    3    0    0 -0.19402111973E+02 -0.12218513432E+02 -0.93115873668E+01  0.24747518645E+02  0.51100000000E-03 0.  1.
         12    1    3    3    0    0  0.23410399593E+02  0.17853138118E+02  0.13944489214E+02  0.32576527274E+02  0.00000000000E+00 0. -1.
</event>
<event>
 7    1  0.3196678E-013  0.7246155E+02  0.7816164E-02  0.1226708E+00
        -11   -1    0    0    0    0  0.00000000000E+00  0.00000000000E+00  0.45593999997E+02  0.45594000000E+02  0.51100000000E-03 0.  1.
         11   -1    0    0    0    0 -0.00000000000E+00 -0.00000000000E+00 -0.45593999997E+02  0.45594000000E+02  0.51100000000E-03 0. -1.
    9900012    2    1    2    0    0 -0.10359728350E+02 -0.12275138984E+02  0.96268884355E+01  0.72461548401E+02  0.69999971479E+02 0.  0.
         12    1    1    2    0    0  0.10359728350E+02  0.12275138984E+02 -0.96268884355E+01  0.18726451599E+02  0.00000000000E+00 0. -1.
         11    1    3    3    0    0 -0.19310099911E+02 -0.54233398687E+01 -0.15422636588E+02  0.25301191543E+02  0.51100000000E-03 0. -1.
        -11    1    3    3    0    0  0.13579463722E+01  0.10337305289E+02 -0.51214299154E+01  0.11616064034E+02  0.51100000000E-03 0.  1.
        -12    1    3    3    0    0  0.75924251882E+01 -0.17189104404E+02  0.30170954939E+02  0.35544292824E+02  0.00000000000E+00 0.  1.
</event>
<event>
 7    1  0.3196678E-013  0.7246141E+02  0.7816164E-02  0.1226708E+00
        -11   -1    0    0    0    0  0.00000000000E+00  0.00000000000E+00  0.45593999997E+02  0.45594000000E+02  0.51100000000E-03 0. -1.
         11   -1    0    0    0    0 -0.00000000000E+00 -0.00000000000E+00 -0.45593999997E+02  0.45594000000E+02  0.51100000000E-03 0.  1.
    9900012    2    1    2    0    0  0.97889849755E+01 -0.14234482583E+02 -0.72277482000E+01  0.72461412876E+02  0.69999794933E+02 0.  0.
         12    1    1    2    0    0 -0.97889849755E+01  0.14234482583E+02  0.72277482000E+01  0.18726587124E+02  0.00000000000E+00 0. -1.
         11    1    3    3    0    0 -0.19690480308E+02 -0.11833478421E+01 -0.98521507172E+01  0.22049494346E+02  0.51100000000E-03 0. -1.
        -11    1    3    3    0    0  0.18353889780E+02  0.18833402720E+01 -0.15743857974E+02  0.24254511020E+02  0.51100000000E-03 0.  1.
        -12    1    3    3    0    0  0.11125575504E+02 -0.14934475013E+02  0.18368260491E+02  0.26157407511E+02  0.00000000000E+00 0.  1.
</event>
<event>
 7    1  0.3196678E-013  0.7246159E+02  0.7816164E-02  0.1226708E+00
        -11   -1    0    0    0    0  0.00000000000E+00  0.00000000000E+00  0.45593999997E+02  0.45594000000E+02  0.51100000000E-03 0. -1.
         11   -1    0    0    0    0 -0.00000000000E+00 -0.00000000000E+00 -0.45593999997E+02  0.45594000000E+02  0.51100000000E-03 0.  1.
    9900012    2    1    2    0    0  0.18294916957E+02  0.15554153229E+01 -0.36817055221E+01  0.72461594609E+02  0.70000031675E+02 0.  0.
         12    1    1    2    0    0 -0.18294916957E+02 -0.15554153229E+01  0.36817055221E+01  0.18726405391E+02  0.00000000000E+00 0. -1.
         11    1    3    3    0    0 -0.88692643042E+01 -0.14128414285E+02 -0.55937633241E+01  0.17594491407E+02  0.51100000000E-03 0. -1.
        -11    1    3    3    0    0  0.27233366461E+02 -0.88292377577E+01  0.77683440090E+01  0.29664100477E+02  0.51100000000E-03 0.  1.
         12    1    3    3    0    0 -0.69185199556E-01  0.24513067365E+02 -0.58562862070E+01  0.25203002725E+02  0.00000000000E+00 0. -1.
</event>
<event>
 7    1  0.3196678E-013  0.7246132E+02  0.7816164E-02  0.1226709E+00
        -11   -1    0    0    0    0  0.00000000000E+00  0.00000000000E+00  0.45593999997E+02  0.45594000000E+02  0.51100000000E-03 0.  1.
         11   -1    0    0    0    0 -0.00000000000E+00 -0.00000000000E+00 -0.45593999997E+02  0.45594000000E+02  0.51100000000E-03 0. -1.
    9900012    2    1    2    0    0 -0.68738588960E+01  0.68288519200E+01  0.16025150499E+02  0.72461318415E+02  0.69999671880E+02 0.  0.
         12    1    1    2    0    0  0.68738588960E+01 -0.68288519200E+01 -0.16025150499E+02  0.18726681585E+02  0.00000000000E+00 0. -1.
         11    1    3    3    0    0 -0.14564555536E+02  0.14222240468E+02 -0.11090638873E+02  0.23181903994E+02  0.51100000000E-03 0. -1.
        -11    1    3    3    0    0  0.13992792167E+02  0.13098256923E+02  0.88359196430E+01  0.21105355796E+02  0.51100000000E-03 0.  1.
        -12    1    3    3    0    0 -0.63020955266E+01 -0.20491645472E+02  0.18279869728E+02  0.28174058626E+02  0.00000000000E+00 0.  1.
</event>
<event>
 7    1  0.3196678E-013  0.7246160E+02  0.7816164E-02  0.1226708E+00
        -11   -1    0    0    0    0  0.00000000000E+00  0.00000000000E+00  0.45593999997E+02  0.45594000000E+02  0.51100000000E-03 0. -1.
         11   -1    0    0    0    0 -0.00000000000E+00 -0.00000000000E+00 -0.45593999997E+02  0.45594000000E+02  0.51100000000E-03 0.  1.
    9900012    2    1    2    0    0  0.19219103896E+01 -0.42678460755E+01 -0.18132012615E+02  0.72461598019E+02  0.70000036117E+02 0.  0.
         12    1    1    2    0    0 -0.19219103896E+01  0.42678460755E+01  0.18132012615E+02  0.18726401981E+02  0.00000000000E+00 0. -1.
         11    1    3    3    0    0 -0.11175087078E+02 -0.17109540965E+02 -0.46033277585E+01  0.20947782459E+02  0.51100000000E-03 0. -1.
        -11    1    3    3    0    0  0.15319871000E+02 -0.11302154646E+02  0.64461234768E+01  0.20099493905E+02  0.51100000000E-03 0.  1.
        -12    1    3    3    0    0 -0.22228735325E+01  0.24143849536E+02 -0.19974808333E+02  0.31414321656E+02  0.00000000000E+00 0.  1.
</event>
<event>
 7    1  0.3196678E-013  0.7246163E+02  0.7816164E-02  0.1226708E+00
        -11   -1    0    0    0    0  0.00000000000E+00  0.00000000000E+00  0.45593999997E+02  0.45594000000E+02  0.51100000000E-03 0. -1.
         11   -1    0    0    0    0 -0.00000000000E+00 -0.00000000000E+00 -0.45593999997E+02  0.45594000000E+02  0.51100000000E-03 0.  1.
    9900012    2    1    2    0    0 -0.15358478811E+02 -0.45880860321E+01  0.96821255812E+01  0.72461629273E+02  0.70000076831E+02 0.  0.
         12    1    1    2    0    0  0.15358478811E+02  0.45880860321E+01 -0.96821255812E+01  0.18726370727E+02  0.00000000000E+00 0. -1.
         11    1    3    3    0    0 -0.12118761118E+01 -0.23694221272E+02  0.14826963168E+02  0.27977197902E+02  0.51100000000E-03 0. -1.
        -11    1    3    3    0    0 -0.78744886199E+01 -0.28935053290E+01  0.12872465413E+02  0.15364905147E+02  0.51100000000E-03 0.  1.
        -12    1    3    3    0    0 -0.62721140789E+01  0.21999640569E+02 -0.18017302999E+02  0.29119526225E+02  0.00000000000E+00 0.  1.
</event>
<event>
 7    1  0.3196678E-013  0.7246171E+02  0.7816164E-02  0.1226708E+00
        -11   -1    0    0    0    0  0.00000000000E+00  0.00000000000E+00  0.45593999997E+02  0.45594000000E+02  0.51100000000E-03 0.  1.
         11   -1    0    0    0    0 -0.00000000000E+00 -0.00000000000E+00 -0.45593999997E+02  0.45594000000E+02  0.51100000000E-03 0. -1.
    9900012    2    1    2    0    0  0.14789667140E+02 -0.63798158082E+01  0.95518425502E+01  0.72461708323E+02  0.70000179808E+02 0.  0.
         12    1    1    2    0    0 -0.14789667140E+02  0.63798158082E+01 -0.95518425502E+01  0.18726291677E+02  0.00000000000E+00 0. -1.
         11    1    3    3    0    0 -0.31363808011E+01 -0.55815833455E+00  0.13494205549E+01  0.34596764807E+01  0.51100000000E-03 0. -1.
        -11    1    3    3    0    0 -0.12934449554E+02 -0.18435823554E+02  0.23299211638E+02  0.32404210198E+02  0.51100000000E-03 0.  1.
         12    1    3    3    0    0  0.30860497495E+02  0.12614166080E+02 -0.15096789642E+02  0.36597821644E+02  0.00000000000E+00 0. -1.
</event>
<event>
 7    1  0.3196678E-013  0.7246147E+02  0.7816164E-02  0.1226708E+00
        -11   -1    0    0    0    0  0.00000000000E+00  0.00000000000E+00  0.45593999997E+02  0.45594000000E+02  0.51100000000E-03 0.  1.
         11   -1    0    0    0    0 -0.00000000000E+00 -0.00000000000E+00 -0.45593999997E+02  0.45594000000E+02  0.51100000000E-03 0. -1.
    9900012    2    1    2    0    0  0.90716876489E+01 -0.10008223054E+02  0.12970074591E+02  0.72461471214E+02  0.69999870929E+02 0.  0.
         12    1    1    2    0    0 -0.90716876489E+01  0.10008223054E+02 -0.12970074591E+02  0.18726528786E+02  0.00000000000E+00 0. -1.
         11    1    3    3    0    0 -0.73315724141E+01  0.93814967099E+01 -0.19374110994E+01  0.12063084042E+02  0.51100000000E-03 0. -1.
        -11    1    3    3    0    0 -0.11016511463E+02  0.12331028474E+02  0.55083760760E+01  0.17428711808E+02  0.51100000000E-03 0.  1.
         12    1    3    3    0    0  0.27419771526E+02 -0.31720748238E+02  0.93991096139E+01  0.42969675363E+02  0.00000000000E+00 0. -1.
</event>
<event>
 7    1  0.3196678E-013  0.7246148E+02  0.7816164E-02  0.1226708E+00
        -11   -1    0    0    0    0  0.00000000000E+00  0.00000000000E+00  0.45593999997E+02  0.45594000000E+02  0.51100000000E-03 0.  1.
         11   -1    0    0    0    0 -0.00000000000E+00 -0.00000000000E+00 -0.45593999997E+02  0.45594000000E+02  0.51100000000E-03 0. -1.
    9900012    2    1    2    0    0 -0.16406138567E+02  0.83651731345E+00  0.89900734475E+01  0.72461479648E+02  0.69999881916E+02 0.  0.
         12    1    1    2    0    0  0.16406138567E+02 -0.83651731345E+00 -0.89900734475E+01  0.18726520352E+02  0.00000000000E+00 0. -1.
         11    1    3    3    0    0  0.62150379515E+01 -0.71366889213E+01 -0.12036242443E+02  0.15311112236E+02  0.51100000000E-03 0. -1.
        -11    1    3    3    0    0  0.12454663163E+02  0.89313575699E+01 -0.15838577290E+01  0.15407673027E+02  0.51100000000E-03 0.  1.
        -12    1    3    3    0    0 -0.35075839682E+02 -0.95815133516E+00  0.22610173620E+02  0.41742694385E+02  0.00000000000E+00 0.  1.
</event>
<event>
 7    1  0.3196678E-013  0.7246146E+02  0.7816164E-02  0.1226708E+00
        -11   -1    0    0    0    0  0.00000000000E+00  0.00000000000E+00  0.45593999997E+02  0.45594000000E+02  0.51100000000E-03 0. -1.
         11   -1    0    0    0    0 -0.00000000000E+00 -0.00000000000E+00 -0.45593999997E+02  0.45594000000E+02  0.51100000000E-03 0.  1.
    9900012    2    1    2    0    0  0.23422824399E+00  0.18558376385E+02 -0.24930365599E+01  0.72461456587E+02  0.69999851875E+02 0.  0.
         12    1    1    2    0    0 -0.23422824399E+00 -0.18558376385E+02  0.24930365599E+01  0.18726543413E+02  0.00000000000E+00 0. -1.
         11    1    3    3    0    0 -0.28779518175E+02  0.79492919681E+01 -0.19858868590E+01  0.29923162534E+02  0.51100000000E-03 0. -1.
        -11    1    3    3    0    0 -0.36416888963E+01 -0.32058245487E+01 -0.47964130050E+01  0.68223740025E+01  0.51100000000E-03 0.  1.
         12    1    3    3    0    0  0.32655435315E+02  0.13814908966E+02  0.42892633040E+01  0.35715920050E+02  0.00000000000E+00 0. -1.
</event>
<event>
 7    1  0.3415174E-013  0.7246162E+02  0.7816164E-02  0.1226708E+00
        -11   -1    0    0    0    0  0.00000000000E+00  0.00000000000E+00  0.45593999997E+02  0.45594000000E+02  0.51100000000E-03 0.  1.
         11   -1    0    0    0    0 -0.00000000000E+00 -0.00000000000E+00 -0.45593999997E+02  0.45594000000E+02  0.51100000000E-03 0. -1.
    9900012    2    1    2    0    0 -0.59688986888E+01  0.16377740712E+02  0.68424626494E+01  0.72461616540E+02  0.70000060243E+02 0.  0.
         12    1    1    2    0    0  0.59688986888E+01 -0.16377740712E+02 -0.68424626494E+01  0.18726383460E+02  0.00000000000E+00 0. -1.
         11    1    3    3    0    0  0.54266252498E+01  0.16167711278E+01 -0.43391245886E+01  0.71337376555E+01  0.51100000000E-03 0. -1.
        -11    1    3    3    0    0  0.13984997748E+02  0.51986210423E+01  0.29182758891E+02  0.32775589079E+02  0.51100000000E-03 0.  1.
         12    1    3    3    0    0 -0.25380521686E+02  0.95623485421E+01 -0.18001171653E+02  0.32552289805E+02  0.00000000000E+00 0. -1.
</event>
<event>
 7    1  0.3196678E-013  0.7246112E+02  0.7816164E-02  0.1226709E+00
        -11   -1    0    0    0    0  0.00000000000E+00  0.00000000000E+00  0.45593999997E+02  0.45594000000E+02  0.51100000000E-03 0.  1.
         11   -1    0    0    0    0 -0.00000000000E+00 -0.00000000000E+00 -0.45593999997E+02  0.45594000000E+02  0.51100000000E-03 0. -1.
    9900012    2    1    2    0    0 -0.61599318371E+01 -0.16384851314E+02  0.66549307056E+01  0.72461115168E+02  0.69999407111E+02 0.  0.
         12    1    1    2    0    0  0.61599318371E+01  0.16384851314E+02 -0.66549307056E+01  0.18726884832E+02  0.00000000000E+00 0. -1.
         11    1    3    3    0    0  0.24267887010E+01  0.61157689128E+01  0.20522816068E+02  0.21551749637E+02  0.51100000000E-03 0.  1.
        -11    1    3    3    0    0 -0.74019478731E+01  0.10427316956E+02 -0.12575311487E+02  0.17934777124E+02  0.51100000000E-03 0. -1.
        -12    1    3    3    0    0 -0.11847726650E+01 -0.32927937183E+02 -0.12925738750E+01  0.32974588407E+02  0.00000000000E+00 0.  1.
</event>
<event>
 7    1  0.3196678E-013  0.7246161E+02  0.7816164E-02  0.1226708E+00
        -11   -1    0    0    0    0  0.00000000000E+00  0.00000000000E+00  0.45593999997E+02  0.45594000000E+02  0.51100000000E-03 0.  1.
         11   -1    0    0    0    0 -0.00000000000E+00 -0.00000000000E+00 -0.45593999997E+02  0.45594000000E+02  0.51100000000E-03 0. -1.
    9900012    2    1    2    0    0  0.14865622607E+02 -0.96593122210E+01  0.60323031895E+01  0.72461608734E+02  0.70000050075E+02 0.  0.
         12    1    1    2    0    0 -0.14865622607E+02  0.96593122210E+01 -0.60323031895E+01  0.18726391266E+02  0.00000000000E+00 0. -1.
         11    1    3    3    0    0  0.21930254723E+02  0.26507394598E+01 -0.23277051088E+01  0.22212174663E+02  0.51100000000E-03 0. -1.
        -11    1    3    3    0    0  0.73480830290E+01  0.13799228532E+02  0.12661297220E+02  0.20117690719E+02  0.51100000000E-03 0.  1.
         12    1    3    3    0    0 -0.14412715145E+02 -0.26109280213E+02 -0.43012889219E+01  0.30131743353E+02  0.00000000000E+00 0. -1.
</event>
<event>
 7    1  0.3196678E-013  0.7246161E+02  0.7816164E-02  0.1226708E+00
        -11   -1    0    0    0    0  0.00000000000E+00  0.00000000000E+00  0.45593999997E+02  0.45594000000E+02  0.51100000000E-03 0.  1.
         11   -1    0    0    0    0 -0.00000000000E+00 -0.00000000000E+00 -0.45593999997E+02  0.45594000000E+02  0.51100000000E-03 0. -1.
    9900012    2    1    2    0    0 -0.12524808092E+02  0.12267942508E+02  0.65806203594E+01  0.72461606983E+02  0.70000047794E+02 0.  0.
         12    1    1    2    0    0  0.12524808092E+02 -0.12267942508E+02 -0.65806203594E+01  0.18726393017E+02  0.00000000000E+00 0. -1.
         11    1    3    3    0    0 -0.17321217354E+02  0.85935854472E+01 -0.19363859493E+02  0.27364819316E+02  0.51100000000E-03 0. -1.
        -11    1    3    3    0    0 -0.12520412733E+02 -0.47763145182E+01  0.80837855902E+00  0.13424879572E+02  0.51100000000E-03 0.  1.
        -12    1    3    3    0    0  0.17316821995E+02  0.84506715788E+01  0.25136101293E+02  0.31671908095E+02  0.00000000000E+00 0.  1.
</event>
<event>
 7    1  0.3196678E-013  0.7246157E+02  0.7816164E-02  0.1226708E+00
        -11   -1    0    0    0    0  0.00000000000E+00  0.00000000000E+00  0.45593999997E+02  0.45594000000E+02  0.51100000000E-03 0. -1.
         11   -1    0    0    0    0 -0.00000000000E+00 -0.00000000000E+00 -0.45593999997E+02  0.45594000000E+02  0.51100000000E-03 0.  1.
    9900012    2    1    2    0    0  0.61125393637E+01 -0.16429791945E+02  0.65861956243E+01  0.72461570185E+02  0.69999999857E+02 0.  0.
         12    1    1    2    0    0 -0.61125393637E+01  0.16429791945E+02 -0.65861956243E+01  0.18726429815E+02  0.00000000000E+00 0. -1.
         11    1    3    3    0    0  0.29982503507E+02 -0.63441707703E+01  0.29991952298E+01  0.30792762000E+02  0.51100000000E-03 0. -1.
        -11    1    3    3    0    0 -0.41649662032E+00 -0.16224651764E+02 -0.30922191123E+01  0.16521943396E+02  0.51100000000E-03 0.  1.
         12    1    3    3    0    0 -0.23453467523E+02  0.61390305893E+01  0.66792195068E+01  0.25146864788E+02  0.00000000000E+00 0. -1.
</event>
<event>
 7    1  0.3196678E-013  0.7246166E+02  0.7816164E-02  0.1226708E+00
        -11   -1    0    0    0    0  0.00000000000E+00  0.00000000000E+00  0.45593999997E+02  0.45594000000E+02  0.51100000000E-03 0.  1.
         11   -1    0    0    0    0 -0.00000000000E+00 -0.00000000000E+00 -0.45593999997E+02  0.45594000000E+02  0.51100000000E-03 0. -1.
    9900012    2    1    2    0    0  0.45229724475E+01  0.17408439827E+02 -0.52119832621E+01  0.72461659554E+02  0.70000116277E+02 0.  0.
         12    1    1    2    0    0 -0.45229724475E+01 -0.17408439827E+02  0.52119832621E+01  0.18726340446E+02  0.00000000000E+00 0. -1.
         11    1    3    3    0    0  0.33772850624E+01  0.51622459845E+01 -0.12486956287E+02  0.13927631370E+02  0.51100000000E-03 0. -1.
        -11    1    3    3    0    0 -0.18807955140E+02  0.23226023599E+02  0.16292522588E+02  0.34038707986E+02  0.51100000000E-03 0.  1.
         12    1    3    3    0    0  0.19953642525E+02 -0.10979829756E+02 -0.90175495631E+01  0.24495320198E+02  0.00000000000E+00 0. -1.
</event>
<event>
 7    1  0.3196678E-013  0.7246161E+02  0.7816164E-02  0.1226708E+00
        -11   -1    0    0    0    0  0.00000000000E+00  0.00000000000E+00  0.45593999997E+02  0.45594000000E+02  0.51100000000E-03 0.  1.
         11   -1    0    0    0    0 -0.00000000000E+00 -0.00000000000E+00 -0.45593999997E+02  0.45594000000E+02  0.51100000000E-03 0. -1.
    9900012    2    1    2    0    0 -0.19772281845E+01  0.37267783076E+01  0.18244980137E+02  0.72461611986E+02  0.70000054311E+02 0.  0.
         12    1    1    2    0    0  0.19772281845E+01 -0.37267783076E+01 -0.18244980137E+02  0.18726388014E+02  0.00000000000E+00 0. -1.
         11    1    3    3    0    0  0.21772482373E+02  0.64357192174E+01 -0.15139548767E+02  0.27288558182E+02  0.51100000000E-03 0. -1.
        -11    1    3    3    0    0 -0.13216193008E+02 -0.93016819978E+01  0.10933156324E+02  0.19512123233E+02  0.51100000000E-03 0.  1.
        -12    1    3    3    0    0 -0.10533517549E+02  0.65927410881E+01  0.22451372580E+02  0.25660930571E+02  0.00000000000E+00 0.  1.
</event>
<event>
 7    1  0.3196678E-013  0.7246155E+02  0.7816164E-02  0.1226708E+00
        -11   -1    0    0    0    0  0.00000000000E+00  0.00000000000E+00  0.45593999997E+02  0.45594000000E+02  0.51100000000E-03 0.  1.
         11   -1    0    0    0    0 -0.00000000000E+00 -0.00000000000E+00 -0.45593999997E+02  0.45594000000E+02  0.51100000000E-03 0. -1.
    9900012    2    1    2    0    0 -0.67219057558E+01  0.23451499325E+01  0.17320393681E+02  0.72461553929E+02  0.69999978681E+02 0.  0.
         12    1    1    2    0    0  0.67219057558E+01 -0.23451499325E+01 -0.17320393681E+02  0.18726446071E+02  0.00000000000E+00 0. -1.
         11    1    3    3    0    0 -0.39863165716E+01 -0.17464645980E+02 -0.12608724980E+02  0.21906266795E+02  0.51100000000E-03 0. -1.
        -11    1    3    3    0    0 -0.18262836179E+02  0.10703678476E+02  0.91433103803E+01  0.23058621884E+02  0.51100000000E-03 0.  1.
        -12    1    3    3    0    0  0.15527246995E+02  0.91061174363E+01  0.20785808280E+02  0.27496665250E+02  0.00000000000E+00 0.  1.
</event>
<event>
 7    1  0.3196678E-013  0.7246155E+02  0.7816164E-02  0.1226708E+00
        -11   -1    0    0    0    0  0.00000000000E+00  0.00000000000E+00  0.45593999997E+02  0.45594000000E+02  0.51100000000E-03 0.  1.
         11   -1    0    0    0    0 -0.00000000000E+00 -0.00000000000E+00 -0.45593999997E+02  0.45594000000E+02  0.51100000000E-03 0. -1.
    9900012    2    1    2    0    0  0.14949294028E+02  0.30842007610E+01 -0.10848328410E+02  0.72461550375E+02  0.69999974052E+02 0.  0.
         12    1    1    2    0    0 -0.14949294028E+02 -0.30842007610E+01  0.10848328410E+02  0.18726449625E+02  0.00000000000E+00 0. -1.
         11    1    3    3    0    0 -0.12391211156E+02 -0.11094267700E+02  0.92181580109E+01  0.19015765225E+02  0.51100000000E-03 0. -1.
        -11    1    3    3    0    0  0.18718152112E+02 -0.11785471407E+02 -0.10260624688E+02  0.24383333940E+02  0.51100000000E-03 0.  1.
        -12    1    3    3    0    0  0.86223530718E+01  0.25963939869E+02 -0.98058617325E+01  0.29062451210E+02  0.00000000000E+00 0.  1.
</event>
<event>
 7    1  0.3196678E-013  0.7246154E+02  0.7816164E-02  0.1226708E+00
        -11   -1    0    0    0    0  0.00000000000E+00  0.00000000000E+00  0.45593999997E+02  0.45594000000E+02  0.51100000000E-03 0. -1.
         11   -1    0    0    0    0 -0.00000000000E+00 -0.00000000000E+00 -0.45593999997E+02  0.45594000000E+02  0.51100000000E-03 0.  1.
    9900012    2    1    2    0    0 -0.13029237701E+01 -0.18563028553E+02  0.20968211025E+01  0.72461540160E+02  0.69999960744E+02 0.  0.
         12    1    1    2    0    0  0.13029237701E+01  0.18563028553E+02 -0.20968211025E+01  0.18726459840E+02  0.00000000000E+00 0. -1.
         11    1    3    3    0    0 -0.20345129781E+02 -0.15898192388E+02  0.77209069806E+01  0.26949753837E+02  0.51100000000E-03 0. -1.
        -11    1    3    3    0    0  0.16032370478E+02 -0.16957759552E+02 -0.15378111131E+02  0.27947966194E+02  0.51100000000E-03 0.  1.
         12    1    3    3    0    0  0.30098355330E+01  0.14292923387E+02  0.97540252528E+01  0.17563820129E+02  0.00000000000E+00 0. -1.
</event>
<event>
 7    1  0.3196678E-013  0.7246153E+02  0.7816164E-02  0.1226708E+00
        -11   -1    0    0    0    0  0.00000000000E+00  0.00000000000E+00  0.45593999997E+02  0.45594000000E+02  0.51100000000E-03 0. -1.
         11   -1    0    0    0    0 -0.00000000000E+00 -0.00000000000E+00 -0.45593999997E+02  0.45594000000E+02  0.51100000000E-03 0.  1.
    9900012    2    1    2    0    0 -0.16155070312E+00  0.14286837828E+02 -0.12105404654E+02  0.72461530616E+02  0.69999948312E+02 0.  0.
         12    1    1    2    0    0  0.16155070312E+00 -0.14286837828E+02  0.12105404654E+02  0.18726469384E+02  0.00000000000E+00 0. -1.
         11    1    3    3    0    0  0.85696257260E+01  0.27787642575E+02  0.47454313429E+01  0.29463718093E+02  0.51100000000E-03 0. -1.
        -11    1    3    3    0    0  0.10135587504E+02  0.64936199684E+01 -0.59126297375E+01  0.13411056074E+02  0.51100000000E-03 0.  1.
        -12    1    3    3    0    0 -0.18866763933E+02 -0.19994424716E+02 -0.10938206259E+02  0.29586756449E+02  0.00000000000E+00 0.  1.
</event>
<event>
 7    1  0.3196678E-013  0.7246156E+02  0.7816164E-02  0.1226708E+00
        -11   -1    0    0    0    0  0.00000000000E+00  0.00000000000E+00  0.45593999997E+02  0.45594000000E+02  0.51100000000E-03 0.  1.
         11   -1    0    0    0    0 -0.00000000000E+00 -0.00000000000E+00 -0.45593999997E+02  0.45594000000E+02  0.51100000000E-03 0. -1.
    9900012    2    1    2    0    0 -0.42146834280E+00 -0.65032392118E+01  0.17555902825E+02  0.72461562010E+02  0.69999989208E+02 0.  0.
         12    1    1    2    0    0  0.42146834280E+00  0.65032392118E+01 -0.17555902825E+02  0.18726437990E+02  0.00000000000E+00 0. -1.
         11    1    3    3    0    0 -0.55634758462E+01  0.11904036459E+02  0.33865573874E+01  0.13569344815E+02  0.51100000000E-03 0. -1.
        -11    1    3    3    0    0  0.17726909440E+02  0.62720734597E+01  0.23099659095E+02  0.29785507791E+02  0.51100000000E-03 0.  1.
         12    1    3    3    0    0 -0.12584901936E+02 -0.24679349131E+02 -0.89303136579E+01  0.29106709403E+02  0.00000000000E+00 0. -1.
</event>
<event>
 7    1  0.3196678E-013  0.7246163E+02  0.7816164E-02  0.1226708E+00
        -11   -1    0    0    0    0  0.00000000000E+00  0.00000000000E+00  0.45593999997E+02  0.45594000000E+02  0.51100000000E-03 0.  1.
         11   -1    0    0    0    0 -0.00000000000E+00 -0.00000000000E+00 -0.45593999997E+02  0.45594000000E+02  0.51100000000E-03 0. -1.
    9900012    2    1    2    0    0  0.75186002811E+01  0.59372854437E+01  0.16090248446E+02  0.72461633463E+02  0.70000082289E+02 0.  0.
         12    1    1    2    0    0 -0.75186002811E+01 -0.59372854437E+01 -0.16090248446E+02  0.18726366537E+02  0.00000000000E+00 0. -1.
         11    1    3    3    0    0  0.46720482782E+01  0.30737191080E+00  0.45789782889E+00  0.47044854435E+01  0.51100000000E-03 0. -1.
        -11    1    3    3    0    0  0.27074100217E+02 -0.17630951820E+02  0.87539595246E+01  0.33473708672E+02  0.51100000000E-03 0.  1.
         12    1    3    3    0    0 -0.24227548215E+02  0.23260865353E+02  0.68783910922E+01  0.34283439347E+02  0.00000000000E+00 0. -1.
</event>
<event>
 7    1  0.3196678E-013  0.7246154E+02  0.7816164E-02  0.1226708E+00
        -11   -1    0    0    0    0  0.00000000000E+00  0.00000000000E+00  0.45593999997E+02  0.45594000000E+02  0.51100000000E-03 0.  1.
         11   -1    0    0    0    0 -0.00000000000E+00 -0.00000000000E+00 -0.45593999997E+02  0.45594000000E+02  0.51100000000E-03 0. -1.
    9900012    2    1    2    0    0  0.56576071009E+01 -0.78145974068E+01  0.16050041973E+02  0.72461540161E+02  0.69999960746E+02 0.  0.
         12    1    1    2    0    0 -0.56576071009E+01  0.78145974068E+01 -0.16050041973E+02  0.18726459839E+02  0.00000000000E+00 0. -1.
         11    1    3    3    0    0  0.94259321575E+01 -0.13703740092E+01  0.56816072884E+01  0.11090842331E+02  0.51100000000E-03 0.  1.
        -11    1    3    3    0    0  0.64470450942E+01 -0.42541820044E+01  0.34352371566E+02  0.35210053784E+02  0.51100000000E-03 0. -1.
         12    1    3    3    0    0 -0.10215370151E+02 -0.21900413932E+01 -0.23983936881E+02  0.26160644047E+02  0.00000000000E+00 0. -1.
</event>
<event>
 7    1  0.3196678E-013  0.7246140E+02  0.7816164E-02  0.1226708E+00
        -11   -1    0    0    0    0  0.00000000000E+00  0.00000000000E+00  0.45593999997E+02  0.45594000000E+02  0.51100000000E-03 0. -1.
         11   -1    0    0    0    0 -0.00000000000E+00 -0.00000000000E+00 -0.45593999997E+02  0.45594000000E+02  0.51100000000E-03 0.  1.
    9900012    2    1    2    0    0 -0.13505550691E+02 -0.11605883848E+02 -0.57955950532E+01  0.72461404971E+02  0.69999784635E+02 0.  0.
         12    1    1    2    0    0  0.13505550691E+02  0.11605883848E+02  0.57955950532E+01  0.18726595029E+02  0.00000000000E+00 0. -1.
         11    1    3    3    0    0 -0.98043280766E+01  0.34178880546E+00  0.43397929727E+01  0.10727323614E+02  0.51100000000E-03 0. -1.
        -11    1    3    3    0    0 -0.23301203642E+02 -0.25622755034E+02 -0.14309675614E+02  0.37473170177E+02  0.51100000000E-03 0.  1.
        -12    1    3    3    0    0  0.19599981027E+02  0.13675082380E+02  0.41742875882E+01  0.24260911179E+02  0.00000000000E+00 0.  1.
</event>
<event>
 7    1  0.3196678E-013  0.7246149E+02  0.7816164E-02  0.1226708E+00
        -11   -1    0    0    0    0  0.00000000000E+00  0.00000000000E+00  0.45593999997E+02  0.45594000000E+02  0.51100000000E-03 0.  1.
         11   -1    0    0    0    0 -0.00000000000E+00 -0.00000000000E+00 -0.45593999997E+02  0.45594000000E+02  0.51100000000E-03 0. -1.
    9900012    2    1    2    0    0  0.18578319174E+02  0.18910180616E+01 -0.13972754947E+01  0.72461487473E+02  0.69999892109E+02 0.  0.
         12    1    1    2    0    0 -0.18578319174E+02 -0.18910180616E+01  0.13972754947E+01  0.18726512527E+02  0.00000000000E+00 0. -1.
         11    1    3    3    0    0 -0.16800350981E+02 -0.10546867238E+02 -0.12085849072E+02  0.23228343670E+02  0.51100000000E-03 0. -1.
        -11    1    3    3    0    0 -0.51144058050E+01 -0.13246311800E+01  0.14540057397E+01  0.54795919058E+01  0.51100000000E-03 0.  1.
         12    1    3    3    0    0  0.40493075959E+02  0.13762516480E+02  0.92345678371E+01  0.43753551897E+02  0.00000000000E+00 0. -1.
</event>
<event>
 7    1  0.3196678E-013  0.7246155E+02  0.7816164E-02  0.1226708E+00
        -11   -1    0    0    0    0  0.00000000000E+00  0.00000000000E+00  0.45593999997E+02  0.45594000000E+02  0.51100000000E-03 0.  1.
         11   -1    0    0    0    0 -0.00000000000E+00 -0.00000000000E+00 -0.45593999997E+02  0.45594000000E+02  0.51100000000E-03 0. -1.
    9900012    2    1    2    0    0  0.40330796799E+01  0.75513509310E+01  0.16655063982E+02  0.72461553759E+02  0.69999978460E+02 0.  0.
         12    1    1    2    0    0 -0.40330796799E+01 -0.75513509310E+01 -0.16655063982E+02  0.18726446241E+02  0.00000000000E+00 0. -1.
         11    1    3    3    0    0  0.36831703636E+01 -0.11756256830E+02  0.10703882361E+02  0.16320184326E+02  0.51100000000E-03 0. -1.
        -11    1    3    3    0    0  0.50657587430E+01 -0.10274183186E+02  0.20005438898E+02  0.23052946396E+02  0.51100000000E-03 0.  1.
         12    1    3    3    0    0 -0.47158494268E+01  0.29581790947E+02 -0.14054257277E+02  0.33088423037E+02  0.00000000000E+00 0. -1.
</event>
<event>
 7    1  0.3196678E-013  0.7246157E+02  0.7816164E-02  0.1226708E+00
        -11   -1    0    0    0    0  0.00000000000E+00  0.00000000000E+00  0.45593999997E+02  0.45594000000E+02  0.51100000000E-03 0.  1.
         11   -1    0    0    0    0 -0.00000000000E+00 -0.00000000000E+00 -0.45593999997E+02  0.45594000000E+02  0.51100000000E-03 0. -1.
    9900012    2    1    2    0    0 -0.90044293206E+01 -0.16304764977E+02  0.19375737285E+01  0.72461566803E+02  0.69999995451E+02 0.  0.
         12    1    1    2    0    0  0.90044293206E+01  0.16304764977E+02 -0.19375737285E+01  0.18726433197E+02  0.00000000000E+00 0. -1.
         11    1    3    3    0    0 -0.64310159346E+01 -0.14838177796E+02 -0.63892220561E+01  0.17388261702E+02  0.51100000000E-03 0. -1.
        -11    1    3    3    0    0  0.71821100953E+01 -0.23144123736E+02 -0.87928308362E+01  0.25778809967E+02  0.51100000000E-03 0.  1.
         12    1    3    3    0    0 -0.97555234813E+01  0.21677536556E+02  0.17119626621E+02  0.29294495134E+02  0.00000000000E+00 0. -1.
</event>
<event>
 7    1  0.3196678E-013  0.7246161E+02  0.7816164E-02  0.1226708E+00
        -11   -1    0    0    0    0  0.00000000000E+00  0.00000000000E+00  0.45593999997E+02  0.45594000000E+02  0.51100000000E-03 0. -1.
         11   -1    0    0    0    0 -0.00000000000E+00 -0.00000000000E+00 -0.45593999997E+02  0.45594000000E+02  0.51100000000E-03 0.  1.
    9900012    2    1    2    0    0 -0.61406299862E+01 -0.14975465116E+02 -0.94183729598E+01  0.72461611099E+02  0.70000053155E+02 0.  0.
         12    1    1    2    0    0  0.61406299862E+01  0.14975465116E+02  0.94183729598E+01  0.18726388901E+02  0.00000000000E+00 0. -1.
         11    1    3    3    0    0  0.68045398510E+00 -0.72207383126E+01  0.14314961882E+02  0.16047436349E+02  0.51100000000E-03 0. -1.
        -11    1    3    3    0    0  0.65820376069E+01 -0.14744117785E+01  0.14186232467E+02  0.15708160332E+02  0.51100000000E-03 0.  1.
        -12    1    3    3    0    0 -0.13403121578E+02 -0.62803150252E+01 -0.37919567309E+02  0.40706014418E+02  0.00000000000E+00 0.  1.
</event>
<event>
 7    1  0.3363154E-013  0.7246149E+02  0.7816164E-02  0.1226708E+00
        -11   -1    0    0    0    0  0.00000000000E+00  0.00000000000E+00  0.45593999997E+02  0.45594000000E+02  0.51100000000E-03 0. -1.
         11   -1    0    0    0    0 -0.00000000000E+00 -0.00000000000E+00 -0.45593999997E+02  0.45594000000E+02  0.51100000000E-03 0.  1.
    9900012    2    1    2    0    0  0.16809144828E+01  0.10350802673E+02 -0.15515070426E+02  0.72461494725E+02  0.69999901557E+02 0.  0.
         12    1    1    2    0    0 -0.16809144828E+01 -0.10350802673E+02  0.15515070426E+02  0.18726505275E+02  0.00000000000E+00 0. -1.
         11    1    3    3    0    0  0.59233318338E-01 -0.43314635278E+01 -0.45463210192E+01  0.62796592223E+01  0.51100000000E-03 0. -1.
        -11    1    3    3    0    0 -0.29501505770E+02  0.10174149966E+02 -0.14732541654E+02  0.34509418339E+02  0.51100000000E-03 0.  1.
         12    1    3    3    0    0  0.31123186934E+02  0.45081162351E+01  0.37637922472E+01  0.31672417164E+02  0.00000000000E+00 0. -1.
</event>
<event>
 7    1  0.3196678E-013  0.7246165E+02  0.7816164E-02  0.1226708E+00
        -11   -1    0    0    0    0  0.00000000000E+00  0.00000000000E+00  0.45593999997E+02  0.45594000000E+02  0.51100000000E-03 0. -1.
         11   -1    0    0    0    0 -0.00000000000E+00 -0.00000000000E+00 -0.45593999997E+02  0.45594000000E+02  0.51100000000E-03 0.  1.
    9900012    2    1    2    0    0 -0.43651644822E+01 -0.18209771935E+02 -0.16055954759E+00  0.72461648667E+02  0.70000102094E+02 0.  0.
         12    1    1    2    0    0  0.43651644822E+01  0.18209771935E+02  0.16055954759E+00  0.18726351333E+02  0.00000000000E+00 0. -1.
         11    1    3    3    0    0  0.44108608767E+01 -0.19466879702E+02  0.36790081451E+01  0.20296556363E+02  0.51100000000E-03 0. -1.
        -11    1    3    3    0    0  0.89113412334E+01 -0.21143018154E+02 -0.54349714655E+01  0.23579188585E+02  0.51100000000E-03 0.  1.
         12    1    3    3    0    0 -0.17687366592E+02  0.22400125920E+02  0.15954037728E+01  0.28585903719E+02  0.00000000000E+00 0. -1.
</event>
<event>
 7    1  0.3196678E-013  0.7246133E+02  0.7816164E-02  0.1226709E+00
        -11   -1    0    0    0    0  0.00000000000E+00  0.00000000000E+00  0.45593999997E+02  0.45594000000E+02  0.51100000000E-03 0.  1.
         11   -1    0    0    0    0 -0.00000000000E+00 -0.00000000000E+00 -0.45593999997E+02  0.45594000000E+02  0.51100000000E-03 0. -1.
    9900012    2    1    2    0    0  0.15652452585E+02  0.44657390215E+01 -0.92599173628E+01  0.72461330075E+02  0.69999687068E+02 0.  0.
         12    1    1    2    0    0 -0.15652452585E+02 -0.44657390215E+01  0.92599173628E+01  0.18726669925E+02  0.00000000000E+00 0. -1.
         11    1    3    3    0    0  0.27092384799E+02  0.26231326424E+02 -0.19447952098E+02  0.42429973381E+02  0.51100000000E-03 0. -1.
        -11    1    3    3    0    0 -0.93057874594E+00  0.10448460976E+01  0.38968208033E+01  0.41403976626E+01  0.51100000000E-03 0.  1.
        -12    1    3    3    0    0 -0.10509353469E+02 -0.22810433500E+02  0.62912139317E+01  0.25890959031E+02  0.00000000000E+00 0.  1.
</event>
<event>
 7    1  0.3196678E-013  0.7246165E+02  0.7816164E-02  0.1226708E+00
        -11   -1    0    0    0    0  0.00000000000E+00  0.00000000000E+00  0.45593999997E+02  0.45594000000E+02  0.51100000000E-03 0.  1.
         11   -1    0    0    0    0 -0.00000000000E+00 -0.00000000000E+00 -0.45593999997E+02  0.45594000000E+02  0.51100000000E-03 0. -1.
    9900012    2    1    2    0    0 -0.51165569867E+01  0.15279516257E+02  0.95411468309E+01  0.72461648105E+02  0.70000101363E+02 0.  0.
         12    1    1    2    0    0  0.51165569867E+01 -0.15279516257E+02 -0.95411468309E+01  0.18726351895E+02  0.00000000000E+00 0. -1.
         11    1    3    3    0    0 -0.22472916484E+02  0.15369014610E+02 -0.89720097291E+01  0.28665930025E+02  0.51100000000E-03 0. -1.
        -11    1    3    3    0    0 -0.73479681443E+01 -0.98133272214E+01  0.10280432453E+02  0.15999416198E+02  0.51100000000E-03 0.  1.
         12    1    3    3    0    0  0.24704327641E+02  0.97238288684E+01  0.82327241071E+01  0.27796301882E+02  0.00000000000E+00 0. -1.
</event>
<event>
 7    1  0.3196678E-013  0.7246158E+02  0.7816164E-02  0.1226708E+00
        -11   -1    0    0    0    0  0.00000000000E+00  0.00000000000E+00  0.45593999997E+02  0.45594000000E+02  0.51100000000E-03 0.  1.
         11   -1    0    0    0    0 -0.00000000000E+00 -0.00000000000E+00 -0.45593999997E+02  0.45594000000E+02  0.51100000000E-03 0. -1.
    9900012    2    1    2    0    0  0.10821251080E+02 -0.15261382800E+02  0.81821541266E+00  0.72461581326E+02  0.70000014370E+02 0.  0.
         12    1    1    2    0    0 -0.10821251080E+02  0.15261382800E+02 -0.81821541266E+00  0.18726418674E+02  0.00000000000E+00 0. -1.
         11    1    3    3    0    0 -0.95390731473E+01 -0.34151322105E+02  0.30816098533E+01  0.35592176635E+02  0.51100000000E-03 0. -1.
        -11    1    3    3    0    0  0.51137062504E+01 -0.57606961725E+01 -0.16527140323E+01  0.78782660491E+01  0.51100000000E-03 0.  1.
        -12    1    3    3    0    0  0.15246617977E+02  0.24650635478E+02 -0.61068040830E+00  0.28991138642E+02  0.00000000000E+00 0.  1.
</event>
<event>
 7    1  0.3196678E-013  0.7246157E+02  0.7816164E-02  0.1226708E+00
        -11   -1    0    0    0    0  0.00000000000E+00  0.00000000000E+00  0.45593999997E+02  0.45594000000E+02  0.51100000000E-03 0.  1.
         11   -1    0    0    0    0 -0.00000000000E+00 -0.00000000000E+00 -0.45593999997E+02  0.45594000000E+02  0.51100000000E-03 0. -1.
    9900012    2    1    2    0    0 -0.35069901962E+01 -0.32729269948E+00  0.18392201541E+02  0.72461570060E+02  0.69999999695E+02 0.  0.
         12    1    1    2    0    0  0.35069901962E+01  0.32729269948E+00 -0.18392201541E+02  0.18726429940E+02  0.00000000000E+00 0. -1.
         11    1    3    3    0    0  0.57451077084E+01 -0.89740492695E+01 -0.54126397433E+01  0.11951422180E+02  0.51100000000E-03 0. -1.
        -11    1    3    3    0    0  0.53915044607E+01  0.48682419666E+00  0.38097769748E+02  0.38480454496E+02  0.51100000000E-03 0.  1.
         12    1    3    3    0    0 -0.14643602365E+02  0.81599323733E+01 -0.14292928464E+02  0.22029693385E+02  0.00000000000E+00 0. -1.
</event>
<event>
 7    1  0.3196678E-013  0.7246162E+02  0.7816164E-02  0.1226708E+00
        -11   -1    0    0    0    0  0.00000000000E+00  0.00000000000E+00  0.45593999997E+02  0.45594000000E+02  0.51100000000E-03 0.  1.
         11   -1    0    0    0    0 -0.00000000000E+00 -0.00000000000E+00 -0.45593999997E+02  0.45594000000E+02  0.51100000000E-03 0. -1.
    9900012    2    1    2    0    0  0.13620436994E+02 -0.12717395833E+02 -0.18517593061E+01  0.72461615586E+02  0.70000059001E+02 0.  0.
         12    1    1    2    0    0 -0.13620436994E+02  0.12717395833E+02  0.18517593061E+01  0.18726384414E+02  0.00000000000E+00 0. -1.
         11    1    3    3    0    0 -0.28005653091E+01  0.11592506714E+01  0.23114448519E+01  0.38117982284E+01  0.51100000000E-03 0. -1.
        -11    1    3    3    0    0  0.14652673431E+00 -0.31813298209E+01  0.29547343043E+02  0.29718475914E+02  0.51100000000E-03 0.  1.
         12    1    3    3    0    0  0.16274475569E+02 -0.10695316683E+02 -0.33710547201E+02  0.38931341444E+02  0.00000000000E+00 0. -1.
</event>
<event>
 7    1  0.3196678E-013  0.7246159E+02  0.7816164E-02  0.1226708E+00
        -11   -1    0    0    0    0  0.00000000000E+00  0.00000000000E+00  0.45593999997E+02  0.45594000000E+02  0.51100000000E-03 0. -1.
         11   -1    0    0    0    0 -0.00000000000E+00 -0.00000000000E+00 -0.45593999997E+02  0.45594000000E+02  0.51100000000E-03 0.  1.
    9900012    2    1    2    0    0  0.14609225189E+02 -0.10097977884E+02 -0.59396965056E+01  0.72461585165E+02  0.70000019372E+02 0.  0.
         12    1    1    2    0    0 -0.14609225189E+02  0.10097977884E+02  0.59396965056E+01  0.18726414835E+02  0.00000000000E+00 0. -1.
         11    1    3    3    0    0  0.22602643818E+02 -0.17067885722E+02 -0.13344427972E+01  0.28354417088E+02  0.51100000000E-03 0. -1.
        -11    1    3    3    0    0  0.16091189205E+02 -0.41968291976E+01 -0.55833278543E+01  0.17541758622E+02  0.51100000000E-03 0.  1.
         12    1    3    3    0    0 -0.24084607834E+02  0.11166737035E+02  0.97807414593E+00  0.26565409456E+02  0.00000000000E+00 0. -1.
</event>
<event>
 7    1  0.3196678E-013  0.7246156E+02  0.7816164E-02  0.1226708E+00
        -11   -1    0    0    0    0  0.00000000000E+00  0.00000000000E+00  0.45593999997E+02  0.45594000000E+02  0.51100000000E-03 0.  1.
         11   -1    0    0    0    0 -0.00000000000E+00 -0.00000000000E+00 -0.45593999997E+02  0.45594000000E+02  0.51100000000E-03 0. -1.
    9900012    2    1    2    0    0  0.11051537272E+02  0.16001566622E+01  0.15032714515E+02  0.72461561921E+02  0.69999989092E+02 0.  0.
         12    1    1    2    0    0 -0.11051537272E+02 -0.16001566622E+01 -0.15032714515E+02  0.18726438079E+02  0.00000000000E+00 0. -1.
         11    1    3    3    0    0 -0.12037648092E+02  0.77014347201E+01 -0.30740029620E+00  0.14293759601E+02  0.51100000000E-03 0. -1.
        -11    1    3    3    0    0  0.27817182026E+02  0.16660469665E+02  0.53440590286E+01  0.32862225009E+02  0.51100000000E-03 0.  1.
         12    1    3    3    0    0 -0.47279966622E+01 -0.22761747723E+02  0.99960557830E+01  0.25305577311E+02  0.00000000000E+00 0. -1.
</event>
<event>
 7    1  0.3196678E-013  0.7246158E+02  0.7816164E-02  0.1226708E+00
        -11   -1    0    0    0    0  0.00000000000E+00  0.00000000000E+00  0.45593999997E+02  0.45594000000E+02  0.51100000000E-03 0.  1.
         11   -1    0    0    0    0 -0.00000000000E+00 -0.00000000000E+00 -0.45593999997E+02  0.45594000000E+02  0.51100000000E-03 0. -1.
    9900012    2    1    2    0    0  0.10776915157E+02 -0.54686265834E+01  0.14304930804E+02  0.72461579565E+02  0.70000012076E+02 0.  0.
         12    1    1    2    0    0 -0.10776915157E+02  0.54686265834E+01 -0.14304930804E+02  0.18726420435E+02  0.00000000000E+00 0. -1.
         11    1    3    3    0    0 -0.13919019677E+01 -0.81051411202E+01  0.29260937461E+02  0.30394623949E+02  0.51100000000E-03 0. -1.
        -11    1    3    3    0    0  0.20904858857E+02  0.12075817670E+02 -0.26854000554E+01  0.24290942138E+02  0.51100000000E-03 0.  1.
         12    1    3    3    0    0 -0.87360417319E+01 -0.94393031337E+01 -0.12270606601E+02  0.17776013478E+02  0.00000000000E+00 0. -1.
</event>
<event>
 7    1  0.3196678E-013  0.7246149E+02  0.7816164E-02  0.1226708E+00
        -11   -1    0    0    0    0  0.00000000000E+00  0.00000000000E+00  0.45593999997E+02  0.45594000000E+02  0.51100000000E-03 0. -1.
         11   -1    0    0    0    0 -0.00000000000E+00 -0.00000000000E+00 -0.45593999997E+02  0.45594000000E+02  0.51100000000E-03 0.  1.
    9900012    2    1    2    0    0 -0.76773705908E+01 -0.11932904135E+02 -0.12220716059E+02  0.72461491482E+02  0.69999897332E+02 0.  0.
         12    1    1    2    0    0  0.76773705908E+01  0.11932904135E+02  0.12220716059E+02  0.18726508518E+02  0.00000000000E+00 0. -1.
         11    1    3    3    0    0 -0.10103999347E+02  0.17678711146E+02 -0.68698945435E+01  0.21490069379E+02  0.51100000000E-03 0. -1.
        -11    1    3    3    0    0 -0.40536455126E+01  0.96448001087E+01 -0.38742512468E+01  0.11156345014E+02  0.51100000000E-03 0.  1.
         12    1    3    3    0    0  0.64802742688E+01 -0.39256415390E+02 -0.14765702690E+01  0.39815077089E+02  0.00000000000E+00 0. -1.
</event>
<event>
 7    1  0.3196678E-013  0.7246161E+02  0.7816164E-02  0.1226708E+00
        -11   -1    0    0    0    0  0.00000000000E+00  0.00000000000E+00  0.45593999997E+02  0.45594000000E+02  0.51100000000E-03 0.  1.
         11   -1    0    0    0    0 -0.00000000000E+00 -0.00000000000E+00 -0.45593999997E+02  0.45594000000E+02  0.51100000000E-03 0. -1.
    9900012    2    1    2    0    0  0.79173880258E+01 -0.21533395954E+01  0.16833179237E+02  0.72461606119E+02  0.70000046668E+02 0.  0.
         12    1    1    2    0    0 -0.79173880258E+01  0.21533395954E+01 -0.16833179237E+02  0.18726393881E+02  0.00000000000E+00 0. -1.
         11    1    3    3    0    0 -0.25114962703E+02 -0.93014163590E+01 -0.65671413010E+01  0.27575442752E+02  0.51100000000E-03 0. -1.
        -11    1    3    3    0    0  0.15089216198E+02  0.10719533813E+02  0.55448887279E+01  0.19321973034E+02  0.51100000000E-03 0.  1.
        -12    1    3    3    0    0  0.17943134531E+02 -0.35714570498E+01  0.17855431810E+02  0.25564190333E+02  0.00000000000E+00 0.  1.
</event>
<event>
 7    1  0.3196678E-013  0.7246157E+02  0.7816164E-02  0.1226708E+00
        -11   -1    0    0    0    0  0.00000000000E+00  0.00000000000E+00  0.45593999997E+02  0.45594000000E+02  0.51100000000E-03 0.  1.
         11   -1    0    0    0    0 -0.00000000000E+00 -0.00000000000E+00 -0.45593999997E+02  0.45594000000E+02  0.51100000000E-03 0. -1.
    9900012    2    1    2    0    0 -0.15192914151E+02  0.72571701970E+01  0.81968327232E+01  0.72461568777E+02  0.69999998023E+02 0.  0.
         12    1    1    2    0    0  0.15192914151E+02 -0.72571701970E+01 -0.81968327232E+01  0.18726431223E+02  0.00000000000E+00 0. -1.
         11    1    3    3    0    0  0.14726834576E+02  0.83211133925E+01 -0.20640498161E+01  0.17040565912E+02  0.51100000000E-03 0. -1.
        -11    1    3    3    0    0 -0.20551854193E+02  0.21628194517E+02  0.41560685849E+01  0.30123585696E+02  0.51100000000E-03 0.  1.
         12    1    3    3    0    0 -0.93678945336E+01 -0.22692137713E+02  0.61048139545E+01  0.25297417168E+02  0.00000000000E+00 0. -1.
</event>
<event>
 7    1  0.3196678E-013  0.7246155E+02  0.7816164E-02  0.1226708E+00
        -11   -1    0    0    0    0  0.00000000000E+00  0.00000000000E+00  0.45593999997E+02  0.45594000000E+02  0.51100000000E-03 0.  1.
         11   -1    0    0    0    0 -0.00000000000E+00 -0.00000000000E+00 -0.45593999997E+02  0.45594000000E+02  0.51100000000E-03 0. -1.
    9900012    2    1    2    0    0  0.21044131654E+00  0.71380716080E+01  0.17311370681E+02  0.72461550612E+02  0.69999974360E+02 0.  0.
         12    1    1    2    0    0 -0.21044131654E+00 -0.71380716080E+01 -0.17311370681E+02  0.18726449388E+02  0.00000000000E+00 0. -1.
         11    1    3    3    0    0 -0.21621522170E+02  0.25689828296E+02  0.82884412923E+01  0.34585484790E+02  0.51100000000E-03 0. -1.
        -11    1    3    3    0    0 -0.27531868285E+01 -0.97513236510E+01 -0.33246947222E+00  0.10137992250E+02  0.51100000000E-03 0.  1.
        -12    1    3    3    0    0  0.24585150315E+02 -0.88004330370E+01  0.93553988608E+01  0.27738073572E+02  0.00000000000E+00 0.  1.
</event>
<event>
 8    1  0.3196678E-013  0.7246161E+02  0.7816164E-02  0.1226708E+00
        -11   -1    0    0    0    0  0.00000000000E+00  0.00000000000E+00  0.45593999997E+02  0.45594000000E+02  0.51100000000E-03 0.  1.
         11   -1    0    0    0    0 -0.00000000000E+00 -0.00000000000E+00 -0.45593999997E+02  0.45594000000E+02  0.51100000000E-03 0. -1.
    9900012    2    1    2    0    0  0.31472346043E+01 -0.74760118871E+01 -0.16878443871E+02  0.72461609347E+02  0.70000050873E+02 0.  0.
         23    2    3    3    0    0  0.48502890803E+01 -0.14685065194E+02 -0.29076744923E+01  0.56648537501E+02  0.54418983693E+02 0.  0.
         12    1    1    2    0    0 -0.31472346043E+01  0.74760118871E+01  0.16878443871E+02  0.18726390653E+02  0.00000000000E+00 0. -1.
         11    1    4    4    0    0  0.77049094235E+01 -0.34104768168E+02 -0.89860183737E+01  0.36100545252E+02  0.51100000000E-03 0. -1.
        -11    1    4    4    0    0 -0.28546203432E+01  0.19419702974E+02  0.60783438814E+01  0.20547992249E+02  0.51100000000E-03 0.  1.
        -12    1    3    3    0    0 -0.17030544759E+01  0.72090533074E+01 -0.13970769379E+02  0.15813071845E+02  0.00000000000E+00 0.  1.
</event>
<event>
 7    1  0.3196678E-013  0.7246160E+02  0.7816164E-02  0.1226708E+00
        -11   -1    0    0    0    0  0.00000000000E+00  0.00000000000E+00  0.45593999997E+02  0.45594000000E+02  0.51100000000E-03 0. -1.
         11   -1    0    0    0    0 -0.00000000000E+00 -0.00000000000E+00 -0.45593999997E+02  0.45594000000E+02  0.51100000000E-03 0.  1.
    9900012    2    1    2    0    0  0.54982210766E+01 -0.17847274047E+02  0.13865554793E+01  0.72461597195E+02  0.70000035043E+02 0.  0.
         12    1    1    2    0    0 -0.54982210766E+01  0.17847274047E+02 -0.13865554793E+01  0.18726402805E+02  0.00000000000E+00 0. -1.
         11    1    3    3    0    0 -0.52534009740E+01  0.51354318113E+01 -0.67581082655E+01  0.99821294958E+01  0.51100000000E-03 0. -1.
        -11    1    3    3    0    0  0.62358161962E+01 -0.34943383535E+02 -0.12974220943E+02  0.37792272568E+02  0.51100000000E-03 0.  1.
         12    1    3    3    0    0  0.45158058544E+01  0.11960677677E+02  0.21118884688E+02  0.24687195131E+02  0.00000000000E+00 0. -1.
</event>
<event>
 7    1  0.3196678E-013  0.7246149E+02  0.7816164E-02  0.1226708E+00
        -11   -1    0    0    0    0  0.00000000000E+00  0.00000000000E+00  0.45593999997E+02  0.45594000000E+02  0.51100000000E-03 0.  1.
         11   -1    0    0    0    0 -0.00000000000E+00 -0.00000000000E+00 -0.45593999997E+02  0.45594000000E+02  0.51100000000E-03 0. -1.
    9900012    2    1    2    0    0 -0.12683805870E+02  0.43033345921E+01 -0.13087568758E+02  0.72461492692E+02  0.69999898908E+02 0.  0.
         12    1    1    2    0    0  0.12683805870E+02 -0.43033345921E+01  0.13087568758E+02  0.18726507308E+02  0.00000000000E+00 0. -1.
         11    1    3    3    0    0 -0.14444768080E+02 -0.54674703518E+01 -0.19413141783E+02  0.24807551896E+02  0.51100000000E-03 0. -1.
        -11    1    3    3    0    0 -0.15473422652E+02  0.13689763478E+02 -0.10566681368E+02  0.23205412904E+02  0.51100000000E-03 0.  1.
         12    1    3    3    0    0  0.17234384862E+02 -0.39189585345E+01  0.16892254393E+02  0.24448527891E+02  0.00000000000E+00 0. -1.
</event>
<event>
 7    1  0.3196678E-013  0.7246182E+02  0.7816164E-02  0.1226707E+00
        -11   -1    0    0    0    0  0.00000000000E+00  0.00000000000E+00  0.45593999997E+02  0.45594000000E+02  0.51100000000E-03 0. -1.
         11   -1    0    0    0    0 -0.00000000000E+00 -0.00000000000E+00 -0.45593999997E+02  0.45594000000E+02  0.51100000000E-03 0.  1.
    9900012    2    1    2    0    0  0.61600014102E+01 -0.49400090543E+01 -0.16980002851E+02  0.72461820367E+02  0.70000325765E+02 0.  0.
         12    1    1    2    0    0 -0.61600014102E+01  0.49400090543E+01  0.16980002851E+02  0.18726179633E+02  0.00000000000E+00 0. -1.
         11    1    3    3    0    0 -0.24635952279E+02 -0.14669358523E+02 -0.13429602416E+02  0.31661876847E+02  0.51100000000E-03 0. -1.
        -11    1    3    3    0    0  0.11066745265E+02  0.20341616020E+01 -0.13355205907E+02  0.17463452960E+02  0.51100000000E-03 0.  1.
        -12    1    3    3    0    0  0.19729208424E+02  0.76951878664E+01  0.98048054717E+01  0.23336490561E+02  0.00000000000E+00 0.  1.
</event>
<event>
 7    1  0.3196678E-013  0.7246156E+02  0.7816164E-02  0.1226708E+00
        -11   -1    0    0    0    0  0.00000000000E+00  0.00000000000E+00  0.45593999997E+02  0.45594000000E+02  0.51100000000E-03 0.  1.
         11   -1    0    0    0    0 -0.00000000000E+00 -0.00000000000E+00 -0.45593999997E+02  0.45594000000E+02  0.51100000000E-03 0. -1.
    9900012    2    1    2    0    0  0.13618001397E+02 -0.47022146648E+01  0.11963219041E+02  0.72461564284E+02  0.69999992171E+02 0.  0.
         12    1    1    2    0    0 -0.13618001397E+02  0.47022146648E+01 -0.11963219041E+02  0.18726435716E+02  0.00000000000E+00 0. -1.
         11    1    3    3    0    0 -0.16867373348E+02 -0.12096746532E+02 -0.12880112535E+02  0.24428198040E+02  0.51100000000E-03 0. -1.
        -11    1    3    3    0    0  0.51404460612E+01 -0.47705738973E+01 -0.37344898238E+01  0.79453744734E+01  0.51100000000E-03 0.  1.
        -12    1    3    3    0    0  0.25344928683E+02  0.12165105764E+02  0.28577821400E+02  0.40087991771E+02  0.00000000000E+00 0.  1.
</event>
<event>
 7    1  0.3196678E-013  0.7246159E+02  0.7816164E-02  0.1226708E+00
        -11   -1    0    0    0    0  0.00000000000E+00  0.00000000000E+00  0.45593999997E+02  0.45594000000E+02  0.51100000000E-03 0. -1.
         11   -1    0    0    0    0 -0.00000000000E+00 -0.00000000000E+00 -0.45593999997E+02  0.45594000000E+02  0.51100000000E-03 0.  1.
    9900012    2    1    2    0    0 -0.12603534309E+02  0.22984928611E+01 -0.13658200116E+02  0.72461586117E+02  0.70000020612E+02 0.  0.
         12    1    1    2    0    0  0.12603534309E+02 -0.22984928611E+01  0.13658200116E+02  0.18726413883E+02  0.00000000000E+00 0. -1.
         11    1    3    3    0    0 -0.18672477405E+02 -0.64180447472E+01 -0.11094766441E+02  0.22648323414E+02  0.51100000000E-03 0. -1.
        -11    1    3    3    0    0 -0.19122939956E+02  0.56520201879E+01  0.90576041590E+01  0.21901423655E+02  0.51100000000E-03 0.  1.
         12    1    3    3    0    0  0.25191883051E+02  0.30645174204E+01 -0.11621037834E+02  0.27911839048E+02  0.00000000000E+00 0. -1.
</event>
<event>
 7    1  0.3482608E-013  0.7246160E+02  0.7816164E-02  0.1226708E+00
        -11   -1    0    0    0    0  0.00000000000E+00  0.00000000000E+00  0.45593999997E+02  0.45594000000E+02  0.51100000000E-03 0. -1.
         11   -1    0    0    0    0 -0.00000000000E+00 -0.00000000000E+00 -0.45593999997E+02  0.45594000000E+02  0.51100000000E-03 0.  1.
    9900012    2    1    2    0    0  0.16959823588E+02  0.14670266140E+00 -0.79385783001E+01  0.72461597163E+02  0.70000035001E+02 0.  0.
         12    1    1    2    0    0 -0.16959823588E+02 -0.14670266140E+00  0.79385783001E+01  0.18726402837E+02  0.00000000000E+00 0. -1.
         11    1    3    3    0    0  0.54226024581E+01  0.21679289864E+01 -0.44938357153E+01  0.73687918416E+01  0.51100000000E-03 0. -1.
        -11    1    3    3    0    0  0.17975177922E+02 -0.17778657423E+02 -0.26374889281E+02  0.36535222265E+02  0.51100000000E-03 0.  1.
         12    1    3    3    0    0 -0.64379567924E+01  0.15757431098E+02  0.22930146697E+02  0.28557583056E+02  0.00000000000E+00 0. -1.
</event>
<event>
 7    1  0.3196678E-013  0.7246158E+02  0.7816164E-02  0.1226708E+00
        -11   -1    0    0    0    0  0.00000000000E+00  0.00000000000E+00  0.45593999997E+02  0.45594000000E+02  0.51100000000E-03 0.  1.
         11   -1    0    0    0    0 -0.00000000000E+00 -0.00000000000E+00 -0.45593999997E+02  0.45594000000E+02  0.51100000000E-03 0. -1.
    9900012    2    1    2    0    0  0.27076799631E+01 -0.18213186854E+02  0.34098714685E+01  0.72461576701E+02  0.70000008346E+02 0.  0.
         12    1    1    2    0    0 -0.27076799631E+01  0.18213186854E+02 -0.34098714685E+01  0.18726423299E+02  0.00000000000E+00 0. -1.
         11    1    3    3    0    0 -0.24782594500E+01 -0.15855700599E+02 -0.97968739769E+01  0.18802227298E+02  0.51100000000E-03 0.  1.
        -11    1    3    3    0    0 -0.82717712930E+00 -0.13635410041E+02 -0.16440121574E+02  0.21374897114E+02  0.51100000000E-03 0. -1.
         12    1    3    3    0    0  0.60131165424E+01  0.11277923787E+02  0.29646867019E+02  0.32284452288E+02  0.00000000000E+00 0. -1.
</event>
<event>
 7    1  0.3196678E-013  0.7246146E+02  0.7816164E-02  0.1226708E+00
        -11   -1    0    0    0    0  0.00000000000E+00  0.00000000000E+00  0.45593999997E+02  0.45594000000E+02  0.51100000000E-03 0.  1.
         11   -1    0    0    0    0 -0.00000000000E+00 -0.00000000000E+00 -0.45593999997E+02  0.45594000000E+02  0.51100000000E-03 0. -1.
    9900012    2    1    2    0    0  0.42299591964E+01  0.17828975910E+02 -0.38624251732E+01  0.72461460944E+02  0.69999857551E+02 0.  0.
         12    1    1    2    0    0 -0.42299591964E+01 -0.17828975910E+02  0.38624251732E+01  0.18726539056E+02  0.00000000000E+00 0. -1.
         11    1    3    3    0    0 -0.16404847451E+02 -0.85580373596E+01  0.75745900478E+01  0.19993334839E+02  0.51100000000E-03 0. -1.
        -11    1    3    3    0    0 -0.29283145040E+01  0.12609543868E+02  0.11114413590E+02  0.17061823235E+02  0.51100000000E-03 0.  1.
         12    1    3    3    0    0  0.23563121152E+02  0.13777469401E+02 -0.22551428811E+02  0.35406302870E+02  0.00000000000E+00 0. -1.
</event>
<event>
 7    1  0.3196678E-013  0.7246194E+02  0.7816164E-02  0.1226707E+00
        -11   -1    0    0    0    0  0.00000000000E+00  0.00000000000E+00  0.45593999997E+02  0.45594000000E+02  0.51100000000E-03 0. -1.
         11   -1    0    0    0    0 -0.00000000000E+00 -0.00000000000E+00 -0.45593999997E+02  0.45594000000E+02  0.51100000000E-03 0.  1.
    9900012    2    1    2    0    0 -0.99064405432E+01 -0.14313059630E+02  0.69039192884E+01  0.72461939502E+02  0.70000480960E+02 0.  0.
         12    1    1    2    0    0  0.99064405432E+01  0.14313059630E+02 -0.69039192884E+01  0.18726060498E+02  0.00000000000E+00 0. -1.
         11    1    3    3    0    0 -0.22613194168E+02 -0.17781646725E+02  0.30368948608E+02  0.41830808629E+02  0.51100000000E-03 0. -1.
        -11    1    3    3    0    0 -0.31899802265E+01  0.13588367155E+01 -0.26986554707E+01  0.43937629289E+01  0.51100000000E-03 0.  1.
        -12    1    3    3    0    0  0.15896733851E+02  0.21097503794E+01 -0.20766373849E+02  0.26237367944E+02  0.00000000000E+00 0.  1.
</event>
<event>
 7    1  0.3196678E-013  0.7246166E+02  0.7816164E-02  0.1226708E+00
        -11   -1    0    0    0    0  0.00000000000E+00  0.00000000000E+00  0.45593999997E+02  0.45594000000E+02  0.51100000000E-03 0. -1.
         11   -1    0    0    0    0 -0.00000000000E+00 -0.00000000000E+00 -0.45593999997E+02  0.45594000000E+02  0.51100000000E-03 0.  1.
    9900012    2    1    2    0    0 -0.23850424596E+00 -0.18659678243E+02 -0.15605148746E+01  0.72461663383E+02  0.70000121266E+02 0.  0.
         12    1    1    2    0    0  0.23850424596E+00  0.18659678243E+02  0.15605148746E+01  0.18726336617E+02  0.00000000000E+00 0. -1.
         11    1    3    3    0    0 -0.16256211045E+02 -0.16614945600E+02  0.12292964654E+02  0.26295204792E+02  0.51100000000E-03 0. -1.
        -11    1    3    3    0    0  0.21069564604E+02 -0.56807384309E+01  0.81540855459E+01  0.23295631630E+02  0.51100000000E-03 0.  1.
        -12    1    3    3    0    0 -0.50518578049E+01  0.36360057882E+01 -0.22007565074E+02  0.22870826961E+02  0.00000000000E+00 0.  1.
</event>
<event>
 7    1  0.3196678E-013  0.7246155E+02  0.7816164E-02  0.1226708E+00
        -11   -1    0    0    0    0  0.00000000000E+00  0.00000000000E+00  0.45593999997E+02  0.45594000000E+02  0.51100000000E-03 0.  1.
         11   -1    0    0    0    0 -0.00000000000E+00 -0.00000000000E+00 -0.45593999997E+02  0.45594000000E+02  0.51100000000E-03 0. -1.
    9900012    2    1    2    0    0  0.52533951206E+01 -0.15527600696E+02  0.90540342164E+01  0.72461546004E+02  0.69999968358E+02 0.  0.
         12    1    1    2    0    0 -0.52533951206E+01  0.15527600696E+02 -0.90540342164E+01  0.18726453996E+02  0.00000000000E+00 0. -1.
         11    1    3    3    0    0  0.24807132331E+02 -0.21884021793E+01 -0.31598835228E+01  0.25103142885E+02  0.51100000000E-03 0. -1.
        -11    1    3    3    0    0  0.63165384926E+00  0.80689304631E+01 -0.82195086206E+01  0.11535464777E+02  0.51100000000E-03 0.  1.
        -12    1    3    3    0    0 -0.20185391059E+02 -0.21408128980E+02  0.20433426360E+02  0.35822938342E+02  0.00000000000E+00 0.  1.
</event>
<event>
 7    1  0.3196678E-013  0.7246150E+02  0.7816164E-02  0.1226708E+00
        -11   -1    0    0    0    0  0.00000000000E+00  0.00000000000E+00  0.45593999997E+02  0.45594000000E+02  0.51100000000E-03 0. -1.
         11   -1    0    0    0    0 -0.00000000000E+00 -0.00000000000E+00 -0.45593999997E+02  0.45594000000E+02  0.51100000000E-03 0.  1.
    9900012    2    1    2    0    0 -0.38729174545E+00 -0.18719677423E+02  0.32503700957E+00  0.72461495607E+02  0.69999902706E+02 0.  0.
         12    1    1    2    0    0  0.38729174545E+00  0.18719677423E+02 -0.32503700957E+00  0.18726504393E+02  0.00000000000E+00 0. -1.
         11    1    3    3    0    0 -0.12542376853E+01  0.23269139913E+01 -0.14707389163E+02  0.14943056486E+02  0.51100000000E-03 0. -1.
        -11    1    3    3    0    0  0.10010476159E+02  0.16877985552E+01 -0.15401140839E+02  0.18445959891E+02  0.51100000000E-03 0.  1.
         12    1    3    3    0    0 -0.91435302195E+01 -0.22734389970E+02  0.30433567011E+02  0.39072479230E+02  0.00000000000E+00 0. -1.
</event>
<event>
 7    1  0.3196678E-013  0.7246159E+02  0.7816164E-02  0.1226708E+00
        -11   -1    0    0    0    0  0.00000000000E+00  0.00000000000E+00  0.45593999997E+02  0.45594000000E+02  0.51100000000E-03 0.  1.
         11   -1    0    0    0    0 -0.00000000000E+00 -0.00000000000E+00 -0.45593999997E+02  0.45594000000E+02  0.51100000000E-03 0. -1.
    9900012    2    1    2    0    0  0.12781485405E+02 -0.10595251792E+02  0.86633034107E+01  0.72461586684E+02  0.70000021351E+02 0.  0.
         12    1    1    2    0    0 -0.12781485405E+02  0.10595251792E+02 -0.86633034107E+01  0.18726413316E+02  0.00000000000E+00 0. -1.
         11    1    3    3    0    0 -0.47252713322E+01 -0.17182168859E+02 -0.22825967248E+02  0.28958244023E+02  0.51100000000E-03 0. -1.
        -11    1    3    3    0    0  0.18382198298E+01 -0.79154567944E+01  0.12620340458E+02  0.15010213255E+02  0.51100000000E-03 0.  1.
        -12    1    3    3    0    0  0.15668536907E+02  0.14502373862E+02  0.18868930200E+02  0.28493129406E+02  0.00000000000E+00 0.  1.
</event>
<event>
 7    1  0.3196678E-013  0.7246157E+02  0.7816164E-02  0.1226708E+00
        -11   -1    0    0    0    0  0.00000000000E+00  0.00000000000E+00  0.45593999997E+02  0.45594000000E+02  0.51100000000E-03 0.  1.
         11   -1    0    0    0    0 -0.00000000000E+00 -0.00000000000E+00 -0.45593999997E+02  0.45594000000E+02  0.51100000000E-03 0. -1.
    9900012    2    1    2    0    0  0.10678741088E+02 -0.14825998893E+02  0.41028738818E+01  0.72461566050E+02  0.69999994471E+02 0.  0.
         12    1    1    2    0    0 -0.10678741088E+02  0.14825998893E+02 -0.41028738818E+01  0.18726433950E+02  0.00000000000E+00 0. -1.
         11    1    3    3    0    0  0.30229024625E+02 -0.28861383351E+01 -0.16856891223E+02  0.34731520356E+02  0.51100000000E-03 0. -1.
        -11    1    3    3    0    0  0.32944905659E+01 -0.19344718413E+01 -0.15607830773E+01  0.41269714645E+01  0.51100000000E-03 0.  1.
        -12    1    3    3    0    0 -0.22844774103E+02 -0.10005388717E+02  0.22520548182E+02  0.33603074229E+02  0.00000000000E+00 0.  1.
</event>
<event>
 7    1  0.3802480E-013  0.7246150E+02  0.7816164E-02  0.1226708E+00
        -11   -1    0    0    0    0  0.00000000000E+00  0.00000000000E+00  0.45593999997E+02  0.45594000000E+02  0.51100000000E-03 0. -1.
         11   -1    0    0    0    0 -0.00000000000E+00 -0.00000000000E+00 -0.45593999997E+02  0.45594000000E+02  0.51100000000E-03 0.  1.
    9900012    2    1    2    0    0  0.15607567363E+02 -0.63818500113E+01 -0.81460286657E+01  0.72461496013E+02  0.69999903234E+02 0.  0.
         12    1    1    2    0    0 -0.15607567363E+02  0.63818500113E+01  0.81460286657E+01  0.18726503987E+02  0.00000000000E+00 0. -1.
         11    1    3    3    0    0  0.17898287756E+00  0.17814571829E+02  0.56541106981E+01  0.18691173649E+02  0.51100000000E-03 0. -1.
        -11    1    3    3    0    0  0.92859886137E+01  0.23819706438E+01 -0.23051347069E+02  0.24965335381E+02  0.51100000000E-03 0.  1.
         12    1    3    3    0    0  0.61425958721E+01 -0.26578392484E+02  0.92512077057E+01  0.28804986983E+02  0.00000000000E+00 0. -1.
</event>
<event>
 7    1  0.3196678E-013  0.7246157E+02  0.7816164E-02  0.1226708E+00
        -11   -1    0    0    0    0  0.00000000000E+00  0.00000000000E+00  0.45593999997E+02  0.45594000000E+02  0.51100000000E-03 0.  1.
         11   -1    0    0    0    0 -0.00000000000E+00 -0.00000000000E+00 -0.45593999997E+02  0.45594000000E+02  0.51100000000E-03 0. -1.
    9900012    2    1    2    0    0 -0.10252693408E+02 -0.15200111705E+02  0.38102412476E+01  0.72461573317E+02  0.70000003937E+02 0.  0.
         12    1    1    2    0    0  0.10252693408E+02  0.15200111705E+02 -0.38102412476E+01  0.18726426683E+02  0.00000000000E+00 0. -1.
         11    1    3    3    0    0 -0.48367740729E+01  0.25950102900E+01  0.11826162783E+02  0.13037890484E+02  0.51100000000E-03 0. -1.
        -11    1    3    3    0    0 -0.39704744072E+01  0.16802996207E+02  0.10447557864E+02  0.20180604900E+02  0.51100000000E-03 0.  1.
         12    1    3    3    0    0 -0.14454449278E+01 -0.34598118201E+02 -0.18463479400E+02  0.39243077933E+02  0.00000000000E+00 0. -1.
</event>
<event>
 7    1  0.3196678E-013  0.7246156E+02  0.7816164E-02  0.1226708E+00
        -11   -1    0    0    0    0  0.00000000000E+00  0.00000000000E+00  0.45593999997E+02  0.45594000000E+02  0.51100000000E-03 0. -1.
         11   -1    0    0    0    0 -0.00000000000E+00 -0.00000000000E+00 -0.45593999997E+02  0.45594000000E+02  0.51100000000E-03 0.  1.
    9900012    2    1    2    0    0 -0.78643085211E+01 -0.16988860308E+02 -0.45919198455E+00  0.72461559325E+02  0.69999985710E+02 0.  0.
         12    1    1    2    0    0  0.78643085211E+01  0.16988860308E+02  0.45919198455E+00  0.18726440675E+02  0.00000000000E+00 0. -1.
         11    1    3    3    0    0 -0.25889031534E+01 -0.20212635147E+02  0.21223882910E+02  0.29422886418E+02  0.51100000000E-03 0. -1.
        -11    1    3    3    0    0 -0.25312221619E+01 -0.15628679711E+02 -0.25464923483E+01  0.16035814251E+02  0.51100000000E-03 0.  1.
        -12    1    3    3    0    0 -0.27441832057E+01  0.18852454550E+02 -0.19136582546E+02  0.27002858656E+02  0.00000000000E+00 0.  1.
</event>
<event>
 7    1  0.3196678E-013  0.7246147E+02  0.7816164E-02  0.1226708E+00
        -11   -1    0    0    0    0  0.00000000000E+00  0.00000000000E+00  0.45593999997E+02  0.45594000000E+02  0.51100000000E-03 0. -1.
         11   -1    0    0    0    0 -0.00000000000E+00 -0.00000000000E+00 -0.45593999997E+02  0.45594000000E+02  0.51100000000E-03 0.  1.
    9900012    2    1    2    0    0 -0.12287999420E+02 -0.13760511083E+02  0.32149908852E+01  0.72461474391E+02  0.69999875067E+02 0.  0.
         12    1    1    2    0    0  0.12287999420E+02  0.13760511083E+02 -0.32149908852E+01  0.18726525609E+02  0.00000000000E+00 0. -1.
         11    1    3    3    0    0  0.72340039219E+01 -0.65911859590E+01 -0.80099858538E+01  0.12646518048E+02  0.51100000000E-03 0. -1.
        -11    1    3    3    0    0  0.67559984945E+01 -0.16177094637E+02 -0.13889262166E+02  0.22366347719E+02  0.51100000000E-03 0.  1.
         12    1    3    3    0    0 -0.26278001836E+02  0.90077695124E+01  0.25114238905E+02  0.37448608624E+02  0.00000000000E+00 0. -1.
</event>
<event>
 7    1  0.3196678E-013  0.7246158E+02  0.7816164E-02  0.1226708E+00
        -11   -1    0    0    0    0  0.00000000000E+00  0.00000000000E+00  0.45593999997E+02  0.45594000000E+02  0.51100000000E-03 0. -1.
         11   -1    0    0    0    0 -0.00000000000E+00 -0.00000000000E+00 -0.45593999997E+02  0.45594000000E+02  0.51100000000E-03 0.  1.
    9900012    2    1    2    0    0 -0.18257059728E+02  0.22253820869E+01 -0.35222331551E+01  0.72461583318E+02  0.70000016966E+02 0.  0.
         12    1    1    2    0    0  0.18257059728E+02 -0.22253820869E+01  0.35222331551E+01  0.18726416682E+02  0.00000000000E+00 0. -1.
         11    1    3    3    0    0 -0.63476492542E+01  0.12832275440E+02 -0.12521437595E+01  0.14371075404E+02  0.51100000000E-03 0.  1.
        -11    1    3    3    0    0 -0.83796856080E+01 -0.17542895586E+02  0.23887859360E+02  0.30799385407E+02  0.51100000000E-03 0. -1.
         12    1    3    3    0    0 -0.35297248655E+01  0.69360022332E+01 -0.26157948755E+02  0.27291122507E+02  0.00000000000E+00 0. -1.
</event>
<event>
 7    1  0.3196678E-013  0.7246157E+02  0.7816164E-02  0.1226708E+00
        -11   -1    0    0    0    0  0.00000000000E+00  0.00000000000E+00  0.45593999997E+02  0.45594000000E+02  0.51100000000E-03 0.  1.
         11   -1    0    0    0    0 -0.00000000000E+00 -0.00000000000E+00 -0.45593999997E+02  0.45594000000E+02  0.51100000000E-03 0. -1.
    9900012    2    1    2    0    0  0.53122549827E+00 -0.17919346923E+02 -0.54123768711E+01  0.72461574338E+02  0.70000005268E+02 0.  0.
         12    1    1    2    0    0 -0.53122549827E+00  0.17919346923E+02  0.54123768711E+01  0.18726425662E+02  0.00000000000E+00 0. -1.
         11    1    3    3    0    0  0.23442946722E+01 -0.91572209473E+00 -0.22722354294E+01  0.33907696136E+01  0.51100000000E-03 0. -1.
        -11    1    3    3    0    0  0.16529872014E+02 -0.35349879539E+02 -0.13272686266E+02  0.41219107865E+02  0.51100000000E-03 0.  1.
         12    1    3    3    0    0 -0.18342941188E+02  0.18346254710E+02  0.10132544825E+02  0.27851696859E+02  0.00000000000E+00 0. -1.
</event>
<event>
 7    1  0.3196678E-013  0.7246134E+02  0.7816164E-02  0.1226709E+00
        -11   -1    0    0    0    0  0.00000000000E+00  0.00000000000E+00  0.45593999997E+02  0.45594000000E+02  0.51100000000E-03 0.  1.
         11   -1    0    0    0    0 -0.00000000000E+00 -0.00000000000E+00 -0.45593999997E+02  0.45594000000E+02  0.51100000000E-03 0. -1.
    9900012    2    1    2    0    0  0.87043716933E+01 -0.15619586579E+02 -0.55632771665E+01  0.72461344551E+02  0.69999705927E+02 0.  0.
         12    1    1    2    0    0 -0.87043716933E+01  0.15619586579E+02  0.55632771665E+01  0.18726655449E+02  0.00000000000E+00 0. -1.
         11    1    3    3    0    0 -0.69241417861E+01 -0.19054250419E+02 -0.50898547361E+01  0.20902507505E+02  0.51100000000E-03 0. -1.
        -11    1    3    3    0    0 -0.16463492263E+02 -0.33498944626E+01  0.65176452741E+01  0.18020767758E+02  0.51100000000E-03 0.  1.
         12    1    3    3    0    0  0.32092005742E+02  0.67845583031E+01 -0.69910677045E+01  0.33538069288E+02  0.00000000000E+00 0. -1.
</event>
<event>
 7    1  0.3196678E-013  0.7246119E+02  0.7816164E-02  0.1226709E+00
        -11   -1    0    0    0    0  0.00000000000E+00  0.00000000000E+00  0.45593999997E+02  0.45594000000E+02  0.51100000000E-03 0. -1.
         11   -1    0    0    0    0 -0.00000000000E+00 -0.00000000000E+00 -0.45593999997E+02  0.45594000000E+02  0.51100000000E-03 0.  1.
    9900012    2    1    2    0    0  0.70650188067E+01  0.92681779354E+01 -0.14658774016E+02  0.72461193848E+02  0.69999509607E+02 0.  0.
         12    1    1    2    0    0 -0.70650188067E+01 -0.92681779354E+01  0.14658774016E+02  0.18726806152E+02  0.00000000000E+00 0. -1.
         11    1    3    3    0    0  0.97472981190E+01  0.23559456698E+02  0.42661525248E+01  0.25850684288E+02  0.51100000000E-03 0. -1.
        -11    1    3    3    0    0 -0.18632683047E+02  0.31542280566E+01 -0.71849707026E+01  0.20217562574E+02  0.51100000000E-03 0.  1.
        -12    1    3    3    0    0  0.15950403735E+02 -0.17445506820E+02 -0.11739955839E+02  0.26392946986E+02  0.00000000000E+00 0.  1.
</event>
<event>
 7    1  0.3520191E-013  0.7246156E+02  0.7816164E-02  0.1226708E+00
        -11   -1    0    0    0    0  0.00000000000E+00  0.00000000000E+00  0.45593999997E+02  0.45594000000E+02  0.51100000000E-03 0.  1.
         11   -1    0    0    0    0 -0.00000000000E+00 -0.00000000000E+00 -0.45593999997E+02  0.45594000000E+02  0.51100000000E-03 0. -1.
    9900012    2    1    2    0    0 -0.82369911805E+01 -0.14516549267E+02  0.84912420061E+01  0.72461563683E+02  0.69999991387E+02 0.  0.
         12    1    1    2    0    0  0.82369911805E+01  0.14516549267E+02 -0.84912420061E+01  0.18726436317E+02  0.00000000000E+00 0. -1.
         11    1    3    3    0    0 -0.13058021127E+02  0.65215498616E+01  0.83381885173E+01  0.16809756582E+02  0.51100000000E-03 0. -1.
        -11    1    3    3    0    0 -0.22414240242E+02 -0.16970661160E+02  0.15124273256E+00  0.28114487021E+02  0.51100000000E-03 0.  1.
         12    1    3    3    0    0  0.27235270189E+02 -0.40674379694E+01  0.18107562609E-02  0.27537320079E+02  0.00000000000E+00 0. -1.
</event>
<event>
 7    1  0.3196678E-013  0.7246152E+02  0.7816164E-02  0.1226708E+00
        -11   -1    0    0    0    0  0.00000000000E+00  0.00000000000E+00  0.45593999997E+02  0.45594000000E+02  0.51100000000E-03 0. -1.
         11   -1    0    0    0    0 -0.00000000000E+00 -0.00000000000E+00 -0.45593999997E+02  0.45594000000E+02  0.51100000000E-03 0.  1.
    9900012    2    1    2    0    0 -0.60798993874E+01  0.10535869803E+02 -0.14237670267E+02  0.72461521855E+02  0.69999936899E+02 0.  0.
         12    1    1    2    0    0  0.60798993874E+01 -0.10535869803E+02  0.14237670267E+02  0.18726478145E+02  0.00000000000E+00 0. -1.
         11    1    3    3    0    0 -0.29591496995E+02 -0.53557963588E+01 -0.18156079379E+02  0.35128115061E+02  0.51100000000E-03 0. -1.
        -11    1    3    3    0    0  0.16583443981E+00  0.75145893630E+00 -0.72935959540E+01  0.73340802965E+01  0.51100000000E-03 0.  1.
        -12    1    3    3    0    0  0.23345763168E+02  0.15140207226E+02  0.11212005066E+02  0.29999326498E+02  0.00000000000E+00 0.  1.
</event>
<event>
 7    1  0.3196678E-013  0.7246112E+02  0.7816164E-02  0.1226709E+00
        -11   -1    0    0    0    0  0.00000000000E+00  0.00000000000E+00  0.45593999997E+02  0.45594000000E+02  0.51100000000E-03 0.  1.
         11   -1    0    0    0    0 -0.00000000000E+00 -0.00000000000E+00 -0.45593999997E+02  0.45594000000E+02  0.51100000000E-03 0. -1.
    9900012    2    1    2    0    0 -0.24518934697E+01  0.69460921051E+01  0.17217322097E+02  0.72461116722E+02  0.69999409135E+02 0.  0.
         12    1    1    2    0    0  0.24518934697E+01 -0.69460921051E+01 -0.17217322097E+02  0.18726883278E+02  0.00000000000E+00 0. -1.
         11    1    3    3    0    0  0.22022508170E+02  0.17190698248E+02  0.42037176662E+01  0.28252118767E+02  0.51100000000E-03 0. -1.
        -11    1    3    3    0    0  0.56912571438E+01 -0.54910464379E+01 -0.44052171563E+01  0.90525100008E+01  0.51100000000E-03 0.  1.
        -12    1    3    3    0    0 -0.30165658784E+02 -0.47535597052E+01  0.17418821587E+02  0.35156487953E+02  0.00000000000E+00 0.  1.
</event>
<event>
 7    1  0.3196678E-013  0.7246160E+02  0.7816164E-02  0.1226708E+00
        -11   -1    0    0    0    0  0.00000000000E+00  0.00000000000E+00  0.45593999997E+02  0.45594000000E+02  0.51100000000E-03 0. -1.
         11   -1    0    0    0    0 -0.00000000000E+00 -0.00000000000E+00 -0.45593999997E+02  0.45594000000E+02  0.51100000000E-03 0.  1.
    9900012    2    1    2    0    0 -0.30696412146E+01  0.30679373181E+01 -0.18216560211E+02  0.72461601455E+02  0.70000040592E+02 0.  0.
         12    1    1    2    0    0  0.30696412146E+01 -0.30679373181E+01  0.18216560211E+02  0.18726398545E+02  0.00000000000E+00 0. -1.
         11    1    3    3    0    0  0.13508145106E+02 -0.87111042762E+01  0.14160025384E+02  0.21421009338E+02  0.51100000000E-03 0. -1.
        -11    1    3    3    0    0  0.63509723098E+01  0.52613468193E+01  0.26586603210E+01  0.86651655839E+01  0.51100000000E-03 0.  1.
        -12    1    3    3    0    0 -0.22928758630E+02  0.65176947749E+01 -0.35035245916E+02  0.42375426533E+02  0.00000000000E+00 0.  1.
</event>
<event>
 7    1  0.3196678E-013  0.7246157E+02  0.7816164E-02  0.1226708E+00
        -11   -1    0    0    0    0  0.00000000000E+00  0.00000000000E+00  0.45593999997E+02  0.45594000000E+02  0.51100000000E-03 0. -1.
         11   -1    0    0    0    0 -0.00000000000E+00 -0.00000000000E+00 -0.45593999997E+02  0.45594000000E+02  0.51100000000E-03 0.  1.
    9900012    2    1    2    0    0 -0.52836718839E+01 -0.10916878191E+02 -0.14268276140E+02  0.72461571563E+02  0.70000001652E+02 0.  0.
         12    1    1    2    0    0  0.52836718839E+01  0.10916878191E+02  0.14268276140E+02  0.18726428437E+02  0.00000000000E+00 0. -1.
         11    1    3    3    0    0 -0.13336772056E+01  0.16975531027E+01  0.26152171370E+02  0.26241121338E+02  0.51100000000E-03 0. -1.
        -11    1    3    3    0    0  0.23263066122E+01  0.36836113410E+01 -0.44140967685E+01  0.62020114083E+01  0.51100000000E-03 0.  1.
        -12    1    3    3    0    0 -0.62763012906E+01 -0.16298042635E+02 -0.36006350741E+02  0.40018438817E+02  0.00000000000E+00 0.  1.
</event>
<event>
 7    1  0.3196678E-013  0.7246154E+02  0.7816164E-02  0.1226708E+00
        -11   -1    0    0    0    0  0.00000000000E+00  0.00000000000E+00  0.45593999997E+02  0.45594000000E+02  0.51100000000E-03 0.  1.
         11   -1    0    0    0    0 -0.00000000000E+00 -0.00000000000E+00 -0.45593999997E+02  0.45594000000E+02  0.51100000000E-03 0. -1.
    9900012    2    1    2    0    0  0.38119776141E+01 -0.10763953367E+02 -0.14842051634E+02  0.72461538452E+02  0.69999958519E+02 0.  0.
         12    1    1    2    0    0 -0.38119776141E+01  0.10763953367E+02  0.14842051634E+02  0.18726461548E+02  0.00000000000E+00 0. -1.
         11    1    3    3    0    0 -0.48357658356E+01  0.32229766707E+01 -0.39232759221E+00  0.58246142393E+01  0.51100000000E-03 0. -1.
        -11    1    3    3    0    0 -0.11018549312E+02 -0.22211792691E+02  0.15969310011E+02  0.29492219753E+02  0.51100000000E-03 0.  1.
         12    1    3    3    0    0  0.19666292762E+02  0.82248626528E+01 -0.30419034053E+02  0.37144704459E+02  0.00000000000E+00 0. -1.
</event>
<event>
 7    1  0.3196678E-013  0.7246155E+02  0.7816164E-02  0.1226708E+00
        -11   -1    0    0    0    0  0.00000000000E+00  0.00000000000E+00  0.45593999997E+02  0.45594000000E+02  0.51100000000E-03 0. -1.
         11   -1    0    0    0    0 -0.00000000000E+00 -0.00000000000E+00 -0.45593999997E+02  0.45594000000E+02  0.51100000000E-03 0.  1.
    9900012    2    1    2    0    0 -0.41970849414E+01  0.20972813297E+01 -0.18129147284E+02  0.72461545658E+02  0.69999967906E+02 0.  0.
         12    1    1    2    0    0  0.41970849414E+01 -0.20972813297E+01  0.18129147284E+02  0.18726454342E+02  0.00000000000E+00 0. -1.
         11    1    3    3    0    0  0.44429716046E+01  0.13379611157E+02 -0.14676442324E+01  0.14174200903E+02  0.51100000000E-03 0. -1.
        -11    1    3    3    0    0  0.20602193204E+02  0.37935955988E+01 -0.14175117683E+02  0.25293787656E+02  0.51100000000E-03 0.  1.
         12    1    3    3    0    0 -0.29242249750E+02 -0.15075925426E+02 -0.24863853684E+01  0.32993557099E+02  0.00000000000E+00 0. -1.
</event>
<event>
 7    1  0.3196678E-013  0.7246156E+02  0.7816164E-02  0.1226708E+00
        -11   -1    0    0    0    0  0.00000000000E+00  0.00000000000E+00  0.45593999997E+02  0.45594000000E+02  0.51100000000E-03 0.  1.
         11   -1    0    0    0    0 -0.00000000000E+00 -0.00000000000E+00 -0.45593999997E+02  0.45594000000E+02  0.51100000000E-03 0. -1.
    9900012    2    1    2    0    0  0.17616345288E+02  0.63374966760E+01  0.42416431910E+00  0.72461564119E+02  0.69999991956E+02 0.  0.
         12    1    1    2    0    0 -0.17616345288E+02 -0.63374966760E+01 -0.42416431910E+00  0.18726435881E+02  0.00000000000E+00 0. -1.
         11    1    3    3    0    0  0.34421341632E+02  0.14050804307E+02 -0.11170384156E+02  0.38820501592E+02  0.51100000000E-03 0. -1.
        -11    1    3    3    0    0 -0.81311527298E+00 -0.33675375388E+01 -0.75580853630E+01  0.83142119372E+01  0.51100000000E-03 0.  1.
        -12    1    3    3    0    0 -0.15991881071E+02 -0.43457700922E+01  0.19152633838E+02  0.25326850590E+02  0.00000000000E+00 0.  1.
</event>
<event>
 7    1  0.3196678E-013  0.7246156E+02  0.7816164E-02  0.1226708E+00
        -11   -1    0    0    0    0  0.00000000000E+00  0.00000000000E+00  0.45593999997E+02  0.45594000000E+02  0.51100000000E-03 0.  1.
         11   -1    0    0    0    0 -0.00000000000E+00 -0.00000000000E+00 -0.45593999997E+02  0.45594000000E+02  0.51100000000E-03 0. -1.
    9900012    2    1    2    0    0  0.15962302182E+01  0.61478373797E+01  0.17616350679E+02  0.72461557022E+02  0.69999982711E+02 0.  0.
         12    1    1    2    0    0 -0.15962302182E+01 -0.61478373797E+01 -0.17616350679E+02  0.18726442978E+02  0.00000000000E+00 0. -1.
         11    1    3    3    0    0 -0.85998013119E+01  0.71332488541E+01  0.33931333931E+02  0.35723595065E+02  0.51100000000E-03 0. -1.
        -11    1    3    3    0    0  0.10960772657E+02  0.11864488111E+02 -0.25344822759E+00  0.16154530375E+02  0.51100000000E-03 0.  1.
         12    1    3    3    0    0 -0.76474112655E+00 -0.12849899586E+02 -0.16061535024E+02  0.20583431582E+02  0.00000000000E+00 0. -1.
</event>
<event>
 7    1  0.3196678E-013  0.7246156E+02  0.7816164E-02  0.1226708E+00
        -11   -1    0    0    0    0  0.00000000000E+00  0.00000000000E+00  0.45593999997E+02  0.45594000000E+02  0.51100000000E-03 0. -1.
         11   -1    0    0    0    0 -0.00000000000E+00 -0.00000000000E+00 -0.45593999997E+02  0.45594000000E+02  0.51100000000E-03 0.  1.
    9900012    2    1    2    0    0 -0.55398258688E+01 -0.80194767719E+00 -0.17870272397E+02  0.72461563438E+02  0.69999991069E+02 0.  0.
         12    1    1    2    0    0  0.55398258688E+01  0.80194767719E+00  0.17870272397E+02  0.18726436562E+02  0.00000000000E+00 0. -1.
         11    1    3    3    0    0 -0.27613201224E+01 -0.23389927398E+01 -0.22438892586E+02  0.22728829196E+02  0.51100000000E-03 0. -1.
        -11    1    3    3    0    0 -0.12596049588E+02  0.18900134677E+02 -0.10215741805E+02  0.24904556549E+02  0.51100000000E-03 0.  1.
         12    1    3    3    0    0  0.98175438418E+01 -0.17363089614E+02  0.14784361993E+02  0.24828177694E+02  0.00000000000E+00 0. -1.
</event>
<event>
 7    1  0.3196678E-013  0.7246156E+02  0.7816164E-02  0.1226708E+00
        -11   -1    0    0    0    0  0.00000000000E+00  0.00000000000E+00  0.45593999997E+02  0.45594000000E+02  0.51100000000E-03 0.  1.
         11   -1    0    0    0    0 -0.00000000000E+00 -0.00000000000E+00 -0.45593999997E+02  0.45594000000E+02  0.51100000000E-03 0. -1.
    9900012    2    1    2    0    0  0.16613141396E+02 -0.53749780436E+01  0.67670212075E+01  0.72461563285E+02  0.69999990869E+02 0.  0.
         12    1    1    2    0    0 -0.16613141396E+02  0.53749780436E+01 -0.67670212075E+01  0.18726436715E+02  0.00000000000E+00 0. -1.
         11    1    3    3    0    0  0.14040477292E+02 -0.20063422283E+02  0.56781461431E+01  0.25137964519E+02  0.51100000000E-03 0. -1.
        -11    1    3    3    0    0  0.23269875739E+02  0.56305143553E+01 -0.37098156728E+01  0.24227103446E+02  0.51100000000E-03 0.  1.
        -12    1    3    3    0    0 -0.20697211635E+02  0.90579298846E+01  0.47986907371E+01  0.23096495319E+02  0.00000000000E+00 0.  1.
</event>
<event>
 7    1  0.3196678E-013  0.7246155E+02  0.7816164E-02  0.1226708E+00
        -11   -1    0    0    0    0  0.00000000000E+00  0.00000000000E+00  0.45593999997E+02  0.45594000000E+02  0.51100000000E-03 0.  1.
         11   -1    0    0    0    0 -0.00000000000E+00 -0.00000000000E+00 -0.45593999997E+02  0.45594000000E+02  0.51100000000E-03 0. -1.
    9900012    2    1    2    0    0  0.46326532159E+01 -0.16230842575E+02  0.81103724716E+01  0.72461551641E+02  0.69999975700E+02 0.  0.
         12    1    1    2    0    0 -0.46326532159E+01  0.16230842575E+02 -0.81103724716E+01  0.18726448359E+02  0.00000000000E+00 0. -1.
         11    1    3    3    0    0 -0.43882627363E+01 -0.81371955886E+01 -0.10083833973E+01  0.92998730759E+01  0.51100000000E-03 0. -1.
        -11    1    3    3    0    0  0.17870092428E+02 -0.25306654381E+02  0.23636622032E+02  0.38967382010E+02  0.51100000000E-03 0.  1.
         12    1    3    3    0    0 -0.88491764759E+01  0.17213007395E+02 -0.14517866163E+02  0.24194296555E+02  0.00000000000E+00 0. -1.
</event>
<event>
 7    1  0.3196678E-013  0.7246159E+02  0.7816164E-02  0.1226708E+00
        -11   -1    0    0    0    0  0.00000000000E+00  0.00000000000E+00  0.45593999997E+02  0.45594000000E+02  0.51100000000E-03 0. -1.
         11   -1    0    0    0    0 -0.00000000000E+00 -0.00000000000E+00 -0.45593999997E+02  0.45594000000E+02  0.51100000000E-03 0.  1.
    9900012    2    1    2    0    0  0.67812399648E+00 -0.14746382039E+02 -0.11522281019E+02  0.72461585627E+02  0.70000019973E+02 0.  0.
         12    1    1    2    0    0 -0.67812399648E+00  0.14746382039E+02  0.11522281019E+02  0.18726414373E+02  0.00000000000E+00 0. -1.
         11    1    3    3    0    0 -0.33426796920E+01 -0.87023312522E+01  0.14115151623E+02  0.16915719977E+02  0.51100000000E-03 0. -1.
        -11    1    3    3    0    0  0.24232682088E+02 -0.65459284327E+01 -0.31374575633E+01  0.25296555110E+02  0.51100000000E-03 0.  1.
        -12    1    3    3    0    0 -0.20211878399E+02  0.50187764549E+00 -0.22499975078E+02  0.30249310540E+02  0.00000000000E+00 0.  1.
</event>
<event>
 7    1  0.3196678E-013  0.7246157E+02  0.7816164E-02  0.1226708E+00
        -11   -1    0    0    0    0  0.00000000000E+00  0.00000000000E+00  0.45593999997E+02  0.45594000000E+02  0.51100000000E-03 0.  1.
         11   -1    0    0    0    0 -0.00000000000E+00 -0.00000000000E+00 -0.45593999997E+02  0.45594000000E+02  0.51100000000E-03 0. -1.
    9900012    2    1    2    0    0  0.66845184419E+01  0.30070348289E+01  0.17232359985E+02  0.72461567454E+02  0.69999996300E+02 0.  0.
         12    1    1    2    0    0 -0.66845184419E+01 -0.30070348289E+01 -0.17232359985E+02  0.18726432546E+02  0.00000000000E+00 0. -1.
         11    1    3    3    0    0  0.12334816598E+01 -0.12306346197E+02  0.20450721337E+02  0.23899783204E+02  0.51100000000E-03 0. -1.
        -11    1    3    3    0    0 -0.75347867460E+01  0.19339856468E+02  0.15158894601E+02  0.25702045547E+02  0.51100000000E-03 0.  1.
        -12    1    3    3    0    0  0.12985823528E+02 -0.40264754418E+01 -0.18377255954E+02  0.22859738703E+02  0.00000000000E+00 0.  1.
</event>
<event>
 7    1  0.3196678E-013  0.7246152E+02  0.7816164E-02  0.1226708E+00
        -11   -1    0    0    0    0  0.00000000000E+00  0.00000000000E+00  0.45593999997E+02  0.45594000000E+02  0.51100000000E-03 0. -1.
         11   -1    0    0    0    0 -0.00000000000E+00 -0.00000000000E+00 -0.45593999997E+02  0.45594000000E+02  0.51100000000E-03 0.  1.
    9900012    2    1    2    0    0 -0.36505730490E+01 -0.12362584382E+02 -0.13583844169E+02  0.72461521457E+02  0.69999936381E+02 0.  0.
         12    1    1    2    0    0  0.36505730490E+01  0.12362584382E+02  0.13583844169E+02  0.18726478543E+02  0.00000000000E+00 0. -1.
         11    1    3    3    0    0 -0.19942481263E+02  0.34594028508E+01  0.19390457768E+02  0.28029625037E+02  0.51100000000E-03 0. -1.
        -11    1    3    3    0    0  0.24463371721E+01 -0.12241453930E+02 -0.58887806383E+01  0.13802735147E+02  0.51100000000E-03 0.  1.
        -12    1    3    3    0    0  0.13845571042E+02 -0.35805333033E+01 -0.27085521299E+02  0.30629161273E+02  0.00000000000E+00 0.  1.
</event>
<event>
 7    1  0.3196678E-013  0.7246152E+02  0.7816164E-02  0.1226708E+00
        -11   -1    0    0    0    0  0.00000000000E+00  0.00000000000E+00  0.45593999997E+02  0.45594000000E+02  0.51100000000E-03 0. -1.
         11   -1    0    0    0    0 -0.00000000000E+00 -0.00000000000E+00 -0.45593999997E+02  0.45594000000E+02  0.51100000000E-03 0.  1.
    9900012    2    1    2    0    0 -0.12455463549E+02 -0.64945163538E+01 -0.12384016366E+02  0.72461516715E+02  0.69999930202E+02 0.  0.
         12    1    1    2    0    0  0.12455463549E+02  0.64945163538E+01  0.12384016366E+02  0.18726483285E+02  0.00000000000E+00 0. -1.
         11    1    3    3    0    0  0.76276407389E+01 -0.22950296280E+02  0.14774335601E+02  0.28340395115E+02  0.51100000000E-03 0. -1.
        -11    1    3    3    0    0  0.31206483188E+01 -0.21303964936E+01  0.10956285716E+00  0.37800845798E+01  0.51100000000E-03 0.  1.
         12    1    3    3    0    0 -0.23203752607E+02  0.18586176420E+02 -0.27267914824E+02  0.40341037019E+02  0.00000000000E+00 0. -1.
</event>
<event>
 7    1  0.3196678E-013  0.7246162E+02  0.7816164E-02  0.1226708E+00
        -11   -1    0    0    0    0  0.00000000000E+00  0.00000000000E+00  0.45593999997E+02  0.45594000000E+02  0.51100000000E-03 0.  1.
         11   -1    0    0    0    0 -0.00000000000E+00 -0.00000000000E+00 -0.45593999997E+02  0.45594000000E+02  0.51100000000E-03 0. -1.
    9900012    2    1    2    0    0  0.37276353169E+01 -0.44382605982E+01  0.17806849616E+02  0.72461619798E+02  0.70000064488E+02 0.  0.
         12    1    1    2    0    0 -0.37276353169E+01  0.44382605982E+01 -0.17806849616E+02  0.18726380202E+02  0.00000000000E+00 0. -1.
         11    1    3    3    0    0 -0.33763495015E+01  0.39455056120E+01  0.17757229680E+01  0.54881638834E+01  0.51100000000E-03 0. -1.
        -11    1    3    3    0    0 -0.28114221207E+02 -0.54581009464E+01  0.12474507993E+01  0.28666294385E+02  0.51100000000E-03 0.  1.
         12    1    3    3    0    0  0.35218206025E+02 -0.29256652638E+01  0.14783675849E+02  0.38307161530E+02  0.00000000000E+00 0. -1.
</event>
<event>
 7    1  0.3196678E-013  0.7246187E+02  0.7816164E-02  0.1226707E+00
        -11   -1    0    0    0    0  0.00000000000E+00  0.00000000000E+00  0.45593999997E+02  0.45594000000E+02  0.51100000000E-03 0. -1.
         11   -1    0    0    0    0 -0.00000000000E+00 -0.00000000000E+00 -0.45593999997E+02  0.45594000000E+02  0.51100000000E-03 0.  1.
    9900012    2    1    2    0    0  0.24308709485E+01 -0.10255011639E+01 -0.18539343130E+02  0.72461867727E+02  0.70000387460E+02 0.  0.
         12    1    1    2    0    0 -0.24308709485E+01  0.10255011639E+01  0.18539343130E+02  0.18726132273E+02  0.00000000000E+00 0. -1.
         11    1    3    3    0    0 -0.63788404201E+01  0.22565815670E+02 -0.44020822358E+01  0.23859672467E+02  0.51100000000E-03 0. -1.
        -11    1    3    3    0    0 -0.63002062299E+01 -0.20107401847E+02  0.71629696402E+01  0.22255523852E+02  0.51100000000E-03 0.  1.
        -12    1    3    3    0    0  0.15109917599E+02 -0.34839149869E+01 -0.21300230535E+02  0.26346671408E+02  0.00000000000E+00 0.  1.
</event>
<event>
 7    1  0.3196678E-013  0.7246157E+02  0.7816164E-02  0.1226708E+00
        -11   -1    0    0    0    0  0.00000000000E+00  0.00000000000E+00  0.45593999997E+02  0.45594000000E+02  0.51100000000E-03 0.  1.
         11   -1    0    0    0    0 -0.00000000000E+00 -0.00000000000E+00 -0.45593999997E+02  0.45594000000E+02  0.51100000000E-03 0. -1.
    9900012    2    1    2    0    0 -0.13531183448E+00 -0.14965927322E+02  0.11255305242E+02  0.72461569855E+02  0.69999999427E+02 0.  0.
         12    1    1    2    0    0  0.13531183448E+00  0.14965927322E+02 -0.11255305242E+02  0.18726430145E+02  0.00000000000E+00 0. -1.
         11    1    3    3    0    0 -0.34190701172E+00  0.12919116679E+02  0.18979162463E+01  0.13062257176E+02  0.51100000000E-03 0.  1.
        -11    1    3    3    0    0 -0.14108234894E+02  0.10326511635E+02 -0.22199574747E+00  0.17485091271E+02  0.51100000000E-03 0. -1.
        -12    1    3    3    0    0  0.14314830071E+02 -0.38211555637E+02  0.95793847429E+01  0.41914221408E+02  0.00000000000E+00 0.  1.
</event>
<event>
 7    1  0.3196678E-013  0.7246157E+02  0.7816164E-02  0.1226708E+00
        -11   -1    0    0    0    0  0.00000000000E+00  0.00000000000E+00  0.45593999997E+02  0.45594000000E+02  0.51100000000E-03 0. -1.
         11   -1    0    0    0    0 -0.00000000000E+00 -0.00000000000E+00 -0.45593999997E+02  0.45594000000E+02  0.51100000000E-03 0.  1.
    9900012    2    1    2    0    0  0.15055537636E+02 -0.32639824002E+01 -0.10646895687E+02  0.72461569951E+02  0.69999999553E+02 0.  0.
         12    1    1    2    0    0 -0.15055537636E+02  0.32639824002E+01  0.10646895687E+02  0.18726430049E+02  0.00000000000E+00 0. -1.
         11    1    3    3    0    0 -0.23626455089E+02  0.35237495273E+01 -0.91582022471E+01  0.25583175320E+02  0.51100000000E-03 0. -1.
        -11    1    3    3    0    0  0.74220010670E+01 -0.32970671908E+01  0.10449856709E+02  0.13234661212E+02  0.51100000000E-03 0.  1.
        -12    1    3    3    0    0  0.31259991658E+02 -0.34906647367E+01 -0.11938550148E+02  0.33643733419E+02  0.00000000000E+00 0.  1.
</event>
<event>
 7    1  0.3196678E-013  0.7246140E+02  0.7816164E-02  0.1226708E+00
        -11   -1    0    0    0    0  0.00000000000E+00  0.00000000000E+00  0.45593999997E+02  0.45594000000E+02  0.51100000000E-03 0.  1.
         11   -1    0    0    0    0 -0.00000000000E+00 -0.00000000000E+00 -0.45593999997E+02  0.45594000000E+02  0.51100000000E-03 0. -1.
    9900012    2    1    2    0    0  0.15494630153E+02  0.10461174119E+02  0.10797819037E+01  0.72461397092E+02  0.69999774371E+02 0.  0.
         12    1    1    2    0    0 -0.15494630153E+02 -0.10461174119E+02 -0.10797819037E+01  0.18726602908E+02  0.00000000000E+00 0. -1.
         11    1    3    3    0    0 -0.67414113992E+00 -0.94242879467E+01  0.20315000664E+01  0.96642983376E+01  0.51100000000E-03 0. -1.
        -11    1    3    3    0    0 -0.53041293097E+01  0.29624158678E+01  0.24622100345E+02  0.25360550490E+02  0.51100000000E-03 0.  1.
         12    1    3    3    0    0  0.21472900602E+02  0.16923046198E+02 -0.25573818507E+02  0.37436548264E+02  0.00000000000E+00 0. -1.
</event>
<event>
 7    1  0.3196678E-013  0.7246157E+02  0.7816164E-02  0.1226708E+00
        -11   -1    0    0    0    0  0.00000000000E+00  0.00000000000E+00  0.45593999997E+02  0.45594000000E+02  0.51100000000E-03 0. -1.
         11   -1    0    0    0    0 -0.00000000000E+00 -0.00000000000E+00 -0.45593999997E+02  0.45594000000E+02  0.51100000000E-03 0.  1.
    9900012    2    1    2    0    0 -0.15520876089E+02 -0.10285059341E+02  0.19998276688E+01  0.72461565451E+02  0.69999993690E+02 0.  0.
         12    1    1    2    0    0  0.15520876089E+02  0.10285059341E+02 -0.19998276688E+01  0.18726434549E+02  0.00000000000E+00 0. -1.
         11    1    3    3    0    0  0.13344977863E+01  0.53744056197E+01  0.77382833958E+01  0.95155740910E+01  0.51100000000E-03 0. -1.
        -11    1    3    3    0    0 -0.52311327520E+01 -0.92813291435E+01 -0.31891425144E+02  0.33623961970E+02  0.51100000000E-03 0.  1.
         12    1    3    3    0    0 -0.11624241123E+02 -0.63781358176E+01  0.26152969417E+02  0.29322029390E+02  0.00000000000E+00 0. -1.
</event>
<event>
 7    1  0.3196678E-013  0.7246157E+02  0.7816164E-02  0.1226708E+00
        -11   -1    0    0    0    0  0.00000000000E+00  0.00000000000E+00  0.45593999997E+02  0.45594000000E+02  0.51100000000E-03 0. -1.
         11   -1    0    0    0    0 -0.00000000000E+00 -0.00000000000E+00 -0.45593999997E+02  0.45594000000E+02  0.51100000000E-03 0.  1.
    9900012    2    1    2    0    0 -0.80028084235E+01 -0.62488791693E+01 -0.15734858930E+02  0.72461568971E+02  0.69999998276E+02 0.  0.
         12    1    1    2    0    0  0.80028084235E+01  0.62488791693E+01  0.15734858930E+02  0.18726431029E+02  0.00000000000E+00 0. -1.
         11    1    3    3    0    0 -0.45007862691E+00 -0.33340751795E+01 -0.63352658549E+00  0.34234462561E+01  0.51100000000E-03 0. -1.
        -11    1    3    3    0    0 -0.32861278109E+01 -0.24276762577E+02 -0.32822153990E+02  0.40956728751E+02  0.51100000000E-03 0.  1.
         12    1    3    3    0    0 -0.42666019857E+01  0.21361958587E+02  0.17720821646E+02  0.28081393964E+02  0.00000000000E+00 0. -1.
</event>
<event>
 7    1  0.3196678E-013  0.7246151E+02  0.7816164E-02  0.1226708E+00
        -11   -1    0    0    0    0  0.00000000000E+00  0.00000000000E+00  0.45593999997E+02  0.45594000000E+02  0.51100000000E-03 0.  1.
         11   -1    0    0    0    0 -0.00000000000E+00 -0.00000000000E+00 -0.45593999997E+02  0.45594000000E+02  0.51100000000E-03 0. -1.
    9900012    2    1    2    0    0  0.31456798129E+00  0.10245420420E+02  0.15672072142E+02  0.72461509730E+02  0.69999921104E+02 0.  0.
         12    1    1    2    0    0 -0.31456798129E+00 -0.10245420420E+02 -0.15672072142E+02  0.18726490270E+02  0.00000000000E+00 0. -1.
         11    1    3    3    0    0 -0.43616119440E+01  0.20135408411E+02 -0.11342076940E+02  0.23518100267E+02  0.51100000000E-03 0. -1.
        -11    1    3    3    0    0 -0.67220357970E+01 -0.15236753171E+02 -0.25148666250E+01  0.16842475081E+02  0.51100000000E-03 0.  1.
        -12    1    3    3    0    0  0.11398215722E+02  0.53467651797E+01  0.29529015708E+02  0.32100934382E+02  0.00000000000E+00 0.  1.
</event>
<event>
 7    1  0.3298597E-013  0.7246150E+02  0.7816164E-02  0.1226708E+00
        -11   -1    0    0    0    0  0.00000000000E+00  0.00000000000E+00  0.45593999997E+02  0.45594000000E+02  0.51100000000E-03 0.  1.
         11   -1    0    0    0    0 -0.00000000000E+00 -0.00000000000E+00 -0.45593999997E+02  0.45594000000E+02  0.51100000000E-03 0. -1.
    9900012    2    1    2    0    0  0.36763215698E+01  0.86160098597E+01  0.16215144073E+02  0.72461498365E+02  0.69999906298E+02 0.  0.
         12    1    1    2    0    0 -0.36763215698E+01 -0.86160098597E+01 -0.16215144073E+02  0.18726501635E+02  0.00000000000E+00 0. -1.
         11    1    3    3    0    0 -0.12204331039E+02  0.67055946373E+01  0.60717689370E+01  0.15191348651E+02  0.51100000000E-03 0. -1.
        -11    1    3    3    0    0  0.80986031721E+01  0.71626838464E+01  0.31842011613E+02  0.33627445890E+02  0.51100000000E-03 0.  1.
         12    1    3    3    0    0  0.77820494367E+01 -0.52522686240E+01 -0.21698636477E+02  0.23642703824E+02  0.00000000000E+00 0. -1.
</event>
<event>
 7    1  0.3196678E-013  0.7246158E+02  0.7816164E-02  0.1226708E+00
        -11   -1    0    0    0    0  0.00000000000E+00  0.00000000000E+00  0.45593999997E+02  0.45594000000E+02  0.51100000000E-03 0.  1.
         11   -1    0    0    0    0 -0.00000000000E+00 -0.00000000000E+00 -0.45593999997E+02  0.45594000000E+02  0.51100000000E-03 0. -1.
    9900012    2    1    2    0    0 -0.49775631052E+01  0.17265167579E+02 -0.52741407532E+01  0.72461582653E+02  0.70000016099E+02 0.  0.
         12    1    1    2    0    0  0.49775631052E+01 -0.17265167579E+02  0.52741407532E+01  0.18726417347E+02  0.00000000000E+00 0. -1.
         11    1    3    3    0    0 -0.22716703395E+01  0.40956397038E+01 -0.11749928644E+02  0.12648935691E+02  0.51100000000E-03 0. -1.
        -11    1    3    3    0    0 -0.19650856684E+02 -0.12647823301E+02 -0.92795356187E+01  0.25144251515E+02  0.51100000000E-03 0.  1.
        -12    1    3    3    0    0  0.16944963918E+02  0.25817351176E+02  0.15755323510E+02  0.34668395447E+02  0.00000000000E+00 0.  1.
</event>
<event>
 7    1  0.3196678E-013  0.7246140E+02  0.7816164E-02  0.1226708E+00
        -11   -1    0    0    0    0  0.00000000000E+00  0.00000000000E+00  0.45593999997E+02  0.45594000000E+02  0.51100000000E-03 0.  1.
         11   -1    0    0    0    0 -0.00000000000E+00 -0.00000000000E+00 -0.45593999997E+02  0.45594000000E+02  0.51100000000E-03 0. -1.
    9900012    2    1    2    0    0  0.10658466026E+02 -0.11128422166E+02  0.10641467975E+02  0.72461400773E+02  0.69999779167E+02 0.  0.
         12    1    1    2    0    0 -0.10658466026E+02  0.11128422166E+02 -0.10641467975E+02  0.18726599227E+02  0.00000000000E+00 0. -1.
         11    1    3    3    0    0  0.12074966325E+02 -0.13080547875E+02 -0.19151008663E+01  0.17904556852E+02  0.51100000000E-03 0. -1.
        -11    1    3    3    0    0  0.11774954954E+02 -0.18882748491E+02 -0.67321787618E+01  0.23249300761E+02  0.51100000000E-03 0.  1.
         12    1    3    3    0    0 -0.13191455252E+02  0.20834874201E+02  0.19288747604E+02  0.31307543161E+02  0.00000000000E+00 0. -1.
</event>
<event>
 7    1  0.3196678E-013  0.7246156E+02  0.7816164E-02  0.1226708E+00
        -11   -1    0    0    0    0  0.00000000000E+00  0.00000000000E+00  0.45593999997E+02  0.45594000000E+02  0.51100000000E-03 0.  1.
         11   -1    0    0    0    0 -0.00000000000E+00 -0.00000000000E+00 -0.45593999997E+02  0.45594000000E+02  0.51100000000E-03 0. -1.
    9900012    2    1    2    0    0  0.10989449654E+02  0.12292837562E+02  0.88767980653E+01  0.72461564063E+02  0.69999991882E+02 0.  0.
         12    1    1    2    0    0 -0.10989449654E+02 -0.12292837562E+02 -0.88767980653E+01  0.18726435937E+02  0.00000000000E+00 0. -1.
         11    1    3    3    0    0 -0.14908056635E+02  0.14077351785E+02  0.10741273823E+02  0.23147288168E+02  0.51100000000E-03 0. -1.
        -11    1    3    3    0    0 -0.64688852600E+01  0.43485483164E+01  0.11393057027E+02  0.13804278238E+02  0.51100000000E-03 0.  1.
         12    1    3    3    0    0  0.32366391549E+02 -0.61330625400E+01 -0.13257532785E+02  0.35509997657E+02  0.00000000000E+00 0. -1.
</event>
<event>
 7    1  0.3196678E-013  0.7246151E+02  0.7816164E-02  0.1226708E+00
        -11   -1    0    0    0    0  0.00000000000E+00  0.00000000000E+00  0.45593999997E+02  0.45594000000E+02  0.51100000000E-03 0.  1.
         11   -1    0    0    0    0 -0.00000000000E+00 -0.00000000000E+00 -0.45593999997E+02  0.45594000000E+02  0.51100000000E-03 0. -1.
    9900012    2    1    2    0    0  0.15647108807E+02 -0.77640379142E+01  0.67504802714E+01  0.72461513874E+02  0.69999926502E+02 0.  0.
         12    1    1    2    0    0 -0.15647108807E+02  0.77640379142E+01 -0.67504802714E+01  0.18726486126E+02  0.00000000000E+00 0. -1.
         11    1    3    3    0    0  0.27359834695E+02  0.66870621721E+01  0.10626498917E+01  0.28185219178E+02  0.51100000000E-03 0. -1.
        -11    1    3    3    0    0 -0.71598046543E+01 -0.24783760276E+02  0.14822773870E+02  0.29752515886E+02  0.51100000000E-03 0.  1.
         12    1    3    3    0    0 -0.45529212343E+01  0.10332660189E+02 -0.91349434904E+01  0.14523778810E+02  0.00000000000E+00 0. -1.
</event>
<event>
 7    1  0.3196678E-013  0.7246156E+02  0.7816164E-02  0.1226708E+00
        -11   -1    0    0    0    0  0.00000000000E+00  0.00000000000E+00  0.45593999997E+02  0.45594000000E+02  0.51100000000E-03 0.  1.
         11   -1    0    0    0    0 -0.00000000000E+00 -0.00000000000E+00 -0.45593999997E+02  0.45594000000E+02  0.51100000000E-03 0. -1.
    9900012    2    1    2    0    0 -0.14634013017E+02  0.75075790050E+01  0.89532917251E+01  0.72461561145E+02  0.69999988081E+02 0.  0.
         12    1    1    2    0    0  0.14634013017E+02 -0.75075790050E+01 -0.89532917251E+01  0.18726438855E+02  0.00000000000E+00 0. -1.
         11    1    3    3    0    0 -0.46415981373E+01  0.20702112718E+01  0.11608936677E+02  0.12672711589E+02  0.51100000000E-03 0. -1.
        -11    1    3    3    0    0 -0.78436927321E+01  0.77594236915E+01  0.27415179674E+02  0.29552059970E+02  0.51100000000E-03 0.  1.
         12    1    3    3    0    0 -0.21487221472E+01 -0.23220559583E+01 -0.30070824626E+02  0.30236789585E+02  0.00000000000E+00 0. -1.
</event>
<event>
 7    1  0.3196678E-013  0.7246171E+02  0.7816164E-02  0.1226708E+00
        -11   -1    0    0    0    0  0.00000000000E+00  0.00000000000E+00  0.45593999997E+02  0.45594000000E+02  0.51100000000E-03 0.  1.
         11   -1    0    0    0    0 -0.00000000000E+00 -0.00000000000E+00 -0.45593999997E+02  0.45594000000E+02  0.51100000000E-03 0. -1.
    9900012    2    1    2    0    0  0.10075476166E+02 -0.79597183852E+01  0.13630902500E+02  0.72461712602E+02  0.70000185382E+02 0.  0.
         12    1    1    2    0    0 -0.10075476166E+02  0.79597183852E+01 -0.13630902500E+02  0.18726287398E+02  0.00000000000E+00 0. -1.
         11    1    3    3    0    0 -0.60799930348E+01 -0.67764494434E+01  0.35066671406E+01  0.97561927542E+01  0.51100000000E-03 0. -1.
        -11    1    3    3    0    0  0.57396774551E+01  0.15800444206E+02  0.30110403011E+02  0.34485276628E+02  0.51100000000E-03 0.  1.
        -12    1    3    3    0    0  0.10415791746E+02 -0.16983713148E+02 -0.19986167651E+02  0.28220243219E+02  0.00000000000E+00 0.  1.
</event>
<event>
 7    1  0.3196678E-013  0.7246160E+02  0.7816164E-02  0.1226708E+00
        -11   -1    0    0    0    0  0.00000000000E+00  0.00000000000E+00  0.45593999997E+02  0.45594000000E+02  0.51100000000E-03 0. -1.
         11   -1    0    0    0    0 -0.00000000000E+00 -0.00000000000E+00 -0.45593999997E+02  0.45594000000E+02  0.51100000000E-03 0.  1.
    9900012    2    1    2    0    0  0.81024842722E+01 -0.16026103928E+02 -0.53096067220E+01  0.72461596661E+02  0.70000034347E+02 0.  0.
         12    1    1    2    0    0 -0.81024842722E+01  0.16026103928E+02  0.53096067220E+01  0.18726403339E+02  0.00000000000E+00 0. -1.
         11    1    3    3    0    0  0.19899855854E+00  0.57993290504E+01 -0.11088037105E+02  0.12514646818E+02  0.51100000000E-03 0. -1.
        -11    1    3    3    0    0  0.39101077434E+01 -0.24278189648E+02 -0.21258992642E+02  0.32506371738E+02  0.51100000000E-03 0.  1.
         12    1    3    3    0    0  0.39933779703E+01  0.24527566698E+01  0.27037423025E+02  0.27440578105E+02  0.00000000000E+00 0. -1.
</event>
<event>
 7    1  0.3196678E-013  0.7246158E+02  0.7816164E-02  0.1226708E+00
        -11   -1    0    0    0    0  0.00000000000E+00  0.00000000000E+00  0.45593999997E+02  0.45594000000E+02  0.51100000000E-03 0.  1.
         11   -1    0    0    0    0 -0.00000000000E+00 -0.00000000000E+00 -0.45593999997E+02  0.45594000000E+02  0.51100000000E-03 0. -1.
    9900012    2    1    2    0    0  0.40676612100E+01 -0.15874162736E+02 -0.90633185463E+01  0.72461584076E+02  0.70000017953E+02 0.  0.
         12    1    1    2    0    0 -0.40676612100E+01  0.15874162736E+02  0.90633185463E+01  0.18726415924E+02  0.00000000000E+00 0. -1.
         11    1    3    3    0    0 -0.11320138209E+02 -0.71723047557E+01  0.16526713983E+02  0.21277212221E+02  0.51100000000E-03 0. -1.
        -11    1    3    3    0    0 -0.99237628482E+01 -0.41372179921E+01  0.44516233739E+01  0.11636777591E+02  0.51100000000E-03 0.  1.
         12    1    3    3    0    0  0.25311562267E+02 -0.45646399883E+01 -0.30041655903E+02  0.39547594263E+02  0.00000000000E+00 0. -1.
</event>
<event>
 7    1  0.3196678E-013  0.7246157E+02  0.7816164E-02  0.1226708E+00
        -11   -1    0    0    0    0  0.00000000000E+00  0.00000000000E+00  0.45593999997E+02  0.45594000000E+02  0.51100000000E-03 0. -1.
         11   -1    0    0    0    0 -0.00000000000E+00 -0.00000000000E+00 -0.45593999997E+02  0.45594000000E+02  0.51100000000E-03 0.  1.
    9900012    2    1    2    0    0  0.14965666715E+02 -0.67534373494E+01 -0.90055038551E+01  0.72461569589E+02  0.69999999081E+02 0.  0.
         12    1    1    2    0    0 -0.14965666715E+02  0.67534373494E+01  0.90055038551E+01  0.18726430411E+02  0.00000000000E+00 0. -1.
         11    1    3    3    0    0  0.26390715016E+02  0.17075837803E+02  0.10609927037E+02  0.33175663185E+02  0.51100000000E-03 0. -1.
        -11    1    3    3    0    0  0.56546503595E+01 -0.32316219679E+01 -0.77112436616E+00  0.65584361155E+01  0.51100000000E-03 0.  1.
         12    1    3    3    0    0 -0.17079698661E+02 -0.20597653185E+02 -0.18844306526E+02  0.32727470289E+02  0.00000000000E+00 0. -1.
</event>
<event>
 7    1  0.3196678E-013  0.7246163E+02  0.7816164E-02  0.1226708E+00
        -11   -1    0    0    0    0  0.00000000000E+00  0.00000000000E+00  0.45593999997E+02  0.45594000000E+02  0.51100000000E-03 0.  1.
         11   -1    0    0    0    0 -0.00000000000E+00 -0.00000000000E+00 -0.45593999997E+02  0.45594000000E+02  0.51100000000E-03 0. -1.
    9900012    2    1    2    0    0 -0.14385878518E+02 -0.97946767452E+01  0.69128548889E+01  0.72461634736E+02  0.70000083947E+02 0.  0.
         12    1    1    2    0    0  0.14385878518E+02  0.97946767452E+01 -0.69128548889E+01  0.18726365264E+02  0.00000000000E+00 0. -1.
         11    1    3    3    0    0  0.19269981362E+01  0.14587535285E+02  0.43028532443E+01  0.15330494245E+02  0.51100000000E-03 0. -1.
        -11    1    3    3    0    0  0.68849715218E+01 -0.18533819774E+02 -0.17095049375E+02  0.26137062223E+02  0.51100000000E-03 0.  1.
         12    1    3    3    0    0 -0.23197848176E+02 -0.58483922559E+01  0.19705051019E+02  0.30994078268E+02  0.00000000000E+00 0. -1.
</event>
<event>
 7    1  0.3196678E-013  0.7246152E+02  0.7816164E-02  0.1226708E+00
        -11   -1    0    0    0    0  0.00000000000E+00  0.00000000000E+00  0.45593999997E+02  0.45594000000E+02  0.51100000000E-03 0.  1.
         11   -1    0    0    0    0 -0.00000000000E+00 -0.00000000000E+00 -0.45593999997E+02  0.45594000000E+02  0.51100000000E-03 0. -1.
    9900012    2    1    2    0    0  0.58321127201E+00 -0.12935328763E+02  0.13528418875E+02  0.72461521878E+02  0.69999936929E+02 0.  0.
         12    1    1    2    0    0 -0.58321127201E+00  0.12935328763E+02 -0.13528418875E+02  0.18726478122E+02  0.00000000000E+00 0. -1.
         11    1    3    3    0    0  0.38416049945E+01  0.14138050269E+01  0.28208331431E+01  0.49713050068E+01  0.51100000000E-03 0. -1.
        -11    1    3    3    0    0  0.21494254722E+02 -0.24805287894E+02 -0.91552811035E+01  0.34075276462E+02  0.51100000000E-03 0.  1.
         12    1    3    3    0    0 -0.24752648445E+02  0.10456154104E+02  0.19862866835E+02  0.33414940410E+02  0.00000000000E+00 0. -1.
</event>
<event>
 7    1  0.3196678E-013  0.7246155E+02  0.7816164E-02  0.1226708E+00
        -11   -1    0    0    0    0  0.00000000000E+00  0.00000000000E+00  0.45593999997E+02  0.45594000000E+02  0.51100000000E-03 0. -1.
         11   -1    0    0    0    0 -0.00000000000E+00 -0.00000000000E+00 -0.45593999997E+02  0.45594000000E+02  0.51100000000E-03 0.  1.
    9900012    2    1    2    0    0  0.14099946054E+02  0.65521007993E+01 -0.10437493772E+02  0.72461553999E+02  0.69999978772E+02 0.  0.
         12    1    1    2    0    0 -0.14099946054E+02 -0.65521007993E+01  0.10437493772E+02  0.18726446001E+02  0.00000000000E+00 0. -1.
         11    1    3    3    0    0  0.99112891764E+01 -0.18540994958E+02 -0.16885566669E+02  0.26965246321E+02  0.51100000000E-03 0. -1.
        -11    1    3    3    0    0  0.41128213968E+01 -0.42891432822E+01 -0.10141409476E+02  0.11754158258E+02  0.51100000000E-03 0.  1.
         12    1    3    3    0    0  0.75835480869E-01  0.29382239040E+02  0.16589482373E+02  0.33742149419E+02  0.00000000000E+00 0. -1.
</event>
<event>
 7    1  0.3196678E-013  0.7246198E+02  0.7816164E-02  0.1226707E+00
        -11   -1    0    0    0    0  0.00000000000E+00  0.00000000000E+00  0.45593999997E+02  0.45594000000E+02  0.51100000000E-03 0. -1.
         11   -1    0    0    0    0 -0.00000000000E+00 -0.00000000000E+00 -0.45593999997E+02  0.45594000000E+02  0.51100000000E-03 0.  1.
    9900012    2    1    2    0    0  0.20303118714E+00  0.45596596040E+01 -0.18161281491E+02  0.72461978993E+02  0.70000532403E+02 0.  0.
         12    1    1    2    0    0 -0.20303118714E+00 -0.45596596040E+01  0.18161281491E+02  0.18726021007E+02  0.00000000000E+00 0. -1.
         11    1    3    3    0    0  0.94937565608E+01  0.15591398017E+02  0.19107115878E+02  0.26425460889E+02  0.51100000000E-03 0. -1.
        -11    1    3    3    0    0 -0.78617074898E+01 -0.14834402261E+02 -0.12484663462E+02  0.20922063883E+02  0.51100000000E-03 0.  1.
        -12    1    3    3    0    0 -0.14290178839E+01  0.38026638478E+01 -0.24783733907E+02  0.25114454221E+02  0.00000000000E+00 0.  1.
</event>
<event>
 7    1  0.3196678E-013  0.7246158E+02  0.7816164E-02  0.1226708E+00
        -11   -1    0    0    0    0  0.00000000000E+00  0.00000000000E+00  0.45593999997E+02  0.45594000000E+02  0.51100000000E-03 0.  1.
         11   -1    0    0    0    0 -0.00000000000E+00 -0.00000000000E+00 -0.45593999997E+02  0.45594000000E+02  0.51100000000E-03 0. -1.
    9900012    2    1    2    0    0  0.15225538423E+02 -0.91022384935E+01 -0.60009236166E+01  0.72461578822E+02  0.70000011109E+02 0.  0.
         12    1    1    2    0    0 -0.15225538423E+02  0.91022384935E+01  0.60009236166E+01  0.18726421178E+02  0.00000000000E+00 0. -1.
         11    1    3    3    0    0  0.46283156709E+01  0.70801514083E+01 -0.32129546564E+02  0.33224352703E+02  0.51100000000E-03 0. -1.
        -11    1    3    3    0    0  0.36006090398E+01  0.54402194437E+01  0.52073285790E+01  0.83472536947E+01  0.51100000000E-03 0.  1.
        -12    1    3    3    0    0  0.69966137125E+01 -0.21622609345E+02  0.20921294368E+02  0.30889972424E+02  0.00000000000E+00 0.  1.
</event>
<event>
 7    1  0.3196678E-013  0.7246149E+02  0.7816164E-02  0.1226708E+00
        -11   -1    0    0    0    0  0.00000000000E+00  0.00000000000E+00  0.45593999997E+02  0.45594000000E+02  0.51100000000E-03 0. -1.
         11   -1    0    0    0    0 -0.00000000000E+00 -0.00000000000E+00 -0.45593999997E+02  0.45594000000E+02  0.51100000000E-03 0.  1.
    9900012    2    1    2    0    0 -0.91305710893E+01  0.61593508332E+01 -0.15145201081E+02  0.72461493468E+02  0.69999899920E+02 0.  0.
         12    1    1    2    0    0  0.91305710893E+01 -0.61593508332E+01  0.15145201081E+02  0.18726506532E+02  0.00000000000E+00 0. -1.
         11    1    3    3    0    0 -0.32210757722E+02  0.14377299694E+02 -0.23729287705E+01  0.35353506908E+02  0.51100000000E-03 0. -1.
        -11    1    3    3    0    0 -0.20120295704E+00  0.14314864570E+01  0.56876874183E+01  0.58685112708E+01  0.51100000000E-03 0.  1.
        -12    1    3    3    0    0  0.23281389590E+02 -0.96494353180E+01 -0.18459959728E+02  0.31239475289E+02  0.00000000000E+00 0.  1.
</event>
<event>
 7    1  0.3196678E-013  0.7246161E+02  0.7816164E-02  0.1226708E+00
        -11   -1    0    0    0    0  0.00000000000E+00  0.00000000000E+00  0.45593999997E+02  0.45594000000E+02  0.51100000000E-03 0.  1.
         11   -1    0    0    0    0 -0.00000000000E+00 -0.00000000000E+00 -0.45593999997E+02  0.45594000000E+02  0.51100000000E-03 0. -1.
    9900012    2    1    2    0    0  0.12687925871E+02 -0.10201997708E+02  0.92527510423E+01  0.72461611614E+02  0.70000053826E+02 0.  0.
         12    1    1    2    0    0 -0.12687925871E+02  0.10201997708E+02 -0.92527510423E+01  0.18726388386E+02  0.00000000000E+00 0. -1.
         11    1    3    3    0    0  0.10801775320E+02  0.13478747291E+02 -0.52712499162E+01  0.18059375807E+02  0.51100000000E-03 0. -1.
        -11    1    3    3    0    0 -0.21136693414E+02 -0.69705437997E+01  0.13301005022E+02  0.25928074055E+02  0.51100000000E-03 0.  1.
         12    1    3    3    0    0  0.23022843965E+02 -0.16710201200E+02  0.12229959365E+01  0.28474161751E+02  0.00000000000E+00 0. -1.
</event>
<event>
 7    1  0.3196678E-013  0.7246157E+02  0.7816164E-02  0.1226708E+00
        -11   -1    0    0    0    0  0.00000000000E+00  0.00000000000E+00  0.45593999997E+02  0.45594000000E+02  0.51100000000E-03 0. -1.
         11   -1    0    0    0    0 -0.00000000000E+00 -0.00000000000E+00 -0.45593999997E+02  0.45594000000E+02  0.51100000000E-03 0.  1.
    9900012    2    1    2    0    0 -0.83270154004E+01  0.15469691091E+02 -0.64829395951E+01  0.72461573920E+02  0.70000004723E+02 0.  0.
         12    1    1    2    0    0  0.83270154004E+01 -0.15469691091E+02  0.64829395951E+01  0.18726426080E+02  0.00000000000E+00 0. -1.
         11    1    3    3    0    0 -0.23266642483E+01  0.25743534899E+01 -0.24647625146E+02  0.24890682755E+02  0.51100000000E-03 0. -1.
        -11    1    3    3    0    0 -0.25456701448E+01 -0.83030114759E+01 -0.92873772188E+01  0.12715180373E+02  0.51100000000E-03 0.  1.
         12    1    3    3    0    0 -0.34546810074E+01  0.21198349077E+02  0.27452062770E+02  0.34855710792E+02  0.00000000000E+00 0. -1.
</event>
<event>
 7    1  0.3196678E-013  0.7246158E+02  0.7816164E-02  0.1226708E+00
        -11   -1    0    0    0    0  0.00000000000E+00  0.00000000000E+00  0.45593999997E+02  0.45594000000E+02  0.51100000000E-03 0.  1.
         11   -1    0    0    0    0 -0.00000000000E+00 -0.00000000000E+00 -0.45593999997E+02  0.45594000000E+02  0.51100000000E-03 0. -1.
    9900012    2    1    2    0    0  0.18184465787E+02 -0.11971531482E+01 -0.43094083606E+01  0.72461575567E+02  0.70000006869E+02 0.  0.
         12    1    1    2    0    0 -0.18184465787E+02  0.11971531482E+01  0.43094083606E+01  0.18726424433E+02  0.00000000000E+00 0. -1.
         11    1    3    3    0    0 -0.83078416308E+01  0.87929249782E+01 -0.16723437973E+02  0.20639988860E+02  0.51100000000E-03 0. -1.
        -11    1    3    3    0    0 -0.59082300331E+01  0.90870096136E+01  0.89615787113E+01  0.14063812396E+02  0.51100000000E-03 0.  1.
        -12    1    3    3    0    0  0.32400537451E+02 -0.19077087740E+02  0.34524509012E+01  0.37757774312E+02  0.00000000000E+00 0.  1.
</event>
<event>
 7    1  0.4416252E-013  0.7246156E+02  0.7816164E-02  0.1226708E+00
        -11   -1    0    0    0    0  0.00000000000E+00  0.00000000000E+00  0.45593999997E+02  0.45594000000E+02  0.51100000000E-03 0. -1.
         11   -1    0    0    0    0 -0.00000000000E+00 -0.00000000000E+00 -0.45593999997E+02  0.45594000000E+02  0.51100000000E-03 0.  1.
    9900012    2    1    2    0    0 -0.46957118171E+01 -0.75656286513E+01 -0.16473955314E+02  0.72461557464E+02  0.69999983286E+02 0.  0.
         12    1    1    2    0    0  0.46957118171E+01  0.75656286513E+01  0.16473955314E+02  0.18726442536E+02  0.00000000000E+00 0. -1.
         11    1    3    3    0    0  0.33432265741E+01 -0.14062433797E+02  0.37076243033E+01  0.14922321752E+02  0.51100000000E-03 0. -1.
        -11    1    3    3    0    0 -0.53968666569E+01 -0.93106823736E+01 -0.34443491626E+02  0.36085580106E+02  0.51100000000E-03 0.  1.
         12    1    3    3    0    0 -0.26420717344E+01  0.15807487519E+02  0.14261912008E+02  0.21453655606E+02  0.00000000000E+00 0. -1.
</event>
<event>
 7    1  0.3196678E-013  0.7246156E+02  0.7816164E-02  0.1226708E+00
        -11   -1    0    0    0    0  0.00000000000E+00  0.00000000000E+00  0.45593999997E+02  0.45594000000E+02  0.51100000000E-03 0.  1.
         11   -1    0    0    0    0 -0.00000000000E+00 -0.00000000000E+00 -0.45593999997E+02  0.45594000000E+02  0.51100000000E-03 0. -1.
    9900012    2    1    2    0    0 -0.18904618301E+01  0.77951382722E+01  0.16921628262E+02  0.72461560679E+02  0.69999987474E+02 0.  0.
         12    1    1    2    0    0  0.18904618301E+01 -0.77951382722E+01 -0.16921628262E+02  0.18726439321E+02  0.00000000000E+00 0. -1.
         11    1    3    3    0    0  0.53567027337E+01  0.24315458175E+02  0.47766660426E+01  0.25352560210E+02  0.51100000000E-03 0. -1.
        -11    1    3    3    0    0  0.68972287563E+01 -0.80361173756E+01 -0.13167021738E+02  0.16897378752E+02  0.51100000000E-03 0.  1.
        -12    1    3    3    0    0 -0.14144393320E+02 -0.84842025277E+01  0.25311983957E+02  0.30211621717E+02  0.00000000000E+00 0.  1.
</event>
<event>
 7    1  0.3196678E-013  0.7246160E+02  0.7816164E-02  0.1226708E+00
        -11   -1    0    0    0    0  0.00000000000E+00  0.00000000000E+00  0.45593999997E+02  0.45594000000E+02  0.51100000000E-03 0. -1.
         11   -1    0    0    0    0 -0.00000000000E+00 -0.00000000000E+00 -0.45593999997E+02  0.45594000000E+02  0.51100000000E-03 0.  1.
    9900012    2    1    2    0    0 -0.34567252307E+01  0.14198567605E+02 -0.11710247492E+02  0.72461597044E+02  0.70000034846E+02 0.  0.
         12    1    1    2    0    0  0.34567252307E+01 -0.14198567605E+02  0.11710247492E+02  0.18726402956E+02  0.00000000000E+00 0. -1.
         11    1    3    3    0    0 -0.17459131140E+02  0.38853650531E+01 -0.11776708883E+02  0.21415139368E+02  0.51100000000E-03 0. -1.
        -11    1    3    3    0    0 -0.14152110827E+02 -0.91177412556E+01 -0.22582578107E+00  0.16836461743E+02  0.51100000000E-03 0.  1.
         12    1    3    3    0    0  0.28154516737E+02  0.19430943808E+02  0.29228717248E+00  0.34209995933E+02  0.00000000000E+00 0. -1.
</event>
<event>
 7    1  0.3196678E-013  0.7246155E+02  0.7816164E-02  0.1226708E+00
        -11   -1    0    0    0    0  0.00000000000E+00  0.00000000000E+00  0.45593999997E+02  0.45594000000E+02  0.51100000000E-03 0. -1.
         11   -1    0    0    0    0 -0.00000000000E+00 -0.00000000000E+00 -0.45593999997E+02  0.45594000000E+02  0.51100000000E-03 0.  1.
    9900012    2    1    2    0    0 -0.18073669723E+02 -0.44405206709E+01 -0.20746177532E+01  0.72461553463E+02  0.69999978075E+02 0.  0.
         12    1    1    2    0    0  0.18073669723E+02  0.44405206709E+01  0.20746177532E+01  0.18726446537E+02  0.00000000000E+00 0. -1.
         11    1    3    3    0    0  0.71242962930E+01  0.10026342795E+02  0.43000054431E+01  0.13029704317E+02  0.51100000000E-03 0. -1.
        -11    1    3    3    0    0 -0.11166292266E+02  0.15530272300E+02  0.10967596024E+02  0.22049117975E+02  0.51100000000E-03 0.  1.
        -12    1    3    3    0    0 -0.14031673749E+02 -0.29997135766E+02 -0.17342219220E+02  0.37382731171E+02  0.00000000000E+00 0.  1.
</event>
<event>
 7    1  0.3196678E-013  0.7246152E+02  0.7816164E-02  0.1226708E+00
        -11   -1    0    0    0    0  0.00000000000E+00  0.00000000000E+00  0.45593999997E+02  0.45594000000E+02  0.51100000000E-03 0.  1.
         11   -1    0    0    0    0 -0.00000000000E+00 -0.00000000000E+00 -0.45593999997E+02  0.45594000000E+02  0.51100000000E-03 0. -1.
    9900012    2    1    2    0    0 -0.33078649743E+01  0.15914267021E+02  0.92992086020E+01  0.72461517519E+02  0.69999931250E+02 0.  0.
         12    1    1    2    0    0  0.33078649743E+01 -0.15914267021E+02 -0.92992086020E+01  0.18726482481E+02  0.00000000000E+00 0. -1.
         11    1    3    3    0    0  0.95519219546E+01  0.23619439250E+02 -0.14882378681E+02  0.29505970904E+02  0.51100000000E-03 0. -1.
        -11    1    3    3    0    0  0.80320432731E+00  0.10357705323E+02  0.15585972423E+02  0.18730983246E+02  0.51100000000E-03 0.  1.
         12    1    3    3    0    0 -0.13662991256E+02 -0.18062877553E+02  0.85956148600E+01  0.24224563368E+02  0.00000000000E+00 0. -1.
</event>
<event>
 7    1  0.3693854E-013  0.7246164E+02  0.7816164E-02  0.1226708E+00
        -11   -1    0    0    0    0  0.00000000000E+00  0.00000000000E+00  0.45593999997E+02  0.45594000000E+02  0.51100000000E-03 0. -1.
         11   -1    0    0    0    0 -0.00000000000E+00 -0.00000000000E+00 -0.45593999997E+02  0.45594000000E+02  0.51100000000E-03 0.  1.
    9900012    2    1    2    0    0  0.86576395838E+01 -0.68605230467E+01 -0.15121350151E+02  0.72461635430E+02  0.70000084851E+02 0.  0.
         12    1    1    2    0    0 -0.86576395838E+01  0.68605230467E+01  0.15121350151E+02  0.18726364570E+02  0.00000000000E+00 0. -1.
         11    1    3    3    0    0 -0.93511514324E+01  0.44427978675E+01 -0.43222357023E+01  0.11218921861E+02  0.51100000000E-03 0. -1.
        -11    1    3    3    0    0 -0.25240401052E+01 -0.18210132563E+02 -0.28058280667E+02  0.33544698846E+02  0.51100000000E-03 0.  1.
         12    1    3    3    0    0  0.20532831121E+02  0.69068116484E+01  0.17259166219E+02  0.27698014723E+02  0.00000000000E+00 0. -1.
</event>
<event>
 7    1  0.3196678E-013  0.7246153E+02  0.7816164E-02  0.1226708E+00
        -11   -1    0    0    0    0  0.00000000000E+00  0.00000000000E+00  0.45593999997E+02  0.45594000000E+02  0.51100000000E-03 0.  1.
         11   -1    0    0    0    0 -0.00000000000E+00 -0.00000000000E+00 -0.45593999997E+02  0.45594000000E+02  0.51100000000E-03 0. -1.
    9900012    2    1    2    0    0  0.17132450513E+02 -0.54042936903E+01  0.52871126299E+01  0.72461526471E+02  0.69999942912E+02 0.  0.
         12    1    1    2    0    0 -0.17132450513E+02  0.54042936903E+01 -0.52871126299E+01  0.18726473529E+02  0.00000000000E+00 0. -1.
         11    1    3    3    0    0  0.18129333583E+02  0.21238036293E+00  0.76173991130E+01  0.19665772578E+02  0.51100000000E-03 0. -1.
        -11    1    3    3    0    0  0.21863682095E+02 -0.48733541173E+01  0.12387252806E+02  0.25597152331E+02  0.51100000000E-03 0.  1.
         12    1    3    3    0    0 -0.22860565165E+02 -0.74331993597E+00 -0.14717539289E+02  0.27198601562E+02  0.00000000000E+00 0. -1.
</event>
<event>
 7    1  0.3196678E-013  0.7246156E+02  0.7816164E-02  0.1226708E+00
        -11   -1    0    0    0    0  0.00000000000E+00  0.00000000000E+00  0.45593999997E+02  0.45594000000E+02  0.51100000000E-03 0. -1.
         11   -1    0    0    0    0 -0.00000000000E+00 -0.00000000000E+00 -0.45593999997E+02  0.45594000000E+02  0.51100000000E-03 0.  1.
    9900012    2    1    2    0    0  0.11132965164E+02 -0.31293204462E+01 -0.14729015765E+02  0.72461562399E+02  0.69999989715E+02 0.  0.
         12    1    1    2    0    0 -0.11132965164E+02  0.31293204462E+01  0.14729015765E+02  0.18726437601E+02  0.00000000000E+00 0. -1.
         11    1    3    3    0    0 -0.95331386843E+01 -0.19787295937E+02 -0.17298250428E+02  0.27957955609E+02  0.51100000000E-03 0.  1.
        -11    1    3    3    0    0 -0.55383207524E+01 -0.42414130570E+01 -0.67574892030E+01  0.97121697918E+01  0.51100000000E-03 0. -1.
         12    1    3    3    0    0  0.26204424601E+02  0.20899388548E+02  0.93267238666E+01  0.34791436999E+02  0.00000000000E+00 0. -1.
</event>
<event>
 7    1  0.3196678E-013  0.7246146E+02  0.7816164E-02  0.1226708E+00
        -11   -1    0    0    0    0  0.00000000000E+00  0.00000000000E+00  0.45593999997E+02  0.45594000000E+02  0.51100000000E-03 0.  1.
         11   -1    0    0    0    0 -0.00000000000E+00 -0.00000000000E+00 -0.45593999997E+02  0.45594000000E+02  0.51100000000E-03 0. -1.
    9900012    2    1    2    0    0 -0.74889875773E+01 -0.27664688740E+01  0.16939447603E+02  0.72461463479E+02  0.69999860853E+02 0.  0.
         12    1    1    2    0    0  0.74889875773E+01  0.27664688740E+01 -0.16939447603E+02  0.18726536521E+02  0.00000000000E+00 0. -1.
         11    1    3    3    0    0  0.14024790182E+02  0.12012519698E+01 -0.83946021360E+01  0.16389237055E+02  0.51100000000E-03 0. -1.
        -11    1    3    3    0    0  0.77698593804E+01 -0.16409494180E+02  0.10412217040E+02  0.20929798805E+02  0.51100000000E-03 0.  1.
        -12    1    3    3    0    0 -0.29283637140E+02  0.12441773337E+02  0.14921832699E+02  0.35142427620E+02  0.00000000000E+00 0.  1.
</event>
<event>
 7    1  0.3196678E-013  0.7246157E+02  0.7816164E-02  0.1226708E+00
        -11   -1    0    0    0    0  0.00000000000E+00  0.00000000000E+00  0.45593999997E+02  0.45594000000E+02  0.51100000000E-03 0. -1.
         11   -1    0    0    0    0 -0.00000000000E+00 -0.00000000000E+00 -0.45593999997E+02  0.45594000000E+02  0.51100000000E-03 0.  1.
    9900012    2    1    2    0    0 -0.61167467950E+00 -0.10214423448E+01 -0.18688545914E+02  0.72461568446E+02  0.69999997592E+02 0.  0.
         12    1    1    2    0    0  0.61167467950E+00  0.10214423448E+01  0.18688545914E+02  0.18726431554E+02  0.00000000000E+00 0. -1.
         11    1    3    3    0    0  0.15082466821E+02  0.17953756239E+02 -0.44605101996E+01  0.23868689114E+02  0.51100000000E-03 0. -1.
        -11    1    3    3    0    0 -0.15704101250E+02  0.81214729190E+01  0.62783092057E+00  0.17690994612E+02  0.51100000000E-03 0.  1.
        -12    1    3    3    0    0  0.99597494473E-02 -0.27096671503E+02 -0.14855866635E+02  0.30901884720E+02  0.00000000000E+00 0.  1.
</event>
<event>
 7    1  0.3196678E-013  0.7246150E+02  0.7816164E-02  0.1226708E+00
        -11   -1    0    0    0    0  0.00000000000E+00  0.00000000000E+00  0.45593999997E+02  0.45594000000E+02  0.51100000000E-03 0. -1.
         11   -1    0    0    0    0 -0.00000000000E+00 -0.00000000000E+00 -0.45593999997E+02  0.45594000000E+02  0.51100000000E-03 0.  1.
    9900012    2    1    2    0    0 -0.17444214956E+02 -0.53538656488E+01  0.42091776592E+01  0.72461503014E+02  0.69999912354E+02 0.  0.
         12    1    1    2    0    0  0.17444214956E+02  0.53538656488E+01 -0.42091776592E+01  0.18726496986E+02  0.00000000000E+00 0. -1.
         11    1    3    3    0    0  0.57782451258E+01 -0.18301635040E+02 -0.75953027313E+01  0.20640411471E+02  0.51100000000E-03 0. -1.
        -11    1    3    3    0    0  0.42412861093E+00  0.23131810606E+02  0.12024199684E+02  0.26073778501E+02  0.51100000000E-03 0.  1.
         12    1    3    3    0    0 -0.23646588693E+02 -0.10184041216E+02 -0.21971929358E+00  0.25747313041E+02  0.00000000000E+00 0. -1.
</event>
<event>
 7    1  0.3196678E-013  0.7246159E+02  0.7816164E-02  0.1226708E+00
        -11   -1    0    0    0    0  0.00000000000E+00  0.00000000000E+00  0.45593999997E+02  0.45594000000E+02  0.51100000000E-03 0. -1.
         11   -1    0    0    0    0 -0.00000000000E+00 -0.00000000000E+00 -0.45593999997E+02  0.45594000000E+02  0.51100000000E-03 0.  1.
    9900012    2    1    2    0    0 -0.38040136605E+00 -0.18364039301E+02 -0.36463636785E+01  0.72461585161E+02  0.70000019367E+02 0.  0.
         12    1    1    2    0    0  0.38040136605E+00  0.18364039301E+02  0.36463636785E+01  0.18726414839E+02  0.00000000000E+00 0. -1.
         11    1    3    3    0    0 -0.44868613280E+01  0.10562227242E+02  0.10492705842E+02  0.15549580220E+02  0.51100000000E-03 0. -1.
        -11    1    3    3    0    0  0.17471677737E+02  0.39941333772E+01 -0.11477334241E+02  0.21282429982E+02  0.51100000000E-03 0.  1.
        -12    1    3    3    0    0 -0.13365217775E+02 -0.32920399920E+02 -0.26617352797E+01  0.35629574959E+02  0.00000000000E+00 0.  1.
</event>
<event>
 7    1  0.3196678E-013  0.7246156E+02  0.7816164E-02  0.1226708E+00
        -11   -1    0    0    0    0  0.00000000000E+00  0.00000000000E+00  0.45593999997E+02  0.45594000000E+02  0.51100000000E-03 0.  1.
         11   -1    0    0    0    0 -0.00000000000E+00 -0.00000000000E+00 -0.45593999997E+02  0.45594000000E+02  0.51100000000E-03 0. -1.
    9900012    2    1    2    0    0  0.76859450513E+01 -0.10434528953E+02  0.13517632918E+02  0.72461560255E+02  0.69999986922E+02 0.  0.
         12    1    1    2    0    0 -0.76859450513E+01  0.10434528953E+02 -0.13517632918E+02  0.18726439745E+02  0.00000000000E+00 0. -1.
         11    1    3    3    0    0 -0.13469615563E+01 -0.73244901646E+00  0.15303204179E+01  0.21662566418E+01  0.51100000000E-03 0. -1.
        -11    1    3    3    0    0 -0.22132750697E+02  0.16138669990E+02  0.11759906739E+02  0.29809574456E+02  0.51100000000E-03 0.  1.
         12    1    3    3    0    0  0.31165657305E+02 -0.25840749926E+02  0.22740576176E+00  0.40485729157E+02  0.00000000000E+00 0. -1.
</event>
<event>
 7    1  0.3196678E-013  0.7246136E+02  0.7816164E-02  0.1226709E+00
        -11   -1    0    0    0    0  0.00000000000E+00  0.00000000000E+00  0.45593999997E+02  0.45594000000E+02  0.51100000000E-03 0.  1.
         11   -1    0    0    0    0 -0.00000000000E+00 -0.00000000000E+00 -0.45593999997E+02  0.45594000000E+02  0.51100000000E-03 0. -1.
    9900012    2    1    2    0    0 -0.15399325092E+02 -0.62556658324E+01  0.86263849167E+01  0.72461358950E+02  0.69999724684E+02 0.  0.
         12    1    1    2    0    0  0.15399325092E+02  0.62556658324E+01 -0.86263849167E+01  0.18726641050E+02  0.00000000000E+00 0. -1.
         11    1    3    3    0    0 -0.28879256393E+00 -0.43060378347E+01 -0.75809598569E+01  0.87233202160E+01  0.51100000000E-03 0. -1.
        -11    1    3    3    0    0 -0.21860749871E+02 -0.23982148432E+02  0.22929618086E+02  0.39734156769E+02  0.51100000000E-03 0.  1.
         12    1    3    3    0    0  0.67502173431E+01  0.22032520435E+02 -0.67222733119E+01  0.24003881964E+02  0.00000000000E+00 0. -1.
</event>
<event>
 7    1  0.3291101E-013  0.7246157E+02  0.7816164E-02  0.1226708E+00
        -11   -1    0    0    0    0  0.00000000000E+00  0.00000000000E+00  0.45593999997E+02  0.45594000000E+02  0.51100000000E-03 0. -1.
         11   -1    0    0    0    0 -0.00000000000E+00 -0.00000000000E+00 -0.45593999997E+02  0.45594000000E+02  0.51100000000E-03 0.  1.
    9900012    2    1    2    0    0  0.84639891544E+01  0.14017019059E+02 -0.90864373289E+01  0.72461567370E+02  0.69999996190E+02 0.  0.
         12    1    1    2    0    0 -0.84639891544E+01 -0.14017019059E+02  0.90864373289E+01  0.18726432630E+02  0.00000000000E+00 0. -1.
         11    1    3    3    0    0  0.19012826543E+02 -0.27346899232E-01  0.29941361619E+01  0.19247160119E+02  0.51100000000E-03 0. -1.
        -11    1    3    3    0    0 -0.20169061144E+02  0.28151339418E+02 -0.97792098566E+01  0.35985023053E+02  0.51100000000E-03 0.  1.
         12    1    3    3    0    0  0.96202237548E+01 -0.14106973459E+02 -0.23013636342E+01  0.17229384198E+02  0.00000000000E+00 0. -1.
</event>
<event>
 7    1  0.3196678E-013  0.7246153E+02  0.7816164E-02  0.1226708E+00
        -11   -1    0    0    0    0  0.00000000000E+00  0.00000000000E+00  0.45593999997E+02  0.45594000000E+02  0.51100000000E-03 0. -1.
         11   -1    0    0    0    0 -0.00000000000E+00 -0.00000000000E+00 -0.45593999997E+02  0.45594000000E+02  0.51100000000E-03 0.  1.
    9900012    2    1    2    0    0  0.13163386941E+02  0.13643752859E+01 -0.13249317416E+02  0.72461529759E+02  0.69999947196E+02 0.  0.
         12    1    1    2    0    0 -0.13163386941E+02 -0.13643752859E+01  0.13249317416E+02  0.18726470241E+02  0.00000000000E+00 0. -1.
         11    1    3    3    0    0 -0.38774186745E+01  0.54457674821E+01  0.23296498882E+02  0.24236699847E+02  0.51100000000E-03 0. -1.
        -11    1    3    3    0    0  0.13405021416E+02  0.10040849797E+02 -0.21739543367E+02  0.27443050302E+02  0.51100000000E-03 0.  1.
        -12    1    3    3    0    0  0.36357841998E+01 -0.14122241993E+02 -0.14806272932E+02  0.20781779610E+02  0.00000000000E+00 0.  1.
</event>
<event>
 7    1  0.3196678E-013  0.7246180E+02  0.7816164E-02  0.1226707E+00
        -11   -1    0    0    0    0  0.00000000000E+00  0.00000000000E+00  0.45593999997E+02  0.45594000000E+02  0.51100000000E-03 0. -1.
         11   -1    0    0    0    0 -0.00000000000E+00 -0.00000000000E+00 -0.45593999997E+02  0.45594000000E+02  0.51100000000E-03 0.  1.
    9900012    2    1    2    0    0 -0.45218519408E+01  0.17568650649E+02  0.46439173781E+01  0.72461799125E+02  0.70000298094E+02 0.  0.
         12    1    1    2    0    0  0.45218519408E+01 -0.17568650649E+02 -0.46439173781E+01  0.18726200875E+02  0.00000000000E+00 0. -1.
         11    1    3    3    0    0  0.99764136115E+01  0.14547567952E+02  0.75239948645E+01  0.19177358026E+02  0.51100000000E-03 0. -1.
        -11    1    3    3    0    0 -0.65379676068E+01  0.26114766238E+02  0.54675441466E+01  0.27470349022E+02  0.51100000000E-03 0.  1.
         12    1    3    3    0    0 -0.79602979455E+01 -0.23093683541E+02 -0.83476216330E+01  0.25814092078E+02  0.00000000000E+00 0. -1.
</event>
<event>
 7    1  0.3196678E-013  0.7246160E+02  0.7816164E-02  0.1226708E+00
        -11   -1    0    0    0    0  0.00000000000E+00  0.00000000000E+00  0.45593999997E+02  0.45594000000E+02  0.51100000000E-03 0.  1.
         11   -1    0    0    0    0 -0.00000000000E+00 -0.00000000000E+00 -0.45593999997E+02  0.45594000000E+02  0.51100000000E-03 0. -1.
    9900012    2    1    2    0    0  0.11500649511E+02  0.14488119070E+02  0.29167834454E+01  0.72461597275E+02  0.70000035147E+02 0.  0.
         12    1    1    2    0    0 -0.11500649511E+02 -0.14488119070E+02 -0.29167834454E+01  0.18726402725E+02  0.00000000000E+00 0. -1.
         11    1    3    3    0    0  0.20761861064E+02  0.28428815058E+02  0.23233623045E+01  0.35279603358E+02  0.51100000000E-03 0. -1.
        -11    1    3    3    0    0 -0.68213196034E+01  0.92154143915E+01  0.64735924789E+01  0.13166687639E+02  0.51100000000E-03 0.  1.
         12    1    3    3    0    0 -0.24398919500E+01 -0.23156110379E+02 -0.58801713380E+01  0.24015306277E+02  0.00000000000E+00 0. -1.
</event>
<event>
 7    1  0.3196678E-013  0.7246159E+02  0.7816164E-02  0.1226708E+00
        -11   -1    0    0    0    0  0.00000000000E+00  0.00000000000E+00  0.45593999997E+02  0.45594000000E+02  0.51100000000E-03 0.  1.
         11   -1    0    0    0    0 -0.00000000000E+00 -0.00000000000E+00 -0.45593999997E+02  0.45594000000E+02  0.51100000000E-03 0. -1.
    9900012    2    1    2    0    0  0.10899755028E+02 -0.13662578122E+02  0.67236562482E+01  0.72461594740E+02  0.70000031845E+02 0.  0.
         12    1    1    2    0    0 -0.10899755028E+02  0.13662578122E+02 -0.67236562482E+01  0.18726405260E+02  0.00000000000E+00 0. -1.
         11    1    3    3    0    0 -0.91621921697E+01  0.86925776213E+01 -0.41610581197E+01  0.13297408619E+02  0.51100000000E-03 0. -1.
        -11    1    3    3    0    0 -0.98072956324E+01 -0.14142549093E+02  0.20464237778E+02  0.26739105643E+02  0.51100000000E-03 0.  1.
         12    1    3    3    0    0  0.29869242830E+02 -0.82126066503E+01 -0.95795234103E+01  0.32425080478E+02  0.00000000000E+00 0. -1.
</event>
<event>
 7    1  0.3196678E-013  0.7246164E+02  0.7816164E-02  0.1226708E+00
        -11   -1    0    0    0    0  0.00000000000E+00  0.00000000000E+00  0.45593999997E+02  0.45594000000E+02  0.51100000000E-03 0.  1.
         11   -1    0    0    0    0 -0.00000000000E+00 -0.00000000000E+00 -0.45593999997E+02  0.45594000000E+02  0.51100000000E-03 0. -1.
    9900012    2    1    2    0    0  0.10933823619E+02  0.14581674739E+02 -0.43014767102E+01  0.72461643200E+02  0.70000094973E+02 0.  0.
         12    1    1    2    0    0 -0.10933823619E+02 -0.14581674739E+02  0.43014767102E+01  0.18726356800E+02  0.00000000000E+00 0. -1.
         11    1    3    3    0    0  0.10736886969E+02  0.14859549809E+02 -0.12852064849E+02  0.22388893083E+02  0.51100000000E-03 0. -1.
        -11    1    3    3    0    0  0.12094478094E+02  0.82079298796E+01  0.24444749933E+02  0.28481438040E+02  0.51100000000E-03 0.  1.
         12    1    3    3    0    0 -0.11897541444E+02 -0.84858049494E+01 -0.15894161794E+02  0.21591312077E+02  0.00000000000E+00 0. -1.
</event>
<event>
 7    1  0.3196678E-013  0.7246158E+02  0.7816164E-02  0.1226708E+00
        -11   -1    0    0    0    0  0.00000000000E+00  0.00000000000E+00  0.45593999997E+02  0.45594000000E+02  0.51100000000E-03 0.  1.
         11   -1    0    0    0    0 -0.00000000000E+00 -0.00000000000E+00 -0.45593999997E+02  0.45594000000E+02  0.51100000000E-03 0. -1.
    9900012    2    1    2    0    0 -0.13678981258E+01 -0.12760318382E+02  0.13637524073E+02  0.72461576600E+02  0.70000008215E+02 0.  0.
         12    1    1    2    0    0  0.13678981258E+01  0.12760318382E+02 -0.13637524073E+02  0.18726423400E+02  0.00000000000E+00 0. -1.
         11    1    3    3    0    0  0.25902935274E+02  0.41590255754E+01 -0.91921688486E+01  0.27798480497E+02  0.51100000000E-03 0. -1.
        -11    1    3    3    0    0  0.18673164118E+01 -0.17016399780E-01 -0.20594716906E+01  0.27800331014E+01  0.51100000000E-03 0.  1.
        -12    1    3    3    0    0 -0.29138149811E+02 -0.16902327558E+02  0.24889164612E+02  0.41883063002E+02  0.00000000000E+00 0.  1.
</event>
<event>
 7    1  0.3196678E-013  0.7246154E+02  0.7816164E-02  0.1226708E+00
        -11   -1    0    0    0    0  0.00000000000E+00  0.00000000000E+00  0.45593999997E+02  0.45594000000E+02  0.51100000000E-03 0.  1.
         11   -1    0    0    0    0 -0.00000000000E+00 -0.00000000000E+00 -0.45593999997E+02  0.45594000000E+02  0.51100000000E-03 0. -1.
    9900012    2    1    2    0    0  0.34951414010E+01  0.81583812597E+01  0.16489547699E+02  0.72461537934E+02  0.69999957844E+02 0.  0.
         12    1    1    2    0    0 -0.34951414010E+01 -0.81583812597E+01 -0.16489547699E+02  0.18726462066E+02  0.00000000000E+00 0. -1.
         11    1    3    3    0    0 -0.32728843344E+01  0.33017545478E+01 -0.64148557130E+01  0.79223562808E+01  0.51100000000E-03 0. -1.
        -11    1    3    3    0    0 -0.22178875592E+02 -0.10831478733E+02  0.19467044841E+02  0.31435478192E+02  0.51100000000E-03 0.  1.
         12    1    3    3    0    0  0.28946901327E+02  0.15688105445E+02  0.34373585717E+01  0.33103703461E+02  0.00000000000E+00 0. -1.
</event>
<event>
 7    1  0.3196678E-013  0.7246153E+02  0.7816164E-02  0.1226708E+00
        -11   -1    0    0    0    0  0.00000000000E+00  0.00000000000E+00  0.45593999997E+02  0.45594000000E+02  0.51100000000E-03 0. -1.
         11   -1    0    0    0    0 -0.00000000000E+00 -0.00000000000E+00 -0.45593999997E+02  0.45594000000E+02  0.51100000000E-03 0.  1.
    9900012    2    1    2    0    0  0.12871446007E+02  0.36645845648E+01 -0.13098752977E+02  0.72461531249E+02  0.69999949136E+02 0.  0.
         12    1    1    2    0    0 -0.12871446007E+02 -0.36645845648E+01  0.13098752977E+02  0.18726468751E+02  0.00000000000E+00 0. -1.
         11    1    3    3    0    0  0.69675146690E+01 -0.13942863262E+02 -0.68014649508E+01  0.17006164246E+02  0.51100000000E-03 0. -1.
        -11    1    3    3    0    0  0.32791806253E+01 -0.84074694310E+01 -0.22810287987E+02  0.24530548427E+02  0.51100000000E-03 0.  1.
        -12    1    3    3    0    0  0.26247507129E+01  0.26014917258E+02  0.16512999962E+02  0.30924818576E+02  0.00000000000E+00 0.  1.
</event>
<event>
 7    1  0.3196678E-013  0.7246136E+02  0.7816164E-02  0.1226709E+00
        -11   -1    0    0    0    0  0.00000000000E+00  0.00000000000E+00  0.45593999997E+02  0.45594000000E+02  0.51100000000E-03 0. -1.
         11   -1    0    0    0    0 -0.00000000000E+00 -0.00000000000E+00 -0.45593999997E+02  0.45594000000E+02  0.51100000000E-03 0.  1.
    9900012    2    1    2    0    0 -0.75652977786E+01  0.12159706977E+02 -0.12066265123E+02  0.72461362334E+02  0.69999729093E+02 0.  0.
         12    1    1    2    0    0  0.75652977786E+01 -0.12159706977E+02  0.12066265123E+02  0.18726637666E+02  0.00000000000E+00 0. -1.
         11    1    3    3    0    0 -0.44529732399E+01 -0.15927105549E+02 -0.21328179328E+01  0.16674848558E+02  0.51100000000E-03 0. -1.
        -11    1    3    3    0    0 -0.17659504363E+02 -0.12094576013E+01  0.69020630624E+01  0.18998930413E+02  0.51100000000E-03 0.  1.
        -12    1    3    3    0    0  0.14547179825E+02  0.29296270128E+02 -0.16835510252E+02  0.36787583363E+02  0.00000000000E+00 0.  1.
</event>
<event>
 7    1  0.3196678E-013  0.7246153E+02  0.7816164E-02  0.1226708E+00
        -11   -1    0    0    0    0  0.00000000000E+00  0.00000000000E+00  0.45593999997E+02  0.45594000000E+02  0.51100000000E-03 0. -1.
         11   -1    0    0    0    0 -0.00000000000E+00 -0.00000000000E+00 -0.45593999997E+02  0.45594000000E+02  0.51100000000E-03 0.  1.
    9900012    2    1    2    0    0  0.11364663178E+02 -0.13911342508E+02 -0.52914535464E+01  0.72461534766E+02  0.69999953717E+02 0.  0.
         12    1    1    2    0    0 -0.11364663178E+02  0.13911342508E+02  0.52914535464E+01  0.18726465234E+02  0.00000000000E+00 0. -1.
         11    1    3    3    0    0  0.16638063756E+02  0.52680346878E+01  0.36038172338E+01  0.17820349434E+02  0.51100000000E-03 0. -1.
        -11    1    3    3    0    0  0.66103554983E+01 -0.17720281243E+02  0.17430782026E+02  0.25720367988E+02  0.51100000000E-03 0.  1.
        -12    1    3    3    0    0 -0.11883756076E+02 -0.14590959534E+01 -0.26326052806E+02  0.28920817344E+02  0.00000000000E+00 0.  1.
</event>
<event>
 7    1  0.3196678E-013  0.7246162E+02  0.7816164E-02  0.1226708E+00
        -11   -1    0    0    0    0  0.00000000000E+00  0.00000000000E+00  0.45593999997E+02  0.45594000000E+02  0.51100000000E-03 0.  1.
         11   -1    0    0    0    0 -0.00000000000E+00 -0.00000000000E+00 -0.45593999997E+02  0.45594000000E+02  0.51100000000E-03 0. -1.
    9900012    2    1    2    0    0 -0.99547108441E+01 -0.45604934385E+01  0.15191542614E+02  0.72461619266E+02  0.70000063794E+02 0.  0.
         12    1    1    2    0    0  0.99547108441E+01  0.45604934385E+01 -0.15191542614E+02  0.18726380734E+02  0.00000000000E+00 0. -1.
         11    1    3    3    0    0  0.12545915662E+02 -0.41475014398E+01 -0.19030742463E+01  0.13350035949E+02  0.51100000000E-03 0. -1.
        -11    1    3    3    0    0  0.98150075698E+00  0.22852484578E+02  0.11442408386E+02  0.25575928235E+02  0.51100000000E-03 0.  1.
        -12    1    3    3    0    0 -0.23482127263E+02 -0.23265476577E+02  0.56522084745E+01  0.33535655082E+02  0.00000000000E+00 0.  1.
</event>
<event>
 7    1  0.3401201E-013  0.7246156E+02  0.7816164E-02  0.1226708E+00
        -11   -1    0    0    0    0  0.00000000000E+00  0.00000000000E+00  0.45593999997E+02  0.45594000000E+02  0.51100000000E-03 0.  1.
         11   -1    0    0    0    0 -0.00000000000E+00 -0.00000000000E+00 -0.45593999997E+02  0.45594000000E+02  0.51100000000E-03 0. -1.
    9900012    2    1    2    0    0  0.11355993777E+02  0.92172501530E+01 -0.11694580090E+02  0.72461561510E+02  0.69999988556E+02 0.  0.
         12    1    1    2    0    0 -0.11355993777E+02 -0.92172501530E+01  0.11694580090E+02  0.18726438490E+02  0.00000000000E+00 0. -1.
         11    1    3    3    0    0  0.81382700188E+01 -0.64878878878E+00 -0.92851031747E+01  0.12363879125E+02  0.51100000000E-03 0. -1.
        -11    1    3    3    0    0  0.27464349130E+02  0.82041002197E+01 -0.15401743494E+02  0.32539382853E+02  0.51100000000E-03 0.  1.
         12    1    3    3    0    0 -0.24246625371E+02  0.16619387220E+01  0.12992266579E+02  0.27558299532E+02  0.00000000000E+00 0. -1.
</event>
<event>
 7    1  0.3196678E-013  0.7246154E+02  0.7816164E-02  0.1226708E+00
        -11   -1    0    0    0    0  0.00000000000E+00  0.00000000000E+00  0.45593999997E+02  0.45594000000E+02  0.51100000000E-03 0.  1.
         11   -1    0    0    0    0 -0.00000000000E+00 -0.00000000000E+00 -0.45593999997E+02  0.45594000000E+02  0.51100000000E-03 0. -1.
    9900012    2    1    2    0    0 -0.76500714063E+01  0.12722613220E+02  0.11414544678E+02  0.72461539847E+02  0.69999960337E+02 0.  0.
         12    1    1    2    0    0  0.76500714063E+01 -0.12722613220E+02 -0.11414544678E+02  0.18726460153E+02  0.00000000000E+00 0. -1.
         11    1    3    3    0    0  0.13024388091E+01  0.50326753744E+01  0.12042815734E+01  0.53361467975E+01  0.51100000000E-03 0. -1.
        -11    1    3    3    0    0  0.21073416176E+02  0.24120138907E+02  0.32108320001E+01  0.32189740797E+02  0.51100000000E-03 0.  1.
         12    1    3    3    0    0 -0.30025926391E+02 -0.16430201061E+02  0.69994311040E+01  0.34935652253E+02  0.00000000000E+00 0. -1.
</event>
<event>
 7    1  0.3196678E-013  0.7246158E+02  0.7816164E-02  0.1226708E+00
        -11   -1    0    0    0    0  0.00000000000E+00  0.00000000000E+00  0.45593999997E+02  0.45594000000E+02  0.51100000000E-03 0. -1.
         11   -1    0    0    0    0 -0.00000000000E+00 -0.00000000000E+00 -0.45593999997E+02  0.45594000000E+02  0.51100000000E-03 0.  1.
    9900012    2    1    2    0    0  0.11898521401E+02  0.72842827624E+01 -0.12491728528E+02  0.72461578331E+02  0.70000010469E+02 0.  0.
         12    1    1    2    0    0 -0.11898521401E+02 -0.72842827624E+01  0.12491728528E+02  0.18726421669E+02  0.00000000000E+00 0. -1.
         11    1    3    3    0    0  0.54655551081E+01  0.16115312897E+02 -0.13777444057E+01  0.17072603267E+02  0.51100000000E-03 0. -1.
        -11    1    3    3    0    0  0.15986186627E+02  0.18353745735E+02  0.44179818163E+00  0.24343650738E+02  0.51100000000E-03 0.  1.
         12    1    3    3    0    0 -0.95532203335E+01 -0.27184775870E+02 -0.11555782304E+02  0.31045324326E+02  0.00000000000E+00 0. -1.
</event>
<event>
 7    1  0.3196678E-013  0.7246161E+02  0.7816164E-02  0.1226708E+00
        -11   -1    0    0    0    0  0.00000000000E+00  0.00000000000E+00  0.45593999997E+02  0.45594000000E+02  0.51100000000E-03 0. -1.
         11   -1    0    0    0    0 -0.00000000000E+00 -0.00000000000E+00 -0.45593999997E+02  0.45594000000E+02  0.51100000000E-03 0.  1.
    9900012    2    1    2    0    0 -0.85022827582E+00 -0.98290309613E+01 -0.15916812934E+02  0.72461610286E+02  0.70000052096E+02 0.  0.
         12    1    1    2    0    0  0.85022827582E+00  0.98290309613E+01  0.15916812934E+02  0.18726389714E+02  0.00000000000E+00 0. -1.
         11    1    3    3    0    0  0.15137666239E+02 -0.22111039191E+02  0.60817865436E+01  0.27477902415E+02  0.51100000000E-03 0. -1.
        -11    1    3    3    0    0  0.61041714305E+01  0.15253267663E+02 -0.57782358865E+01  0.17415828819E+02  0.51100000000E-03 0.  1.
        -12    1    3    3    0    0 -0.22092065946E+02 -0.29712594324E+01 -0.16220363591E+02  0.27567879051E+02  0.00000000000E+00 0.  1.
</event>
<event>
 7    1  0.3196678E-013  0.7246144E+02  0.7816164E-02  0.1226708E+00
        -11   -1    0    0    0    0  0.00000000000E+00  0.00000000000E+00  0.45593999997E+02  0.45594000000E+02  0.51100000000E-03 0. -1.
         11   -1    0    0    0    0 -0.00000000000E+00 -0.00000000000E+00 -0.45593999997E+02  0.45594000000E+02  0.51100000000E-03 0.  1.
    9900012    2    1    2    0    0 -0.11859227135E+02 -0.14367425039E+02  0.19026252186E+01  0.72461437229E+02  0.69999826658E+02 0.  0.
         12    1    1    2    0    0  0.11859227135E+02  0.14367425039E+02 -0.19026252186E+01  0.18726562771E+02  0.00000000000E+00 0. -1.
         11    1    3    3    0    0 -0.15468281547E+02 -0.10053268077E+02 -0.89932922257E+00  0.18470103583E+02  0.51100000000E-03 0. -1.
        -11    1    3    3    0    0 -0.24800891762E+02 -0.51636910738E+01  0.34162187455E+01  0.25562051726E+02  0.51100000000E-03 0.  1.
         12    1    3    3    0    0  0.28409946174E+02  0.84953411244E+00 -0.61426430431E+00  0.28429281920E+02  0.00000000000E+00 0. -1.
</event>
<event>
 7    1  0.3196678E-013  0.7246162E+02  0.7816164E-02  0.1226708E+00
        -11   -1    0    0    0    0  0.00000000000E+00  0.00000000000E+00  0.45593999997E+02  0.45594000000E+02  0.51100000000E-03 0. -1.
         11   -1    0    0    0    0 -0.00000000000E+00 -0.00000000000E+00 -0.45593999997E+02  0.45594000000E+02  0.51100000000E-03 0.  1.
    9900012    2    1    2    0    0 -0.66796536992E+01  0.63220686371E+01 -0.16312291738E+02  0.72461623225E+02  0.70000068951E+02 0.  0.
         12    1    1    2    0    0  0.66796536992E+01 -0.63220686371E+01  0.16312291738E+02  0.18726376775E+02  0.00000000000E+00 0. -1.
         11    1    3    3    0    0  0.18371654767E+02  0.21247106112E+02 -0.37361706956E+01  0.28335775774E+02  0.51100000000E-03 0. -1.
        -11    1    3    3    0    0 -0.57209936166E+01 -0.11619573896E+02 -0.19430652420E+02  0.23351542117E+02  0.51100000000E-03 0.  1.
        -12    1    3    3    0    0 -0.19330314850E+02 -0.33054635782E+01  0.68545313780E+01  0.20774305333E+02  0.00000000000E+00 0.  1.
</event>
<event>
 7    1  0.3196678E-013  0.7246153E+02  0.7816164E-02  0.1226708E+00
        -11   -1    0    0    0    0  0.00000000000E+00  0.00000000000E+00  0.45593999997E+02  0.45594000000E+02  0.51100000000E-03 0.  1.
         11   -1    0    0    0    0 -0.00000000000E+00 -0.00000000000E+00 -0.45593999997E+02  0.45594000000E+02  0.51100000000E-03 0. -1.
    9900012    2    1    2    0    0 -0.15956891649E+02 -0.84989504209E+01 -0.48811884973E+01  0.72461533422E+02  0.69999951967E+02 0.  0.
         12    1    1    2    0    0  0.15956891649E+02  0.84989504209E+01  0.48811884973E+01  0.18726466578E+02  0.00000000000E+00 0. -1.
         11    1    3    3    0    0 -0.13433116670E+01  0.19015544889E+02 -0.54082977022E+01  0.19815274864E+02  0.51100000000E-03 0. -1.
        -11    1    3    3    0    0  0.46378153650E+01  0.96409252329E+01 -0.11898362013E+01  0.10764408073E+02  0.51100000000E-03 0.  1.
        -12    1    3    3    0    0 -0.19251395347E+02 -0.37155420543E+02  0.17169454063E+01  0.41881850485E+02  0.00000000000E+00 0.  1.
</event>
<event>
 7    1  0.3196678E-013  0.7246160E+02  0.7816164E-02  0.1226708E+00
        -11   -1    0    0    0    0  0.00000000000E+00  0.00000000000E+00  0.45593999997E+02  0.45594000000E+02  0.51100000000E-03 0. -1.
         11   -1    0    0    0    0 -0.00000000000E+00 -0.00000000000E+00 -0.45593999997E+02  0.45594000000E+02  0.51100000000E-03 0.  1.
    9900012    2    1    2    0    0 -0.33818539663E+01  0.78424626995E+01 -0.16665442951E+02  0.72461597618E+02  0.70000035594E+02 0.  0.
         12    1    1    2    0    0  0.33818539663E+01 -0.78424626995E+01  0.16665442951E+02  0.18726402382E+02  0.00000000000E+00 0. -1.
         11    1    3    3    0    0 -0.11973716182E+02 -0.65239757566E+00  0.13445683654E+02  0.18016156943E+02  0.51100000000E-03 0. -1.
        -11    1    3    3    0    0 -0.10219168112E+01 -0.17096896560E+02 -0.16978549205E+02  0.24116785012E+02  0.51100000000E-03 0.  1.
         12    1    3    3    0    0  0.96137790270E+01  0.25591756836E+02 -0.13132577400E+02  0.30328655662E+02  0.00000000000E+00 0. -1.
</event>
<event>
 7    1  0.3196678E-013  0.7246155E+02  0.7816164E-02  0.1226708E+00
        -11   -1    0    0    0    0  0.00000000000E+00  0.00000000000E+00  0.45593999997E+02  0.45594000000E+02  0.51100000000E-03 0. -1.
         11   -1    0    0    0    0 -0.00000000000E+00 -0.00000000000E+00 -0.45593999997E+02  0.45594000000E+02  0.51100000000E-03 0.  1.
    9900012    2    1    2    0    0  0.43826965165E+00 -0.18656024835E+02 -0.15622202272E+01  0.72461551459E+02  0.69999975463E+02 0.  0.
         12    1    1    2    0    0 -0.43826965165E+00  0.18656024835E+02  0.15622202272E+01  0.18726448541E+02  0.00000000000E+00 0. -1.
         11    1    3    3    0    0 -0.84494217270E+01  0.49765526673E+01 -0.29112206961E+01  0.10229076702E+02  0.51100000000E-03 0. -1.
        -11    1    3    3    0    0 -0.14292213561E+02 -0.31748731132E+02  0.99483820491E+01  0.36210766391E+02  0.51100000000E-03 0.  1.
         12    1    3    3    0    0  0.23179904940E+02  0.81161536294E+01 -0.85993815802E+01  0.26021708366E+02  0.00000000000E+00 0. -1.
</event>
<event>
 7    1  0.3196678E-013  0.7246176E+02  0.7816164E-02  0.1226708E+00
        -11   -1    0    0    0    0  0.00000000000E+00  0.00000000000E+00  0.45593999997E+02  0.45594000000E+02  0.51100000000E-03 0. -1.
         11   -1    0    0    0    0 -0.00000000000E+00 -0.00000000000E+00 -0.45593999997E+02  0.45594000000E+02  0.51100000000E-03 0.  1.
    9900012    2    1    2    0    0 -0.11667255262E+02 -0.85234542854E+01 -0.11912096882E+02  0.72461757173E+02  0.70000243444E+02 0.  0.
         12    1    1    2    0    0  0.11667255262E+02  0.85234542854E+01  0.11912096882E+02  0.18726242827E+02  0.00000000000E+00 0. -1.
         11    1    3    3    0    0 -0.60215524292E+01  0.34854941050E+01 -0.18355201328E+02  0.19629599560E+02  0.51100000000E-03 0. -1.
        -11    1    3    3    0    0  0.60889712934E+01 -0.14683164468E+02 -0.18948291833E+02  0.24732744568E+02  0.51100000000E-03 0.  1.
         12    1    3    3    0    0 -0.11734674126E+02  0.26742160778E+01  0.25391396280E+02  0.28099413045E+02  0.00000000000E+00 0. -1.
</event>
<event>
 7    1  0.3196678E-013  0.7246153E+02  0.7816164E-02  0.1226708E+00
        -11   -1    0    0    0    0  0.00000000000E+00  0.00000000000E+00  0.45593999997E+02  0.45594000000E+02  0.51100000000E-03 0.  1.
         11   -1    0    0    0    0 -0.00000000000E+00 -0.00000000000E+00 -0.45593999997E+02  0.45594000000E+02  0.51100000000E-03 0. -1.
    9900012    2    1    2    0    0 -0.18529739787E+02  0.11921292602E+01 -0.24306819261E+01  0.72461530942E+02  0.69999948737E+02 0.  0.
         12    1    1    2    0    0  0.18529739787E+02 -0.11921292602E+01  0.24306819261E+01  0.18726469058E+02  0.00000000000E+00 0. -1.
         11    1    3    3    0    0 -0.23211793620E+02  0.16090182115E+01 -0.81013476301E+01  0.24637535111E+02  0.51100000000E-03 0. -1.
        -11    1    3    3    0    0 -0.14135724846E+01 -0.22824019122E+02 -0.29432076281E+01  0.23056376720E+02  0.51100000000E-03 0.  1.
        -12    1    3    3    0    0  0.60956263178E+01  0.22407130171E+02  0.86138733320E+01  0.24767619112E+02  0.00000000000E+00 0.  1.
</event>
<event>
 7    1  0.3196678E-013  0.7246146E+02  0.7816164E-02  0.1226708E+00
        -11   -1    0    0    0    0  0.00000000000E+00  0.00000000000E+00  0.45593999997E+02  0.45594000000E+02  0.51100000000E-03 0. -1.
         11   -1    0    0    0    0 -0.00000000000E+00 -0.00000000000E+00 -0.45593999997E+02  0.45594000000E+02  0.51100000000E-03 0.  1.
    9900012    2    1    2    0    0  0.15117736258E+02  0.52608075383E+01 -0.97191195874E+01  0.72461459180E+02  0.69999855253E+02 0.  0.
         12    1    1    2    0    0 -0.15117736258E+02 -0.52608075383E+01  0.97191195874E+01  0.18726540820E+02  0.00000000000E+00 0. -1.
         11    1    3    3    0    0 -0.74582673207E+00 -0.16395313900E+02  0.11508232909E+02  0.20044999385E+02  0.51100000000E-03 0. -1.
        -11    1    3    3    0    0  0.18617614266E+02 -0.56183575080E+01 -0.34688523306E+01  0.19753846177E+02  0.51100000000E-03 0.  1.
        -12    1    3    3    0    0 -0.27540512758E+01  0.27274478946E+02 -0.17758500166E+02  0.32662613618E+02  0.00000000000E+00 0.  1.
</event>
<event>
 7    1  0.3196678E-013  0.7246167E+02  0.7816164E-02  0.1226708E+00
        -11   -1    0    0    0    0  0.00000000000E+00  0.00000000000E+00  0.45593999997E+02  0.45594000000E+02  0.51100000000E-03 0. -1.
         11   -1    0    0    0    0 -0.00000000000E+00 -0.00000000000E+00 -0.45593999997E+02  0.45594000000E+02  0.51100000000E-03 0.  1.
    9900012    2    1    2    0    0  0.35314081171E+01  0.15776119652E+02 -0.94508623422E+01  0.72461665773E+02  0.70000124379E+02 0.  0.
         12    1    1    2    0    0 -0.35314081171E+01 -0.15776119652E+02  0.94508623422E+01  0.18726334227E+02  0.00000000000E+00 0. -1.
         11    1    3    3    0    0 -0.63036631230E+01  0.14941458698E+02  0.20596014398E+02  0.26214102428E+02  0.51100000000E-03 0. -1.
        -11    1    3    3    0    0 -0.41071083340E+01  0.14178360222E+02 -0.74610934867E+01  0.16539714439E+02  0.51100000000E-03 0.  1.
         12    1    3    3    0    0  0.13942179574E+02 -0.13343699268E+02 -0.22585783253E+02  0.29707848905E+02  0.00000000000E+00 0. -1.
</event>
<event>
 7    1  0.3196678E-013  0.7246154E+02  0.7816164E-02  0.1226708E+00
        -11   -1    0    0    0    0  0.00000000000E+00  0.00000000000E+00  0.45593999997E+02  0.45594000000E+02  0.51100000000E-03 0.  1.
         11   -1    0    0    0    0 -0.00000000000E+00 -0.00000000000E+00 -0.45593999997E+02  0.45594000000E+02  0.51100000000E-03 0. -1.
    9900012    2    1    2    0    0 -0.36660095054E+01 -0.49052208703E+01  0.17696877427E+02  0.72461540427E+02  0.69999961092E+02 0.  0.
         12    1    1    2    0    0  0.36660095054E+01  0.49052208703E+01 -0.17696877427E+02  0.18726459573E+02  0.00000000000E+00 0. -1.
         11    1    3    3    0    0  0.70904937310E+01  0.66210722978E+01  0.30158266736E+01  0.10159178634E+02  0.51100000000E-03 0. -1.
        -11    1    3    3    0    0  0.16610227972E+02 -0.13109623899E+02  0.25231102880E+02  0.32929780819E+02  0.51100000000E-03 0.  1.
         12    1    3    3    0    0 -0.27366731208E+02  0.15833307305E+01 -0.10550052126E+02  0.29372580974E+02  0.00000000000E+00 0. -1.
</event>
<event>
 7    1  0.3196678E-013  0.7246158E+02  0.7816164E-02  0.1226708E+00
        -11   -1    0    0    0    0  0.00000000000E+00  0.00000000000E+00  0.45593999997E+02  0.45594000000E+02  0.51100000000E-03 0.  1.
         11   -1    0    0    0    0 -0.00000000000E+00 -0.00000000000E+00 -0.45593999997E+02  0.45594000000E+02  0.51100000000E-03 0. -1.
    9900012    2    1    2    0    0 -0.67135002952E+00  0.52731179359E+01  0.17956121213E+02  0.72461580891E+02  0.70000013804E+02 0.  0.
         12    1    1    2    0    0  0.67135002952E+00 -0.52731179359E+01 -0.17956121213E+02  0.18726419109E+02  0.00000000000E+00 0. -1.
         11    1    3    3    0    0 -0.12017617293E+02 -0.16371388291E+01 -0.51065206486E+01  0.13159783522E+02  0.51100000000E-03 0. -1.
        -11    1    3    3    0    0 -0.20601284059E+02  0.89640363529E+01  0.73388365166E+01  0.23635257018E+02  0.51100000000E-03 0.  1.
        -12    1    3    3    0    0  0.31947551323E+02 -0.20537795879E+01  0.15723805345E+02  0.35666540351E+02  0.00000000000E+00 0.  1.
</event>
<event>
 7    1  0.3196678E-013  0.7246155E+02  0.7816164E-02  0.1226708E+00
        -11   -1    0    0    0    0  0.00000000000E+00  0.00000000000E+00  0.45593999997E+02  0.45594000000E+02  0.51100000000E-03 0. -1.
         11   -1    0    0    0    0 -0.00000000000E+00 -0.00000000000E+00 -0.45593999997E+02  0.45594000000E+02  0.51100000000E-03 0.  1.
    9900012    2    1    2    0    0  0.25835085237E+01 -0.63437374694E+01 -0.17428780648E+02  0.72461550356E+02  0.69999974027E+02 0.  0.
         12    1    1    2    0    0 -0.25835085237E+01  0.63437374694E+01  0.17428780648E+02  0.18726449644E+02  0.00000000000E+00 0. -1.
         11    1    3    3    0    0 -0.13461646177E+02 -0.37557240852E+01 -0.79904812459E+00  0.13998566332E+02  0.51100000000E-03 0. -1.
        -11    1    3    3    0    0 -0.36629608365E+01 -0.22888843503E+02  0.38999167526E+01  0.23505867139E+02  0.51100000000E-03 0.  1.
        -12    1    3    3    0    0  0.19708115537E+02  0.20300830119E+02 -0.20529649276E+02  0.34957116885E+02  0.00000000000E+00 0.  1.
</event>
<event>
 7    1  0.3196678E-013  0.7246159E+02  0.7816164E-02  0.1226708E+00
        -11   -1    0    0    0    0  0.00000000000E+00  0.00000000000E+00  0.45593999997E+02  0.45594000000E+02  0.51100000000E-03 0.  1.
         11   -1    0    0    0    0 -0.00000000000E+00 -0.00000000000E+00 -0.45593999997E+02  0.45594000000E+02  0.51100000000E-03 0. -1.
    9900012    2    1    2    0    0 -0.13028478609E+02 -0.55595737300E+00  0.13439791492E+02  0.72461592474E+02  0.70000028893E+02 0.  0.
         12    1    1    2    0    0  0.13028478609E+02  0.55595737300E+00 -0.13439791492E+02  0.18726407526E+02  0.00000000000E+00 0. -1.
         11    1    3    3    0    0  0.16596439333E+02  0.15037782692E+02  0.13643723095E+02  0.26224566478E+02  0.51100000000E-03 0. -1.
        -11    1    3    3    0    0 -0.32206375712E+01  0.73032567108E+01  0.69259248152E+01  0.10567804869E+02  0.51100000000E-03 0.  1.
         12    1    3    3    0    0 -0.26404280371E+02 -0.22896996776E+02 -0.71298564174E+01  0.35669221127E+02  0.00000000000E+00 0. -1.
</event>
<event>
 7    1  0.3196678E-013  0.7246158E+02  0.7816164E-02  0.1226708E+00
        -11   -1    0    0    0    0  0.00000000000E+00  0.00000000000E+00  0.45593999997E+02  0.45594000000E+02  0.51100000000E-03 0.  1.
         11   -1    0    0    0    0 -0.00000000000E+00 -0.00000000000E+00 -0.45593999997E+02  0.45594000000E+02  0.51100000000E-03 0. -1.
    9900012    2    1    2    0    0  0.16166326718E+02 -0.16298402811E+01  0.93098031116E+01  0.72461576613E+02  0.70000008231E+02 0.  0.
         12    1    1    2    0    0 -0.16166326718E+02  0.16298402811E+01 -0.93098031116E+01  0.18726423387E+02  0.00000000000E+00 0. -1.
         11    1    3    3    0    0  0.67977991109E+01 -0.13156197348E+02  0.17149013624E+02  0.22657984684E+02  0.51100000000E-03 0. -1.
        -11    1    3    3    0    0  0.14174270351E+02 -0.93742829782E+01  0.11828119278E+02  0.20704867236E+02  0.51100000000E-03 0.  1.
         12    1    3    3    0    0 -0.48057427439E+01  0.20900640045E+02 -0.19667329791E+02  0.29098724692E+02  0.00000000000E+00 0. -1.
</event>
<event>
 7    1  0.3196678E-013  0.7246155E+02  0.7816164E-02  0.1226708E+00
        -11   -1    0    0    0    0  0.00000000000E+00  0.00000000000E+00  0.45593999997E+02  0.45594000000E+02  0.51100000000E-03 0.  1.
         11   -1    0    0    0    0 -0.00000000000E+00 -0.00000000000E+00 -0.45593999997E+02  0.45594000000E+02  0.51100000000E-03 0. -1.
    9900012    2    1    2    0    0 -0.14194571637E+01 -0.66619294368E+01  0.17443731525E+02  0.72461549936E+02  0.69999973480E+02 0.  0.
         12    1    1    2    0    0  0.14194571637E+01  0.66619294368E+01 -0.17443731525E+02  0.18726450064E+02  0.00000000000E+00 0. -1.
         11    1    3    3    0    0 -0.95799237803E+01 -0.48168805844E+01  0.22918120770E+01  0.10964929597E+02  0.51100000000E-03 0. -1.
        -11    1    3    3    0    0  0.14783838168E+02  0.17216595140E+02  0.29146678879E+02  0.36939164976E+02  0.51100000000E-03 0.  1.
         12    1    3    3    0    0 -0.66233715509E+01 -0.19061643993E+02 -0.13994759431E+02  0.24557455364E+02  0.00000000000E+00 0. -1.
</event>
<event>
 7    1  0.3196678E-013  0.7246146E+02  0.7816164E-02  0.1226708E+00
        -11   -1    0    0    0    0  0.00000000000E+00  0.00000000000E+00  0.45593999997E+02  0.45594000000E+02  0.51100000000E-03 0.  1.
         11   -1    0    0    0    0 -0.00000000000E+00 -0.00000000000E+00 -0.45593999997E+02  0.45594000000E+02  0.51100000000E-03 0. -1.
    9900012    2    1    2    0    0 -0.33198668033E+01 -0.13628578876E+02  0.12406597763E+02  0.72461458786E+02  0.69999854739E+02 0.  0.
         12    1    1    2    0    0  0.33198668033E+01  0.13628578876E+02 -0.12406597763E+02  0.18726541214E+02  0.00000000000E+00 0. -1.
         11    1    3    3    0    0  0.10223409862E+02 -0.23012115260E+02 -0.12719171244E+02  0.28210864491E+02  0.51100000000E-03 0. -1.
        -11    1    3    3    0    0  0.43191634684E+01  0.12101440105E+02 -0.54286396057E+00  0.12860588137E+02  0.51100000000E-03 0.  1.
        -12    1    3    3    0    0 -0.17862440134E+02 -0.27179037211E+01  0.25668632968E+02  0.31390006158E+02  0.00000000000E+00 0.  1.
</event>
<event>
 7    1  0.3196678E-013  0.7246165E+02  0.7816164E-02  0.1226708E+00
        -11   -1    0    0    0    0  0.00000000000E+00  0.00000000000E+00  0.45593999997E+02  0.45594000000E+02  0.51100000000E-03 0.  1.
         11   -1    0    0    0    0 -0.00000000000E+00 -0.00000000000E+00 -0.45593999997E+02  0.45594000000E+02  0.51100000000E-03 0. -1.
    9900012    2    1    2    0    0 -0.24985965077E+00  0.81475204707E+01  0.16859170824E+02  0.72461650635E+02  0.70000104659E+02 0.  0.
         12    1    1    2    0    0  0.24985965077E+00 -0.81475204707E+01 -0.16859170824E+02  0.18726349365E+02  0.00000000000E+00 0. -1.
         11    1    3    3    0    0 -0.68910772096E+01  0.26677873478E+02 -0.16768936130E+02  0.32255125137E+02  0.51100000000E-03 0. -1.
        -11    1    3    3    0    0  0.60826875832E+01 -0.37124360085E+01  0.93133273407E+01  0.11726863850E+02  0.51100000000E-03 0.  1.
        -12    1    3    3    0    0  0.55852997566E+00 -0.14817916999E+02  0.24314779613E+02  0.28479661648E+02  0.00000000000E+00 0.  1.
</event>
<event>
 7    1  0.3196678E-013  0.7246157E+02  0.7816164E-02  0.1226708E+00
        -11   -1    0    0    0    0  0.00000000000E+00  0.00000000000E+00  0.45593999997E+02  0.45594000000E+02  0.51100000000E-03 0.  1.
         11   -1    0    0    0    0 -0.00000000000E+00 -0.00000000000E+00 -0.45593999997E+02  0.45594000000E+02  0.51100000000E-03 0. -1.
    9900012    2    1    2    0    0 -0.69390793461E+01  0.71891710678E+01  0.15838056835E+02  0.72461573563E+02  0.70000004258E+02 0.  0.
         12    1    1    2    0    0  0.69390793461E+01 -0.71891710678E+01 -0.15838056835E+02  0.18726426437E+02  0.00000000000E+00 0. -1.
         11    1    3    3    0    0  0.23433300792E+02  0.93969332575E+01  0.58378187235E+01  0.25913356949E+02  0.51100000000E-03 0. -1.
        -11    1    3    3    0    0 -0.22038445294E+01  0.67399749095E+01  0.14982346778E+02  0.16575732495E+02  0.51100000000E-03 0.  1.
         12    1    3    3    0    0 -0.28168535608E+02 -0.89477370992E+01 -0.49821086673E+01  0.29972484119E+02  0.00000000000E+00 0. -1.
</event>
<event>
 7    1  0.3196678E-013  0.7246164E+02  0.7816164E-02  0.1226708E+00
        -11   -1    0    0    0    0  0.00000000000E+00  0.00000000000E+00  0.45593999997E+02  0.45594000000E+02  0.51100000000E-03 0. -1.
         11   -1    0    0    0    0 -0.00000000000E+00 -0.00000000000E+00 -0.45593999997E+02  0.45594000000E+02  0.51100000000E-03 0.  1.
    9900012    2    1    2    0    0 -0.53627750725E+01 -0.13951793097E+02 -0.11281157331E+02  0.72461644299E+02  0.70000096405E+02 0.  0.
         12    1    1    2    0    0  0.53627750725E+01  0.13951793097E+02  0.11281157331E+02  0.18726355701E+02  0.00000000000E+00 0. -1.
         11    1    3    3    0    0  0.45678944257E+01  0.14293359248E+02  0.13107436756E+02  0.19924122983E+02  0.51100000000E-03 0. -1.
        -11    1    3    3    0    0 -0.18434666324E+02 -0.83775907999E+01 -0.40418533424E+00  0.20253007583E+02  0.51100000000E-03 0.  1.
        -12    1    3    3    0    0  0.85039968261E+01 -0.19867561545E+02 -0.23984408753E+02  0.32284513733E+02  0.00000000000E+00 0.  1.
</event>
<event>
 7    1  0.3196678E-013  0.7246158E+02  0.7816164E-02  0.1226708E+00
        -11   -1    0    0    0    0  0.00000000000E+00  0.00000000000E+00  0.45593999997E+02  0.45594000000E+02  0.51100000000E-03 0.  1.
         11   -1    0    0    0    0 -0.00000000000E+00 -0.00000000000E+00 -0.45593999997E+02  0.45594000000E+02  0.51100000000E-03 0. -1.
    9900012    2    1    2    0    0 -0.13086961223E+01  0.52987996198E+01  0.17913374075E+02  0.72461576591E+02  0.70000008202E+02 0.  0.
         12    1    1    2    0    0  0.13086961223E+01 -0.52987996198E+01 -0.17913374075E+02  0.18726423409E+02  0.00000000000E+00 0. -1.
         11    1    3    3    0    0 -0.22155393428E+02  0.12959737646E+02  0.21087784081E+02  0.33219134478E+02  0.51100000000E-03 0. -1.
        -11    1    3    3    0    0 -0.67375446774E+01  0.35820577055E+01  0.39823595098E+01  0.86072546850E+01  0.51100000000E-03 0.  1.
        -12    1    3    3    0    0  0.27584241983E+02 -0.11242995732E+02 -0.71567695155E+01  0.30635187427E+02  0.00000000000E+00 0.  1.
</event>
<event>
 7    1  0.3196678E-013  0.7246157E+02  0.7816164E-02  0.1226708E+00
        -11   -1    0    0    0    0  0.00000000000E+00  0.00000000000E+00  0.45593999997E+02  0.45594000000E+02  0.51100000000E-03 0.  1.
         11   -1    0    0    0    0 -0.00000000000E+00 -0.00000000000E+00 -0.45593999997E+02  0.45594000000E+02  0.51100000000E-03 0. -1.
    9900012    2    1    2    0    0  0.89697278523E+01  0.16034825128E+02 -0.36204189800E+01  0.72461572999E+02  0.70000003524E+02 0.  0.
         12    1    1    2    0    0 -0.89697278523E+01 -0.16034825128E+02  0.36204189800E+01  0.18726427001E+02  0.00000000000E+00 0. -1.
         11    1    3    3    0    0 -0.26251508963E+00  0.23853062142E+01 -0.73554177132E+01  0.77369742086E+01  0.51100000000E-03 0. -1.
        -11    1    3    3    0    0  0.72044421206E+00  0.33167946290E+02 -0.14956211706E+02  0.36391207315E+02  0.51100000000E-03 0.  1.
        -12    1    3    3    0    0  0.85117987299E+01 -0.19518427377E+02  0.18691210439E+02  0.28333391476E+02  0.00000000000E+00 0.  1.
</event>
<event>
 7    1  0.3196678E-013  0.7246167E+02  0.7816164E-02  0.1226708E+00
        -11   -1    0    0    0    0  0.00000000000E+00  0.00000000000E+00  0.45593999997E+02  0.45594000000E+02  0.51100000000E-03 0.  1.
         11   -1    0    0    0    0 -0.00000000000E+00 -0.00000000000E+00 -0.45593999997E+02  0.45594000000E+02  0.51100000000E-03 0. -1.
    9900012    2    1    2    0    0  0.13209232957E+02  0.71735248602E+01  0.11168358104E+02  0.72461667819E+02  0.70000127043E+02 0.  0.
         12    1    1    2    0    0 -0.13209232957E+02 -0.71735248602E+01 -0.11168358104E+02  0.18726332181E+02  0.00000000000E+00 0. -1.
         11    1    3    3    0    0 -0.17721699870E+02  0.18195492615E+02  0.61700889604E+01  0.26138182719E+02  0.51100000000E-03 0. -1.
        -11    1    3    3    0    0 -0.16163477850E+01  0.80047489042E+01  0.24987188821E+01  0.85400340453E+01  0.51100000000E-03 0.  1.
        -12    1    3    3    0    0  0.32547280612E+02 -0.19026716659E+02  0.24995502618E+01  0.37783451054E+02  0.00000000000E+00 0.  1.
</event>
<event>
 7    1  0.3196678E-013  0.7246156E+02  0.7816164E-02  0.1226708E+00
        -11   -1    0    0    0    0  0.00000000000E+00  0.00000000000E+00  0.45593999997E+02  0.45594000000E+02  0.51100000000E-03 0. -1.
         11   -1    0    0    0    0 -0.00000000000E+00 -0.00000000000E+00 -0.45593999997E+02  0.45594000000E+02  0.51100000000E-03 0.  1.
    9900012    2    1    2    0    0 -0.47231293181E+01 -0.11988389213E+02 -0.13588602083E+02  0.72461560588E+02  0.69999987356E+02 0.  0.
         12    1    1    2    0    0  0.47231293181E+01  0.11988389213E+02  0.13588602083E+02  0.18726439412E+02  0.00000000000E+00 0. -1.
         11    1    3    3    0    0  0.69029508051E+01  0.96242879828E+01 -0.11046845925E+02  0.16196001178E+02  0.51100000000E-03 0. -1.
        -11    1    3    3    0    0  0.19937052430E+02 -0.57641172982E+01  0.94579950492E+00  0.20775120813E+02  0.51100000000E-03 0.  1.
        -12    1    3    3    0    0 -0.31563132553E+02 -0.15848559897E+02 -0.34875556631E+01  0.35490438598E+02  0.00000000000E+00 0.  1.
</event>
<event>
 7    1  0.3196678E-013  0.7246160E+02  0.7816164E-02  0.1226708E+00
        -11   -1    0    0    0    0  0.00000000000E+00  0.00000000000E+00  0.45593999997E+02  0.45594000000E+02  0.51100000000E-03 0. -1.
         11   -1    0    0    0    0 -0.00000000000E+00 -0.00000000000E+00 -0.45593999997E+02  0.45594000000E+02  0.51100000000E-03 0.  1.
    9900012    2    1    2    0    0 -0.17060983148E+01 -0.37639285397E+01 -0.18264721071E+02  0.72461602447E+02  0.70000041885E+02 0.  0.
         12    1    1    2    0    0  0.17060983148E+01  0.37639285397E+01  0.18264721071E+02  0.18726397553E+02  0.00000000000E+00 0. -1.
         11    1    3    3    0    0  0.15211707698E+02 -0.28470607302E+02 -0.66367151931E+01  0.32954779928E+02  0.51100000000E-03 0. -1.
        -11    1    3    3    0    0  0.40180606161E+01 -0.13795802140E+01 -0.20305222678E+01  0.47086169544E+01  0.51100000000E-03 0.  1.
        -12    1    3    3    0    0 -0.20935866629E+02  0.26086258977E+02 -0.95974836099E+01  0.34798205565E+02  0.00000000000E+00 0.  1.
</event>
<event>
 7    1  0.3451095E-013  0.7246155E+02  0.7816164E-02  0.1226708E+00
        -11   -1    0    0    0    0  0.00000000000E+00  0.00000000000E+00  0.45593999997E+02  0.45594000000E+02  0.51100000000E-03 0.  1.
         11   -1    0    0    0    0 -0.00000000000E+00 -0.00000000000E+00 -0.45593999997E+02  0.45594000000E+02  0.51100000000E-03 0. -1.
    9900012    2    1    2    0    0  0.17840986447E+02  0.14296757379E+01  0.55077407505E+01  0.72461548700E+02  0.69999971869E+02 0.  0.
         12    1    1    2    0    0 -0.17840986447E+02 -0.14296757379E+01 -0.55077407505E+01  0.18726451300E+02  0.00000000000E+00 0. -1.
         11    1    3    3    0    0  0.69576387322E+01 -0.10117518864E+02 -0.11130923077E+02  0.16573182359E+02  0.51100000000E-03 0. -1.
        -11    1    3    3    0    0  0.25875151037E+02 -0.43163822636E+01  0.21033151846E+02  0.33623623747E+02  0.51100000000E-03 0.  1.
         12    1    3    3    0    0 -0.14991803323E+02  0.15863576866E+02 -0.43944880183E+01  0.22264742594E+02  0.00000000000E+00 0. -1.
</event>
<event>
 7    1  0.3196678E-013  0.7246157E+02  0.7816164E-02  0.1226708E+00
        -11   -1    0    0    0    0  0.00000000000E+00  0.00000000000E+00  0.45593999997E+02  0.45594000000E+02  0.51100000000E-03 0.  1.
         11   -1    0    0    0    0 -0.00000000000E+00 -0.00000000000E+00 -0.45593999997E+02  0.45594000000E+02  0.51100000000E-03 0. -1.
    9900012    2    1    2    0    0 -0.88949990476E+01 -0.15127608062E+02  0.65355678215E+01  0.72461570002E+02  0.69999999619E+02 0.  0.
         12    1    1    2    0    0  0.88949990476E+01  0.15127608062E+02 -0.65355678215E+01  0.18726429998E+02  0.00000000000E+00 0. -1.
         11    1    3    3    0    0  0.13690464291E+02 -0.68994144800E+00  0.48958000072E+01  0.14555881618E+02  0.51100000000E-03 0. -1.
        -11    1    3    3    0    0 -0.26749365937E+01 -0.31528837101E+02  0.79353688614E+00  0.31652054527E+02  0.51100000000E-03 0.  1.
         12    1    3    3    0    0 -0.19910526745E+02  0.17091170487E+02  0.84623092822E+00  0.26253633857E+02  0.00000000000E+00 0. -1.
</event>
<event>
 7    1  0.3196678E-013  0.7246137E+02  0.7816164E-02  0.1226709E+00
        -11   -1    0    0    0    0  0.00000000000E+00  0.00000000000E+00  0.45593999997E+02  0.45594000000E+02  0.51100000000E-03 0. -1.
         11   -1    0    0    0    0 -0.00000000000E+00 -0.00000000000E+00 -0.45593999997E+02  0.45594000000E+02  0.51100000000E-03 0.  1.
    9900012    2    1    2    0    0  0.20458478958E+01 -0.76372840230E+01 -0.16975658573E+02  0.72461372305E+02  0.69999742081E+02 0.  0.
         12    1    1    2    0    0 -0.20458478958E+01  0.76372840230E+01  0.16975658573E+02  0.18726627695E+02  0.00000000000E+00 0. -1.
         11    1    3    3    0    0 -0.42080885275E+01  0.21416703384E+02 -0.53512962549E+01  0.22472640360E+02  0.51100000000E-03 0. -1.
        -11    1    3    3    0    0  0.31832594573E+00 -0.72087878343E+01  0.14028775385E+02  0.15775756480E+02  0.51100000000E-03 0.  1.
        -12    1    3    3    0    0  0.59356104776E+01 -0.21845199573E+02 -0.25653137703E+02  0.34212975464E+02  0.00000000000E+00 0.  1.
</event>
<event>
 7    1  0.3196678E-013  0.7246156E+02  0.7816164E-02  0.1226708E+00
        -11   -1    0    0    0    0  0.00000000000E+00  0.00000000000E+00  0.45593999997E+02  0.45594000000E+02  0.51100000000E-03 0.  1.
         11   -1    0    0    0    0 -0.00000000000E+00 -0.00000000000E+00 -0.45593999997E+02  0.45594000000E+02  0.51100000000E-03 0. -1.
    9900012    2    1    2    0    0  0.98046608920E+01  0.10837554724E+02 -0.11708778563E+02  0.72461562457E+02  0.69999989791E+02 0.  0.
         12    1    1    2    0    0 -0.98046608920E+01 -0.10837554724E+02  0.11708778563E+02  0.18726437543E+02  0.00000000000E+00 0. -1.
         11    1    3    3    0    0  0.32368117642E+02  0.14318900676E+02 -0.83013599871E+01  0.36354346839E+02  0.51100000000E-03 0. -1.
        -11    1    3    3    0    0 -0.85205483776E+01 -0.10645582053E+02 -0.11990208010E+02  0.18157457154E+02  0.51100000000E-03 0.  1.
        -12    1    3    3    0    0 -0.14042908372E+02  0.71642361010E+01  0.85827894343E+01  0.17949758464E+02  0.00000000000E+00 0.  1.
</event>
<event>
 7    1  0.3196678E-013  0.7246160E+02  0.7816164E-02  0.1226708E+00
        -11   -1    0    0    0    0  0.00000000000E+00  0.00000000000E+00  0.45593999997E+02  0.45594000000E+02  0.51100000000E-03 0. -1.
         11   -1    0    0    0    0 -0.00000000000E+00 -0.00000000000E+00 -0.45593999997E+02  0.45594000000E+02  0.51100000000E-03 0.  1.
    9900012    2    1    2    0    0  0.16387441817E+02 -0.65897470692E+01 -0.62213396874E+01  0.72461599298E+02  0.70000037783E+02 0.  0.
         12    1    1    2    0    0 -0.16387441817E+02  0.65897470692E+01  0.62213396874E+01  0.18726400702E+02  0.00000000000E+00 0. -1.
         11    1    3    3    0    0  0.42693216835E+01 -0.15803469888E+02 -0.66000189571E+00  0.16383295483E+02  0.51100000000E-03 0. -1.
        -11    1    3    3    0    0  0.24398637597E+02 -0.12882518865E+02 -0.11850627673E+02  0.30028156543E+02  0.51100000000E-03 0.  1.
        -12    1    3    3    0    0 -0.12280517463E+02  0.22096241683E+02  0.62892898816E+01  0.26050147272E+02  0.00000000000E+00 0.  1.
</event>
<event>
 7    1  0.3196678E-013  0.7246154E+02  0.7816164E-02  0.1226708E+00
        -11   -1    0    0    0    0  0.00000000000E+00  0.00000000000E+00  0.45593999997E+02  0.45594000000E+02  0.51100000000E-03 0. -1.
         11   -1    0    0    0    0 -0.00000000000E+00 -0.00000000000E+00 -0.45593999997E+02  0.45594000000E+02  0.51100000000E-03 0.  1.
    9900012    2    1    2    0    0  0.13635401152E+02  0.39223726859E+01 -0.12221747781E+02  0.72461540354E+02  0.69999960997E+02 0.  0.
         12    1    1    2    0    0 -0.13635401152E+02 -0.39223726859E+01  0.12221747781E+02  0.18726459646E+02  0.00000000000E+00 0. -1.
         11    1    3    3    0    0 -0.16696692209E+01  0.17087929065E+02  0.15624429933E+02  0.23214390495E+02  0.51100000000E-03 0. -1.
        -11    1    3    3    0    0 -0.67360727752E+01  0.13800115362E+01  0.39379803950E+01  0.79238120955E+01  0.51100000000E-03 0.  1.
        -12    1    3    3    0    0  0.22041143148E+02 -0.14545567915E+02 -0.31784158109E+02  0.41323337764E+02  0.00000000000E+00 0.  1.
</event>
<event>
 7    1  0.3196678E-013  0.7246157E+02  0.7816164E-02  0.1226708E+00
        -11   -1    0    0    0    0  0.00000000000E+00  0.00000000000E+00  0.45593999997E+02  0.45594000000E+02  0.51100000000E-03 0. -1.
         11   -1    0    0    0    0 -0.00000000000E+00 -0.00000000000E+00 -0.45593999997E+02  0.45594000000E+02  0.51100000000E-03 0.  1.
    9900012    2    1    2    0    0  0.72137890041E+01  0.64787382319E+01 -0.16020809686E+02  0.72461570980E+02  0.70000000893E+02 0.  0.
         12    1    1    2    0    0 -0.72137890041E+01 -0.64787382319E+01  0.16020809686E+02  0.18726429020E+02  0.00000000000E+00 0. -1.
         11    1    3    3    0    0  0.11151965284E+02  0.22812135485E+02 -0.21134075476E+01  0.25479920463E+02  0.51100000000E-03 0. -1.
        -11    1    3    3    0    0 -0.28544713049E+01  0.51642683668E+01 -0.22904251758E+02  0.23652112444E+02  0.51100000000E-03 0.  1.
        -12    1    3    3    0    0 -0.10837049745E+01 -0.21497665620E+02  0.89968496204E+01  0.23329538073E+02  0.00000000000E+00 0.  1.
</event>
<event>
 7    1  0.3196678E-013  0.7246157E+02  0.7816164E-02  0.1226708E+00
        -11   -1    0    0    0    0  0.00000000000E+00  0.00000000000E+00  0.45593999997E+02  0.45594000000E+02  0.51100000000E-03 0. -1.
         11   -1    0    0    0    0 -0.00000000000E+00 -0.00000000000E+00 -0.45593999997E+02  0.45594000000E+02  0.51100000000E-03 0.  1.
    9900012    2    1    2    0    0  0.69616508392E+01 -0.98869164725E+01 -0.14299075781E+02  0.72461567667E+02  0.69999996577E+02 0.  0.
         12    1    1    2    0    0 -0.69616508392E+01  0.98869164725E+01  0.14299075781E+02  0.18726432333E+02  0.00000000000E+00 0. -1.
         11    1    3    3    0    0  0.27568063771E+01 -0.89351532085E+01 -0.12728434427E+02  0.15793985801E+02  0.51100000000E-03 0.  1.
        -11    1    3    3    0    0  0.25330368906E+02  0.86147861821E+01  0.12511603133E+02  0.29536119297E+02  0.51100000000E-03 0. -1.
         12    1    3    3    0    0 -0.21125524444E+02 -0.95665494461E+01 -0.14082244487E+02  0.27131462569E+02  0.00000000000E+00 0. -1.
</event>
<event>
 7    1  0.3781980E-013  0.7246160E+02  0.7816164E-02  0.1226708E+00
        -11   -1    0    0    0    0  0.00000000000E+00  0.00000000000E+00  0.45593999997E+02  0.45594000000E+02  0.51100000000E-03 0.  1.
         11   -1    0    0    0    0 -0.00000000000E+00 -0.00000000000E+00 -0.45593999997E+02  0.45594000000E+02  0.51100000000E-03 0. -1.
    9900012    2    1    2    0    0 -0.56753285781E+01 -0.16559480623E+02  0.66522418003E+01  0.72461599546E+02  0.70000038106E+02 0.  0.
         12    1    1    2    0    0  0.56753285781E+01  0.16559480623E+02 -0.66522418003E+01  0.18726400454E+02  0.00000000000E+00 0. -1.
         11    1    3    3    0    0 -0.53830885136E+01  0.60338871177E+01 -0.10277148698E+02  0.13076896471E+02  0.51100000000E-03 0. -1.
        -11    1    3    3    0    0 -0.21732157475E+02 -0.27231387956E+02  0.12438002469E+02  0.36993770613E+02  0.51100000000E-03 0.  1.
         12    1    3    3    0    0  0.21439917410E+02  0.46380202149E+01  0.44913880297E+01  0.22390932462E+02  0.00000000000E+00 0. -1.
</event>
<event>
 7    1  0.3196678E-013  0.7246155E+02  0.7816164E-02  0.1226708E+00
        -11   -1    0    0    0    0  0.00000000000E+00  0.00000000000E+00  0.45593999997E+02  0.45594000000E+02  0.51100000000E-03 0.  1.
         11   -1    0    0    0    0 -0.00000000000E+00 -0.00000000000E+00 -0.45593999997E+02  0.45594000000E+02  0.51100000000E-03 0. -1.
    9900012    2    1    2    0    0 -0.16370142522E+02 -0.20312940644E-01  0.90938375562E+01  0.72461551850E+02  0.69999975973E+02 0.  0.
         12    1    1    2    0    0  0.16370142522E+02  0.20312940644E-01 -0.90938375562E+01  0.18726448150E+02  0.00000000000E+00 0. -1.
         11    1    3    3    0    0 -0.17021118466E+02  0.16683729649E+02  0.51198821886E+00  0.23839619146E+02  0.51100000000E-03 0. -1.
        -11    1    3    3    0    0 -0.11054752561E+02 -0.73862802232E+01 -0.15406644523E+02  0.20350169175E+02  0.51100000000E-03 0.  1.
        -12    1    3    3    0    0  0.11705728506E+02 -0.93177623667E+01  0.23988493860E+02  0.28271763529E+02  0.00000000000E+00 0.  1.
</event>
<event>
 7    1  0.3196678E-013  0.7246152E+02  0.7816164E-02  0.1226708E+00
        -11   -1    0    0    0    0  0.00000000000E+00  0.00000000000E+00  0.45593999997E+02  0.45594000000E+02  0.51100000000E-03 0.  1.
         11   -1    0    0    0    0 -0.00000000000E+00 -0.00000000000E+00 -0.45593999997E+02  0.45594000000E+02  0.51100000000E-03 0. -1.
    9900012    2    1    2    0    0 -0.15670440385E+02 -0.19878293886E+01 -0.10058171050E+02  0.72461522157E+02  0.69999937292E+02 0.  0.
         12    1    1    2    0    0  0.15670440385E+02  0.19878293886E+01  0.10058171050E+02  0.18726477843E+02  0.00000000000E+00 0. -1.
         11    1    3    3    0    0 -0.16924686822E+02 -0.10008627139E+02  0.41349399123E+01  0.20092669548E+02  0.51100000000E-03 0. -1.
        -11    1    3    3    0    0  0.17840493246E+02 -0.73359999734E+01  0.78222368035E+01  0.20815558694E+02  0.51100000000E-03 0.  1.
         12    1    3    3    0    0 -0.16586246810E+02  0.15356797724E+02 -0.22015347766E+02  0.31553293914E+02  0.00000000000E+00 0. -1.
</event>
<event>
 7    1  0.3357503E-013  0.7246157E+02  0.7816164E-02  0.1226708E+00
        -11   -1    0    0    0    0  0.00000000000E+00  0.00000000000E+00  0.45593999997E+02  0.45594000000E+02  0.51100000000E-03 0.  1.
         11   -1    0    0    0    0 -0.00000000000E+00 -0.00000000000E+00 -0.45593999997E+02  0.45594000000E+02  0.51100000000E-03 0. -1.
    9900012    2    1    2    0    0  0.18317428619E+02  0.15009448529E+01  0.35914002555E+01  0.72461569948E+02  0.69999999549E+02 0.  0.
         12    1    1    2    0    0 -0.18317428619E+02 -0.15009448529E+01 -0.35914002555E+01  0.18726430052E+02  0.00000000000E+00 0. -1.
         11    1    3    3    0    0  0.47879358739E+01  0.12915530656E+01 -0.83537326568E+01  0.97147974150E+01  0.51100000000E-03 0. -1.
        -11    1    3    3    0    0  0.35594140712E+02 -0.87668288895E+01  0.13021337764E+02  0.38901868583E+02  0.51100000000E-03 0.  1.
         12    1    3    3    0    0 -0.22064647967E+02  0.89762206768E+01 -0.10762048520E+01  0.23844903951E+02  0.00000000000E+00 0. -1.
</event>
<event>
 7    1  0.3196678E-013  0.7246157E+02  0.7816164E-02  0.1226708E+00
        -11   -1    0    0    0    0  0.00000000000E+00  0.00000000000E+00  0.45593999997E+02  0.45594000000E+02  0.51100000000E-03 0.  1.
         11   -1    0    0    0    0 -0.00000000000E+00 -0.00000000000E+00 -0.45593999997E+02  0.45594000000E+02  0.51100000000E-03 0. -1.
    9900012    2    1    2    0    0 -0.90322135933E+01 -0.13007699332E+02  0.99948969696E+01  0.72461572425E+02  0.70000002775E+02 0.  0.
         12    1    1    2    0    0  0.90322135933E+01  0.13007699332E+02 -0.99948969696E+01  0.18726427575E+02  0.00000000000E+00 0. -1.
         11    1    3    3    0    0 -0.97030170134E+01  0.47511894817E+01 -0.23763500117E+02  0.26104142942E+02  0.51100000000E-03 0. -1.
        -11    1    3    3    0    0 -0.12398184265E+02 -0.12706579971E+02  0.18415339571E+02  0.25579227498E+02  0.51100000000E-03 0.  1.
        -12    1    3    3    0    0  0.13068987685E+02 -0.50523088426E+01  0.15343057516E+02  0.20778201984E+02  0.00000000000E+00 0.  1.
</event>
<event>
 7    1  0.3196678E-013  0.7246155E+02  0.7816164E-02  0.1226708E+00
        -11   -1    0    0    0    0  0.00000000000E+00  0.00000000000E+00  0.45593999997E+02  0.45594000000E+02  0.51100000000E-03 0.  1.
         11   -1    0    0    0    0 -0.00000000000E+00 -0.00000000000E+00 -0.45593999997E+02  0.45594000000E+02  0.51100000000E-03 0. -1.
    9900012    2    1    2    0    0 -0.26496089422E+01 -0.15888667465E+02 -0.95503764837E+01  0.72461551529E+02  0.69999975555E+02 0.  0.
         12    1    1    2    0    0  0.26496089422E+01  0.15888667465E+02  0.95503764837E+01  0.18726448471E+02  0.00000000000E+00 0. -1.
         11    1    3    3    0    0 -0.91292148531E-01 -0.18957585899E+02 -0.38998733460E+01  0.19354777440E+02  0.51100000000E-03 0. -1.
        -11    1    3    3    0    0 -0.24029520224E+02  0.44475556666E+00  0.10383904806E+02  0.26180930637E+02  0.51100000000E-03 0.  1.
         12    1    3    3    0    0  0.21471203431E+02  0.26241628675E+01 -0.16034407943E+02  0.26925843452E+02  0.00000000000E+00 0. -1.
</event>
<event>
 7    1  0.3196678E-013  0.7246144E+02  0.7816164E-02  0.1226708E+00
        -11   -1    0    0    0    0  0.00000000000E+00  0.00000000000E+00  0.45593999997E+02  0.45594000000E+02  0.51100000000E-03 0.  1.
         11   -1    0    0    0    0 -0.00000000000E+00 -0.00000000000E+00 -0.45593999997E+02  0.45594000000E+02  0.51100000000E-03 0. -1.
    9900012    2    1    2    0    0  0.22638495360E+01 -0.97580821105E+00  0.18563593282E+02  0.72461435661E+02  0.69999824615E+02 0.  0.
         12    1    1    2    0    0 -0.22638495360E+01  0.97580821105E+00 -0.18563593282E+02  0.18726564339E+02  0.00000000000E+00 0. -1.
         11    1    3    3    0    0 -0.14569112089E+01  0.86227738887E+01  0.68674320631E+01  0.11119192561E+02  0.51100000000E-03 0. -1.
        -11    1    3    3    0    0 -0.36956033096E+01  0.20000770201E+01  0.34472932516E+02  0.34728099119E+02  0.51100000000E-03 0.  1.
         12    1    3    3    0    0  0.74163640545E+01 -0.11598659120E+02 -0.22776771297E+02  0.26614143981E+02  0.00000000000E+00 0. -1.
</event>
<event>
 7    1  0.3196678E-013  0.7246165E+02  0.7816164E-02  0.1226708E+00
        -11   -1    0    0    0    0  0.00000000000E+00  0.00000000000E+00  0.45593999997E+02  0.45594000000E+02  0.51100000000E-03 0.  1.
         11   -1    0    0    0    0 -0.00000000000E+00 -0.00000000000E+00 -0.45593999997E+02  0.45594000000E+02  0.51100000000E-03 0. -1.
    9900012    2    1    2    0    0 -0.34241853353E+01 -0.18301954648E+02 -0.19974004771E+01  0.72461649640E+02  0.70000103362E+02 0.  0.
         12    1    1    2    0    0  0.34241853353E+01  0.18301954648E+02  0.19974004771E+01  0.18726350360E+02  0.00000000000E+00 0. -1.
         11    1    3    3    0    0 -0.10709682480E+02 -0.15008644870E+02  0.99974278194E+01  0.20973919112E+02  0.51100000000E-03 0. -1.
        -11    1    3    3    0    0 -0.12063976858E+02 -0.19456016736E+02  0.14057610222E+01  0.22935829813E+02  0.51100000000E-03 0.  1.
        -12    1    3    3    0    0  0.19349474003E+02  0.16162706958E+02 -0.13400589319E+02  0.28551900716E+02  0.00000000000E+00 0.  1.
</event>
<event>
 7    1  0.3196678E-013  0.7246156E+02  0.7816164E-02  0.1226708E+00
        -11   -1    0    0    0    0  0.00000000000E+00  0.00000000000E+00  0.45593999997E+02  0.45594000000E+02  0.51100000000E-03 0. -1.
         11   -1    0    0    0    0 -0.00000000000E+00 -0.00000000000E+00 -0.45593999997E+02  0.45594000000E+02  0.51100000000E-03 0.  1.
    9900012    2    1    2    0    0  0.52611877800E+00 -0.43234503211E+01 -0.18212922763E+02  0.72461559355E+02  0.69999985750E+02 0.  0.
         12    1    1    2    0    0 -0.52611877800E+00  0.43234503211E+01  0.18212922763E+02  0.18726440645E+02  0.00000000000E+00 0. -1.
         11    1    3    3    0    0 -0.64099580112E+01 -0.10292446381E+02  0.82680375669E+01  0.14675914271E+02  0.51100000000E-03 0. -1.
        -11    1    3    3    0    0  0.31315335957E+00 -0.20024831922E+02  0.92256484654E-01  0.20027492855E+02  0.51100000000E-03 0.  1.
        -12    1    3    3    0    0  0.66229234296E+01  0.25993827982E+02 -0.26573216815E+02  0.37758152230E+02  0.00000000000E+00 0.  1.
</event>
<event>
 7    1  0.3196678E-013  0.7246162E+02  0.7816164E-02  0.1226708E+00
        -11   -1    0    0    0    0  0.00000000000E+00  0.00000000000E+00  0.45593999997E+02  0.45594000000E+02  0.51100000000E-03 0. -1.
         11   -1    0    0    0    0 -0.00000000000E+00 -0.00000000000E+00 -0.45593999997E+02  0.45594000000E+02  0.51100000000E-03 0.  1.
    9900012    2    1    2    0    0 -0.15050947747E+01  0.15789872475E+02  0.99544974443E+01  0.72461617477E+02  0.70000061464E+02 0.  0.
         12    1    1    2    0    0  0.15050947747E+01 -0.15789872475E+02 -0.99544974443E+01  0.18726382523E+02  0.00000000000E+00 0. -1.
         11    1    3    3    0    0 -0.28981968121E+01  0.96009778295E+01  0.81173587018E+01  0.12902318885E+02  0.51100000000E-03 0. -1.
        -11    1    3    3    0    0 -0.13593703725E+02  0.19613514439E+02 -0.19066886744E+02  0.30545456290E+02  0.51100000000E-03 0.  1.
         12    1    3    3    0    0  0.14986805762E+02 -0.13424619794E+02  0.20904025486E+02  0.29013842302E+02  0.00000000000E+00 0. -1.
</event>
<event>
 7    1  0.3196678E-013  0.7246136E+02  0.7816164E-02  0.1226709E+00
        -11   -1    0    0    0    0  0.00000000000E+00  0.00000000000E+00  0.45593999997E+02  0.45594000000E+02  0.51100000000E-03 0. -1.
         11   -1    0    0    0    0 -0.00000000000E+00 -0.00000000000E+00 -0.45593999997E+02  0.45594000000E+02  0.51100000000E-03 0.  1.
    9900012    2    1    2    0    0  0.18669385633E+01 -0.18408429360E+02  0.28863931060E+01  0.72461361320E+02  0.69999727772E+02 0.  0.
         12    1    1    2    0    0 -0.18669385633E+01  0.18408429360E+02 -0.28863931060E+01  0.18726638680E+02  0.00000000000E+00 0. -1.
         11    1    3    3    0    0  0.26480487720E+01  0.14790696551E+02  0.24198454702E+01  0.15219478280E+02  0.51100000000E-03 0.  1.
        -11    1    3    3    0    0  0.17687708643E+02 -0.38675371844E+01  0.10788106295E+02  0.21075960681E+02  0.51100000000E-03 0. -1.
        -12    1    3    3    0    0 -0.18468818852E+02 -0.29331588726E+02 -0.10321558659E+02  0.36165922360E+02  0.00000000000E+00 0.  1.
</event>
<event>
 7    1  0.3196678E-013  0.7246155E+02  0.7816164E-02  0.1226708E+00
        -11   -1    0    0    0    0  0.00000000000E+00  0.00000000000E+00  0.45593999997E+02  0.45594000000E+02  0.51100000000E-03 0.  1.
         11   -1    0    0    0    0 -0.00000000000E+00 -0.00000000000E+00 -0.45593999997E+02  0.45594000000E+02  0.51100000000E-03 0. -1.
    9900012    2    1    2    0    0 -0.14026222691E+02  0.10730745097E+01  0.12360964515E+02  0.72461551975E+02  0.69999976136E+02 0.  0.
         12    1    1    2    0    0  0.14026222691E+02 -0.10730745097E+01 -0.12360964515E+02  0.18726448025E+02  0.00000000000E+00 0. -1.
         11    1    3    3    0    0 -0.12130203872E+02  0.98112968355E+01  0.62744680576E+01  0.16815836025E+02  0.51100000000E-03 0. -1.
        -11    1    3    3    0    0 -0.54185663107E+01  0.63430779123E+01  0.27771893011E+02  0.28997819572E+02  0.51100000000E-03 0.  1.
         12    1    3    3    0    0  0.35225474915E+01 -0.15081300238E+02 -0.21685396553E+02  0.26647896378E+02  0.00000000000E+00 0. -1.
</event>
<event>
 7    1  0.3196678E-013  0.7246159E+02  0.7816164E-02  0.1226708E+00
        -11   -1    0    0    0    0  0.00000000000E+00  0.00000000000E+00  0.45593999997E+02  0.45594000000E+02  0.51100000000E-03 0.  1.
         11   -1    0    0    0    0 -0.00000000000E+00 -0.00000000000E+00 -0.45593999997E+02  0.45594000000E+02  0.51100000000E-03 0. -1.
    9900012    2    1    2    0    0  0.14418719544E+02 -0.10579411240E+02  0.55547345459E+01  0.72461588402E+02  0.70000023588E+02 0.  0.
         12    1    1    2    0    0 -0.14418719544E+02  0.10579411240E+02 -0.55547345459E+01  0.18726411598E+02  0.00000000000E+00 0. -1.
         11    1    3    3    0    0 -0.92031562085E+01 -0.31714078770E+02  0.70800642357E+01  0.33772891293E+02  0.51100000000E-03 0. -1.
        -11    1    3    3    0    0  0.13330168297E+02  0.52121248716E+00  0.57510003397E+01  0.14527183294E+02  0.51100000000E-03 0.  1.
         12    1    3    3    0    0  0.10291707456E+02  0.20613455043E+02 -0.72763300295E+01  0.24161513815E+02  0.00000000000E+00 0. -1.
</event>
<event>
 7    1  0.3196678E-013  0.7246162E+02  0.7816164E-02  0.1226708E+00
        -11   -1    0    0    0    0  0.00000000000E+00  0.00000000000E+00  0.45593999997E+02  0.45594000000E+02  0.51100000000E-03 0.  1.
         11   -1    0    0    0    0 -0.00000000000E+00 -0.00000000000E+00 -0.45593999997E+02  0.45594000000E+02  0.51100000000E-03 0. -1.
    9900012    2    1    2    0    0  0.15213286785E+02  0.58413480735E+01  0.92256006262E+01  0.72461624242E+02  0.70000070276E+02 0.  0.
         12    1    1    2    0    0 -0.15213286785E+02 -0.58413480735E+01 -0.92256006262E+01  0.18726375758E+02  0.00000000000E+00 0. -1.
         11    1    3    3    0    0  0.50207434480E+01  0.26576794868E+02 -0.14909369789E+02  0.30884028202E+02  0.51100000000E-03 0. -1.
        -11    1    3    3    0    0  0.50532773423E-01  0.29709459886E+01 -0.29462767182E+01  0.41844498312E+01  0.51100000000E-03 0.  1.
        -12    1    3    3    0    0  0.10142010564E+02 -0.23706392783E+02  0.27081247133E+02  0.37393146208E+02  0.00000000000E+00 0.  1.
</event>
<event>
 7    1  0.3196678E-013  0.7246158E+02  0.7816164E-02  0.1226708E+00
        -11   -1    0    0    0    0  0.00000000000E+00  0.00000000000E+00  0.45593999997E+02  0.45594000000E+02  0.51100000000E-03 0. -1.
         11   -1    0    0    0    0 -0.00000000000E+00 -0.00000000000E+00 -0.45593999997E+02  0.45594000000E+02  0.51100000000E-03 0.  1.
    9900012    2    1    2    0    0  0.13646939894E+02  0.12817737352E+02  0.38153549386E+00  0.72461576726E+02  0.70000008378E+02 0.  0.
         12    1    1    2    0    0 -0.13646939894E+02 -0.12817737352E+02 -0.38153549386E+00  0.18726423274E+02  0.00000000000E+00 0. -1.
         11    1    3    3    0    0  0.37484823412E+01  0.59804462528E+01 -0.19893211109E+02  0.21108214177E+02  0.51100000000E-03 0.  1.
        -11    1    3    3    0    0  0.73970748272E+01 -0.19276146727E+02  0.60650855148E+01  0.21519103402E+02  0.51100000000E-03 0. -1.
         12    1    3    3    0    0  0.25013827258E+01  0.26113437827E+02  0.14209661088E+02  0.29834259148E+02  0.00000000000E+00 0. -1.
</event>
<event>
 7    1  0.3196678E-013  0.7246159E+02  0.7816164E-02  0.1226708E+00
        -11   -1    0    0    0    0  0.00000000000E+00  0.00000000000E+00  0.45593999997E+02  0.45594000000E+02  0.51100000000E-03 0. -1.
         11   -1    0    0    0    0 -0.00000000000E+00 -0.00000000000E+00 -0.45593999997E+02  0.45594000000E+02  0.51100000000E-03 0.  1.
    9900012    2    1    2    0    0  0.14059085984E+02 -0.11414242568E+02 -0.47681993637E+01  0.72461586642E+02  0.70000021295E+02 0.  0.
         12    1    1    2    0    0 -0.14059085984E+02  0.11414242568E+02  0.47681993637E+01  0.18726413358E+02  0.00000000000E+00 0. -1.
         11    1    3    3    0    0  0.20091894629E+02 -0.24498285325E+02 -0.25432841275E+01  0.31785507830E+02  0.51100000000E-03 0. -1.
        -11    1    3    3    0    0  0.12630455934E+02  0.15670682893E+02 -0.68754008459E+01  0.21268988139E+02  0.51100000000E-03 0.  1.
         12    1    3    3    0    0 -0.18663264579E+02 -0.25866401360E+01  0.46504856096E+01  0.19407090672E+02  0.00000000000E+00 0. -1.
</event>
<event>
 7    1  0.3196678E-013  0.7246157E+02  0.7816164E-02  0.1226708E+00
        -11   -1    0    0    0    0  0.00000000000E+00  0.00000000000E+00  0.45593999997E+02  0.45594000000E+02  0.51100000000E-03 0.  1.
         11   -1    0    0    0    0 -0.00000000000E+00 -0.00000000000E+00 -0.45593999997E+02  0.45594000000E+02  0.51100000000E-03 0. -1.
    9900012    2    1    2    0    0 -0.33960507790E+01 -0.81796964859E+01  0.16499653582E+02  0.72461570447E+02  0.70000000199E+02 0.  0.
         12    1    1    2    0    0  0.33960507790E+01  0.81796964859E+01 -0.16499653582E+02  0.18726429553E+02  0.00000000000E+00 0. -1.
         11    1    3    3    0    0 -0.12558395918E+02 -0.75933441182E+00 -0.75371648238E+01  0.14666245280E+02  0.51100000000E-03 0. -1.
        -11    1    3    3    0    0  0.15114795154E+01 -0.14721137879E+02 -0.12740749832E+02  0.19527497979E+02  0.51100000000E-03 0.  1.
        -12    1    3    3    0    0  0.76508656236E+01  0.73007758049E+01  0.36777568238E+02  0.38267827187E+02  0.00000000000E+00 0.  1.
</event>
<event>
 7    1  0.3196678E-013  0.7246144E+02  0.7816164E-02  0.1226708E+00
        -11   -1    0    0    0    0  0.00000000000E+00  0.00000000000E+00  0.45593999997E+02  0.45594000000E+02  0.51100000000E-03 0. -1.
         11   -1    0    0    0    0 -0.00000000000E+00 -0.00000000000E+00 -0.45593999997E+02  0.45594000000E+02  0.51100000000E-03 0.  1.
    9900012    2    1    2    0    0  0.14898285816E+02 -0.68979375161E+00 -0.11324729553E+02  0.72461435042E+02  0.69999823808E+02 0.  0.
         12    1    1    2    0    0 -0.14898285816E+02  0.68979375161E+00  0.11324729553E+02  0.18726564958E+02  0.00000000000E+00 0. -1.
         11    1    3    3    0    0  0.18507071412E+02 -0.95813189308E+01  0.96719076325E+01  0.22975185793E+02  0.51100000000E-03 0. -1.
        -11    1    3    3    0    0  0.17574616169E+02 -0.59986883703E+01 -0.57608934825E+01  0.19443232489E+02  0.51100000000E-03 0.  1.
        -12    1    3    3    0    0 -0.21183401764E+02  0.14890213549E+02 -0.15235743703E+02  0.30043016760E+02  0.00000000000E+00 0.  1.
</event>
<event>
 7    1  0.3196678E-013  0.7246160E+02  0.7816164E-02  0.1226708E+00
        -11   -1    0    0    0    0  0.00000000000E+00  0.00000000000E+00  0.45593999997E+02  0.45594000000E+02  0.51100000000E-03 0.  1.
         11   -1    0    0    0    0 -0.00000000000E+00 -0.00000000000E+00 -0.45593999997E+02  0.45594000000E+02  0.51100000000E-03 0. -1.
    9900012    2    1    2    0    0  0.33706239321E-01  0.18104457585E+02  0.47859547396E+01  0.72461604636E+02  0.70000044737E+02 0.  0.
         12    1    1    2    0    0 -0.33706239321E-01 -0.18104457585E+02 -0.47859547396E+01  0.18726395364E+02  0.00000000000E+00 0. -1.
         11    1    3    3    0    0  0.10919006204E+02 -0.17344050337E+02  0.90491188485E+01  0.22403734750E+02  0.51100000000E-03 0. -1.
        -11    1    3    3    0    0 -0.97847524326E+01 -0.16962189987E+01  0.58754529019E+01  0.11538608500E+02  0.51100000000E-03 0.  1.
         12    1    3    3    0    0 -0.11005475317E+01  0.37144726920E+02 -0.10138617011E+02  0.38519261386E+02  0.00000000000E+00 0. -1.
</event>
<event>
 7    1  0.4049318E-013  0.7246157E+02  0.7816164E-02  0.1226708E+00
        -11   -1    0    0    0    0  0.00000000000E+00  0.00000000000E+00  0.45593999997E+02  0.45594000000E+02  0.51100000000E-03 0.  1.
         11   -1    0    0    0    0 -0.00000000000E+00 -0.00000000000E+00 -0.45593999997E+02  0.45594000000E+02  0.51100000000E-03 0. -1.
    9900012    2    1    2    0    0  0.77330592555E+01  0.16502544090E+02  0.43064046879E+01  0.72461567125E+02  0.69999995872E+02 0.  0.
         12    1    1    2    0    0 -0.77330592555E+01 -0.16502544090E+02 -0.43064046879E+01  0.18726432875E+02  0.00000000000E+00 0. -1.
         11    1    3    3    0    0 -0.38784785268E+01  0.80757488467E+01  0.10813531704E+02  0.14042534788E+02  0.51100000000E-03 0. -1.
        -11    1    3    3    0    0  0.47115741266E+01  0.10524803380E+02  0.24237023756E+02  0.26840337885E+02  0.51100000000E-03 0.  1.
         12    1    3    3    0    0  0.68999636557E+01 -0.20980081366E+01 -0.30744150772E+02  0.31578694452E+02  0.00000000000E+00 0. -1.
</event>
<event>
 7    1  0.3196678E-013  0.7246165E+02  0.7816164E-02  0.1226708E+00
        -11   -1    0    0    0    0  0.00000000000E+00  0.00000000000E+00  0.45593999997E+02  0.45594000000E+02  0.51100000000E-03 0. -1.
         11   -1    0    0    0    0 -0.00000000000E+00 -0.00000000000E+00 -0.45593999997E+02  0.45594000000E+02  0.51100000000E-03 0.  1.
    9900012    2    1    2    0    0  0.73751490610E+01 -0.11913357760E+02 -0.12423979848E+02  0.72461649794E+02  0.70000103563E+02 0.  0.
         12    1    1    2    0    0 -0.73751490610E+01  0.11913357760E+02  0.12423979848E+02  0.18726350206E+02  0.00000000000E+00 0. -1.
         11    1    3    3    0    0 -0.38940798259E+01  0.27512691895E+01  0.22634094608E+02  0.23130836103E+02  0.51100000000E-03 0. -1.
        -11    1    3    3    0    0  0.14731288551E+02  0.30376433250E+01 -0.86519344104E+01  0.17352063527E+02  0.51100000000E-03 0.  1.
        -12    1    3    3    0    0 -0.34620596636E+01 -0.17702270275E+02 -0.26406140045E+02  0.31978750164E+02  0.00000000000E+00 0.  1.
</event>
<event>
 7    1  0.3196678E-013  0.7246157E+02  0.7816164E-02  0.1226708E+00
        -11   -1    0    0    0    0  0.00000000000E+00  0.00000000000E+00  0.45593999997E+02  0.45594000000E+02  0.51100000000E-03 0. -1.
         11   -1    0    0    0    0 -0.00000000000E+00 -0.00000000000E+00 -0.45593999997E+02  0.45594000000E+02  0.51100000000E-03 0.  1.
    9900012    2    1    2    0    0 -0.16889719027E+02  0.30129603540E+01 -0.75059034541E+01  0.72461571468E+02  0.70000001529E+02 0.  0.
         12    1    1    2    0    0  0.16889719027E+02 -0.30129603540E+01  0.75059034541E+01  0.18726428532E+02  0.00000000000E+00 0. -1.
         11    1    3    3    0    0 -0.62559662209E+01  0.12461312505E+02  0.10421195988E+02  0.17407548615E+02  0.51100000000E-03 0. -1.
        -11    1    3    3    0    0 -0.19033428479E+02 -0.94696828947E+01  0.11695338722E+02  0.24263702147E+02  0.51100000000E-03 0.  1.
        -12    1    3    3    0    0  0.83996756727E+01  0.21330743959E-01 -0.29622438164E+02  0.30790320706E+02  0.00000000000E+00 0.  1.
</event>
<event>
 7    1  0.3196678E-013  0.7246163E+02  0.7816164E-02  0.1226708E+00
        -11   -1    0    0    0    0  0.00000000000E+00  0.00000000000E+00  0.45593999997E+02  0.45594000000E+02  0.51100000000E-03 0. -1.
         11   -1    0    0    0    0 -0.00000000000E+00 -0.00000000000E+00 -0.45593999997E+02  0.45594000000E+02  0.51100000000E-03 0.  1.
    9900012    2    1    2    0    0  0.78550401680E+01 -0.16886139015E+02 -0.19579932886E+01  0.72461625962E+02  0.70000072518E+02 0.  0.
         12    1    1    2    0    0 -0.78550401680E+01  0.16886139015E+02  0.19579932886E+01  0.18726374038E+02  0.00000000000E+00 0. -1.
         11    1    3    3    0    0  0.10951343048E+02  0.46284201357E+01  0.48842215306E+01  0.12853396739E+02  0.51100000000E-03 0. -1.
        -11    1    3    3    0    0  0.96116808526E+01 -0.30537200368E+01  0.21338669356E+02  0.23601873337E+02  0.51100000000E-03 0.  1.
        -12    1    3    3    0    0 -0.12707983732E+02 -0.18460839114E+02 -0.28180884175E+02  0.36006355887E+02  0.00000000000E+00 0.  1.
</event>
<event>
 7    1  0.3196678E-013  0.7246157E+02  0.7816164E-02  0.1226708E+00
        -11   -1    0    0    0    0  0.00000000000E+00  0.00000000000E+00  0.45593999997E+02  0.45594000000E+02  0.51100000000E-03 0.  1.
         11   -1    0    0    0    0 -0.00000000000E+00 -0.00000000000E+00 -0.45593999997E+02  0.45594000000E+02  0.51100000000E-03 0. -1.
    9900012    2    1    2    0    0 -0.68177735005E+01  0.57061382841E+01  0.16481417742E+02  0.72461570003E+02  0.69999999621E+02 0.  0.
         12    1    1    2    0    0  0.68177735005E+01 -0.57061382841E+01 -0.16481417742E+02  0.18726429997E+02  0.00000000000E+00 0. -1.
         11    1    3    3    0    0  0.27140213129E+02 -0.10846336623E+02  0.37139585061E+01  0.29462309395E+02  0.51100000000E-03 0. -1.
        -11    1    3    3    0    0 -0.79153898740E+01  0.69485973409E+01 -0.31608827370E+01  0.10996707771E+02  0.51100000000E-03 0.  1.
        -12    1    3    3    0    0 -0.26042596756E+02  0.96038775663E+01  0.15928341973E+02  0.32002552837E+02  0.00000000000E+00 0.  1.
</event>
<event>
 7    1  0.3196678E-013  0.7246147E+02  0.7816164E-02  0.1226708E+00
        -11   -1    0    0    0    0  0.00000000000E+00  0.00000000000E+00  0.45593999997E+02  0.45594000000E+02  0.51100000000E-03 0.  1.
         11   -1    0    0    0    0 -0.00000000000E+00 -0.00000000000E+00 -0.45593999997E+02  0.45594000000E+02  0.51100000000E-03 0. -1.
    9900012    2    1    2    0    0 -0.77770778022E+01  0.55094861098E+01 -0.16119730319E+02  0.72461465834E+02  0.69999863920E+02 0.  0.
         12    1    1    2    0    0  0.77770778022E+01 -0.55094861098E+01  0.16119730319E+02  0.18726534166E+02  0.00000000000E+00 0. -1.
         11    1    3    3    0    0  0.64224812573E+01  0.62574456739E+00  0.82443246546E+00  0.65053447960E+01  0.51100000000E-03 0. -1.
        -11    1    3    3    0    0  0.18724757552E+02  0.15219884692E+02  0.55543488105E+01  0.24761103093E+02  0.51100000000E-03 0.  1.
        -12    1    3    3    0    0 -0.32924316611E+02 -0.10336143149E+02 -0.22498511595E+02  0.41195017945E+02  0.00000000000E+00 0.  1.
</event>
<event>
 7    1  0.3196678E-013  0.7246158E+02  0.7816164E-02  0.1226708E+00
        -11   -1    0    0    0    0  0.00000000000E+00  0.00000000000E+00  0.45593999997E+02  0.45594000000E+02  0.51100000000E-03 0.  1.
         11   -1    0    0    0    0 -0.00000000000E+00 -0.00000000000E+00 -0.45593999997E+02  0.45594000000E+02  0.51100000000E-03 0. -1.
    9900012    2    1    2    0    0 -0.15762790072E+02 -0.92268133647E+01  0.41327059721E+01  0.72461577641E+02  0.70000009570E+02 0.  0.
         12    1    1    2    0    0  0.15762790072E+02  0.92268133647E+01 -0.41327059721E+01  0.18726422359E+02  0.00000000000E+00 0. -1.
         11    1    3    3    0    0 -0.16558302417E+02  0.18240671348E+02 -0.77880958943E+01  0.25837064618E+02  0.51100000000E-03 0. -1.
        -11    1    3    3    0    0  0.18050022382E+01  0.20844751430E+01 -0.96417780091E+01  0.10028307591E+02  0.51100000000E-03 0.  1.
        -12    1    3    3    0    0 -0.10094898936E+01 -0.29551959855E+02  0.21562579876E+02  0.36596205432E+02  0.00000000000E+00 0.  1.
</event>
<event>
 7    1  0.3196678E-013  0.7246163E+02  0.7816164E-02  0.1226708E+00
        -11   -1    0    0    0    0  0.00000000000E+00  0.00000000000E+00  0.45593999997E+02  0.45594000000E+02  0.51100000000E-03 0.  1.
         11   -1    0    0    0    0 -0.00000000000E+00 -0.00000000000E+00 -0.45593999997E+02  0.45594000000E+02  0.51100000000E-03 0. -1.
    9900012    2    1    2    0    0 -0.55286668845E+01 -0.16194697882E+02  0.76054298687E+01  0.72461629276E+02  0.70000076834E+02 0.  0.
         12    1    1    2    0    0  0.55286668845E+01  0.16194697882E+02 -0.76054298687E+01  0.18726370724E+02  0.00000000000E+00 0. -1.
         11    1    3    3    0    0  0.80787260840E+01  0.56604988692E+00 -0.21851517386E+02  0.23303970476E+02  0.51100000000E-03 0. -1.
        -11    1    3    3    0    0 -0.32176106138E+01 -0.23787064346E+02  0.99891285705E+01  0.25999233414E+02  0.51100000000E-03 0.  1.
         12    1    3    3    0    0 -0.10389782355E+02  0.70263165770E+01  0.19467818684E+02  0.23158425386E+02  0.00000000000E+00 0. -1.
</event>
<event>
 7    1  0.3196678E-013  0.7246164E+02  0.7816164E-02  0.1226708E+00
        -11   -1    0    0    0    0  0.00000000000E+00  0.00000000000E+00  0.45593999997E+02  0.45594000000E+02  0.51100000000E-03 0. -1.
         11   -1    0    0    0    0 -0.00000000000E+00 -0.00000000000E+00 -0.45593999997E+02  0.45594000000E+02  0.51100000000E-03 0.  1.
    9900012    2    1    2    0    0 -0.10608147232E+02  0.65597211901E+01 -0.13968311808E+02  0.72461642518E+02  0.70000094085E+02 0.  0.
         12    1    1    2    0    0  0.10608147232E+02 -0.65597211901E+01  0.13968311808E+02  0.18726357482E+02  0.00000000000E+00 0. -1.
         11    1    3    3    0    0  0.20385657779E+02  0.27274715065E+01 -0.15113922682E+01  0.20622765351E+02  0.51100000000E-03 0. -1.
        -11    1    3    3    0    0  0.88798594121E+01  0.40732409430E+01 -0.59451940966E+01  0.11436281217E+02  0.51100000000E-03 0.  1.
        -12    1    3    3    0    0 -0.39873664422E+02 -0.24099125943E+00 -0.65117254433E+01  0.40402595950E+02  0.00000000000E+00 0.  1.
</event>
<event>
 7    1  0.3196678E-013  0.7246152E+02  0.7816164E-02  0.1226708E+00
        -11   -1    0    0    0    0  0.00000000000E+00  0.00000000000E+00  0.45593999997E+02  0.45594000000E+02  0.51100000000E-03 0.  1.
         11   -1    0    0    0    0 -0.00000000000E+00 -0.00000000000E+00 -0.45593999997E+02  0.45594000000E+02  0.51100000000E-03 0. -1.
    9900012    2    1    2    0    0  0.12621894856E+02 -0.13309229941E+02  0.37727132860E+01  0.72461516163E+02  0.69999929484E+02 0.  0.
         12    1    1    2    0    0 -0.12621894856E+02  0.13309229941E+02 -0.37727132860E+01  0.18726483837E+02  0.00000000000E+00 0. -1.
         11    1    3    3    0    0  0.12460160116E+02 -0.65062320014E+01 -0.25932010904E+02  0.29496708880E+02  0.51100000000E-03 0. -1.
        -11    1    3    3    0    0  0.11475720038E+02 -0.28415396859E+01  0.10082830632E+01  0.11865206833E+02  0.51100000000E-03 0.  1.
        -12    1    3    3    0    0 -0.11313985298E+02 -0.39614582533E+01  0.28696441127E+02  0.31099600450E+02  0.00000000000E+00 0.  1.
</event>
<event>
 7    1  0.3196678E-013  0.7246151E+02  0.7816164E-02  0.1226708E+00
        -11   -1    0    0    0    0  0.00000000000E+00  0.00000000000E+00  0.45593999997E+02  0.45594000000E+02  0.51100000000E-03 0.  1.
         11   -1    0    0    0    0 -0.00000000000E+00 -0.00000000000E+00 -0.45593999997E+02  0.45594000000E+02  0.51100000000E-03 0. -1.
    9900012    2    1    2    0    0  0.12471072113E+02  0.13655442129E+02  0.29466254820E+01  0.72461512312E+02  0.69999924467E+02 0.  0.
         12    1    1    2    0    0 -0.12471072113E+02 -0.13655442129E+02 -0.29466254820E+01  0.18726487688E+02  0.00000000000E+00 0. -1.
         11    1    3    3    0    0  0.15876799998E+02 -0.64702210687E+01 -0.24578993786E+02  0.29967707197E+02  0.51100000000E-03 0. -1.
        -11    1    3    3    0    0  0.10548481644E+02  0.90183970758E+01  0.16353145798E+02  0.21448247681E+02  0.51100000000E-03 0.  1.
        -12    1    3    3    0    0 -0.13954209529E+02  0.11107266122E+02  0.11172473469E+02  0.21045557434E+02  0.00000000000E+00 0.  1.
</event>
<event>
 7    1  0.3196678E-013  0.7246159E+02  0.7816164E-02  0.1226708E+00
        -11   -1    0    0    0    0  0.00000000000E+00  0.00000000000E+00  0.45593999997E+02  0.45594000000E+02  0.51100000000E-03 0.  1.
         11   -1    0    0    0    0 -0.00000000000E+00 -0.00000000000E+00 -0.45593999997E+02  0.45594000000E+02  0.51100000000E-03 0. -1.
    9900012    2    1    2    0    0  0.13825163552E+02 -0.72769057042E+01  0.10324234055E+02  0.72461593172E+02  0.70000029802E+02 0.  0.
         12    1    1    2    0    0 -0.13825163552E+02  0.72769057042E+01 -0.10324234055E+02  0.18726406828E+02  0.00000000000E+00 0. -1.
         11    1    3    3    0    0  0.21382477316E+01 -0.16363150276E+02  0.43115537581E+00  0.16507897672E+02  0.51100000000E-03 0. -1.
        -11    1    3    3    0    0 -0.21287062521E+02  0.23421186946E+01  0.38816914549E+01  0.21764468281E+02  0.51100000000E-03 0.  1.
        -12    1    3    3    0    0  0.32973978341E+02  0.67441258773E+01  0.60113872245E+01  0.34189227219E+02  0.00000000000E+00 0.  1.
</event>
<event>
 7    1  0.3196678E-013  0.7246156E+02  0.7816164E-02  0.1226708E+00
        -11   -1    0    0    0    0  0.00000000000E+00  0.00000000000E+00  0.45593999997E+02  0.45594000000E+02  0.51100000000E-03 0.  1.
         11   -1    0    0    0    0 -0.00000000000E+00 -0.00000000000E+00 -0.45593999997E+02  0.45594000000E+02  0.51100000000E-03 0. -1.
    9900012    2    1    2    0    0  0.24052761324E+01  0.15926929198E+02  0.95512897523E+01  0.72461559792E+02  0.69999986319E+02 0.  0.
         12    1    1    2    0    0 -0.24052761324E+01 -0.15926929198E+02 -0.95512897523E+01  0.18726440208E+02  0.00000000000E+00 0. -1.
         11    1    3    3    0    0  0.17506121322E+02 -0.15980965651E+02 -0.12156876952E+02  0.26639166735E+02  0.51100000000E-03 0. -1.
        -11    1    3    3    0    0 -0.11325288052E+02  0.19168488912E+02  0.24126044084E+01  0.22394503275E+02  0.51100000000E-03 0.  1.
        -12    1    3    3    0    0 -0.37755571376E+01  0.12739405936E+02  0.19295562296E+02  0.23427889782E+02  0.00000000000E+00 0.  1.
</event>
<event>
 7    1  0.3196678E-013  0.7246153E+02  0.7816164E-02  0.1226708E+00
        -11   -1    0    0    0    0  0.00000000000E+00  0.00000000000E+00  0.45593999997E+02  0.45594000000E+02  0.51100000000E-03 0.  1.
         11   -1    0    0    0    0 -0.00000000000E+00 -0.00000000000E+00 -0.45593999997E+02  0.45594000000E+02  0.51100000000E-03 0. -1.
    9900012    2    1    2    0    0 -0.21755410285E+01 -0.16690091365E+02  0.82090467734E+01  0.72461532702E+02  0.69999951029E+02 0.  0.
         12    1    1    2    0    0  0.21755410285E+01  0.16690091365E+02 -0.82090467734E+01  0.18726467298E+02  0.00000000000E+00 0. -1.
         11    1    3    3    0    0 -0.16043326253E+02 -0.11363379328E+02 -0.15327288179E+02  0.24928707753E+02  0.51100000000E-03 0. -1.
        -11    1    3    3    0    0  0.16587679591E+01 -0.13984163946E+02 -0.52976778903E+01  0.15045721774E+02  0.51100000000E-03 0.  1.
         12    1    3    3    0    0  0.12209017266E+02  0.86574519093E+01  0.28834012843E+02  0.32487103176E+02  0.00000000000E+00 0. -1.
</event>
<event>
 7    1  0.3196678E-013  0.7246161E+02  0.7816164E-02  0.1226708E+00
        -11   -1    0    0    0    0  0.00000000000E+00  0.00000000000E+00  0.45593999997E+02  0.45594000000E+02  0.51100000000E-03 0.  1.
         11   -1    0    0    0    0 -0.00000000000E+00 -0.00000000000E+00 -0.45593999997E+02  0.45594000000E+02  0.51100000000E-03 0. -1.
    9900012    2    1    2    0    0 -0.67588842012E+01 -0.12507350243E+02  0.12188574542E+02  0.72461610195E+02  0.70000051978E+02 0.  0.
         12    1    1    2    0    0  0.67588842012E+01  0.12507350243E+02 -0.12188574542E+02  0.18726389805E+02  0.00000000000E+00 0. -1.
         11    1    3    3    0    0 -0.18696480046E+02 -0.11002473864E+02  0.87642792059E+00  0.21711308652E+02  0.51100000000E-03 0. -1.
        -11    1    3    3    0    0  0.11260082419E+01 -0.24036413025E+02  0.88478335159E+01  0.25637886104E+02  0.51100000000E-03 0.  1.
         12    1    3    3    0    0  0.10811587602E+02  0.22531536646E+02  0.24643131055E+01  0.25112415439E+02  0.00000000000E+00 0. -1.
</event>
<event>
 7    1  0.3196678E-013  0.7246167E+02  0.7816164E-02  0.1226708E+00
        -11   -1    0    0    0    0  0.00000000000E+00  0.00000000000E+00  0.45593999997E+02  0.45594000000E+02  0.51100000000E-03 0.  1.
         11   -1    0    0    0    0 -0.00000000000E+00 -0.00000000000E+00 -0.45593999997E+02  0.45594000000E+02  0.51100000000E-03 0. -1.
    9900012    2    1    2    0    0 -0.35178336945E+01  0.18381803945E+02  0.63982761574E+00  0.72461674958E+02  0.70000136344E+02 0.  0.
         12    1    1    2    0    0  0.35178336945E+01 -0.18381803945E+02 -0.63982761574E+00  0.18726325042E+02  0.00000000000E+00 0. -1.
         11    1    3    3    0    0  0.35267866493E+01  0.13020401638E+02 -0.17366092396E+02  0.21989775994E+02  0.51100000000E-03 0. -1.
        -11    1    3    3    0    0  0.11793834282E+02  0.38900076488E+01 -0.10506193453E+02  0.16266738694E+02  0.51100000000E-03 0.  1.
        -12    1    3    3    0    0 -0.18838454626E+02  0.14713946589E+01  0.28512113465E+02  0.34205160271E+02  0.00000000000E+00 0.  1.
</event>
<event>
 7    1  0.3196678E-013  0.7246150E+02  0.7816164E-02  0.1226708E+00
        -11   -1    0    0    0    0  0.00000000000E+00  0.00000000000E+00  0.45593999997E+02  0.45594000000E+02  0.51100000000E-03 0.  1.
         11   -1    0    0    0    0 -0.00000000000E+00 -0.00000000000E+00 -0.45593999997E+02  0.45594000000E+02  0.51100000000E-03 0. -1.
    9900012    2    1    2    0    0  0.17437788983E+02  0.26817648861E+01  0.62780017142E+01  0.72461503984E+02  0.69999913618E+02 0.  0.
         12    1    1    2    0    0 -0.17437788983E+02 -0.26817648861E+01 -0.62780017142E+01  0.18726496016E+02  0.00000000000E+00 0. -1.
         11    1    3    3    0    0 -0.16405193376E+02  0.14565573014E+02  0.14489695848E+02  0.26291397319E+02  0.51100000000E-03 0. -1.
        -11    1    3    3    0    0 -0.10729681704E+01 -0.86812146995E+01 -0.67994881102E+01  0.11079160084E+02  0.51100000000E-03 0.  1.
        -12    1    3    3    0    0  0.34915950530E+02 -0.32025934285E+01 -0.14122060240E+01  0.35090946580E+02  0.00000000000E+00 0.  1.
</event>
<event>
 7    1  0.5139184E-013  0.7246161E+02  0.7816164E-02  0.1226708E+00
        -11   -1    0    0    0    0  0.00000000000E+00  0.00000000000E+00  0.45593999997E+02  0.45594000000E+02  0.51100000000E-03 0. -1.
         11   -1    0    0    0    0 -0.00000000000E+00 -0.00000000000E+00 -0.45593999997E+02  0.45594000000E+02  0.51100000000E-03 0.  1.
    9900012    2    1    2    0    0  0.16424788532E+02 -0.42892137484E+01 -0.79061261219E+01  0.72461605174E+02  0.70000045438E+02 0.  0.
         12    1    1    2    0    0 -0.16424788532E+02  0.42892137484E+01  0.79061261219E+01  0.18726394826E+02  0.00000000000E+00 0. -1.
         11    1    3    3    0    0  0.85907649529E+01 -0.67682646469E+01 -0.89772506097E+01  0.14149264206E+02  0.51100000000E-03 0. -1.
        -11    1    3    3    0    0  0.23257924073E+02  0.48032981542E+01 -0.20717951011E+02  0.31515650075E+02  0.51100000000E-03 0.  1.
         12    1    3    3    0    0 -0.15423900493E+02 -0.23242472557E+01  0.21789075498E+02  0.26796690893E+02  0.00000000000E+00 0. -1.
</event>
<event>
 7    1  0.3196678E-013  0.7246156E+02  0.7816164E-02  0.1226708E+00
        -11   -1    0    0    0    0  0.00000000000E+00  0.00000000000E+00  0.45593999997E+02  0.45594000000E+02  0.51100000000E-03 0. -1.
         11   -1    0    0    0    0 -0.00000000000E+00 -0.00000000000E+00 -0.45593999997E+02  0.45594000000E+02  0.51100000000E-03 0.  1.
    9900012    2    1    2    0    0 -0.13552611579E+02  0.10649765711E+02 -0.73204455727E+01  0.72461555765E+02  0.69999981073E+02 0.  0.
         12    1    1    2    0    0  0.13552611579E+02 -0.10649765711E+02  0.73204455727E+01  0.18726444235E+02  0.00000000000E+00 0. -1.
         11    1    3    3    0    0  0.46513772327E+01 -0.84356266735E+01  0.59461645695E+00  0.96513562015E+01  0.51100000000E-03 0. -1.
        -11    1    3    3    0    0  0.15666962171E+02 -0.74196234168E+01  0.47524059225E+01  0.17974701044E+02  0.51100000000E-03 0.  1.
        -12    1    3    3    0    0 -0.33870950983E+02  0.26505015801E+02 -0.12667467952E+02  0.44835498519E+02  0.00000000000E+00 0.  1.
</event>
<event>
 7    1  0.3196678E-013  0.7246157E+02  0.7816164E-02  0.1226708E+00
        -11   -1    0    0    0    0  0.00000000000E+00  0.00000000000E+00  0.45593999997E+02  0.45594000000E+02  0.51100000000E-03 0. -1.
         11   -1    0    0    0    0 -0.00000000000E+00 -0.00000000000E+00 -0.45593999997E+02  0.45594000000E+02  0.51100000000E-03 0.  1.
    9900012    2    1    2    0    0  0.16623140696E+01  0.40127232082E+01 -0.18215758015E+02  0.72461572800E+02  0.70000003264E+02 0.  0.
         12    1    1    2    0    0 -0.16623140696E+01 -0.40127232082E+01  0.18215758015E+02  0.18726427200E+02  0.00000000000E+00 0. -1.
         11    1    3    3    0    0  0.33288321617E+01  0.12276083828E+00  0.10782392380E+02  0.11285219514E+02  0.51100000000E-03 0. -1.
        -11    1    3    3    0    0 -0.20776024788E+02 -0.79556596759E+01  0.25969764192E+01  0.22398214519E+02  0.51100000000E-03 0.  1.
        -12    1    3    3    0    0  0.19109506696E+02  0.11845622046E+02 -0.31595126814E+02  0.38778138767E+02  0.00000000000E+00 0.  1.
</event>
<event>
 7    1  0.3196678E-013  0.7246155E+02  0.7816164E-02  0.1226708E+00
        -11   -1    0    0    0    0  0.00000000000E+00  0.00000000000E+00  0.45593999997E+02  0.45594000000E+02  0.51100000000E-03 0.  1.
         11   -1    0    0    0    0 -0.00000000000E+00 -0.00000000000E+00 -0.45593999997E+02  0.45594000000E+02  0.51100000000E-03 0. -1.
    9900012    2    1    2    0    0  0.49517185527E+01 -0.87318127526E+01  0.15808723780E+02  0.72461552976E+02  0.69999977440E+02 0.  0.
         12    1    1    2    0    0 -0.49517185527E+01  0.87318127526E+01 -0.15808723780E+02  0.18726447024E+02  0.00000000000E+00 0. -1.
         11    1    3    3    0    0 -0.26423624209E+01 -0.10006381023E+02  0.16976855836E+02  0.19882740622E+02  0.51100000000E-03 0. -1.
        -11    1    3    3    0    0  0.23437006864E+02 -0.14260007741E+02  0.79910012473E+01  0.28574415352E+02  0.51100000000E-03 0.  1.
         12    1    3    3    0    0 -0.15842925890E+02  0.15534576011E+02 -0.91591333030E+01  0.24004397002E+02  0.00000000000E+00 0. -1.
</event>
<event>
 7    1  0.3277688E-013  0.7246150E+02  0.7816164E-02  0.1226708E+00
        -11   -1    0    0    0    0  0.00000000000E+00  0.00000000000E+00  0.45593999997E+02  0.45594000000E+02  0.51100000000E-03 0.  1.
         11   -1    0    0    0    0 -0.00000000000E+00 -0.00000000000E+00 -0.45593999997E+02  0.45594000000E+02  0.51100000000E-03 0. -1.
    9900012    2    1    2    0    0 -0.17694571927E+02  0.52240652528E+01  0.32082620276E+01  0.72461503299E+02  0.69999912726E+02 0.  0.
         12    1    1    2    0    0  0.17694571927E+02 -0.52240652528E+01 -0.32082620276E+01  0.18726496701E+02  0.00000000000E+00 0. -1.
         11    1    3    3    0    0 -0.85807297007E+01 -0.64421717840E+00 -0.13649991400E+02  0.16135866987E+02  0.51100000000E-03 0. -1.
        -11    1    3    3    0    0 -0.30830936991E+02  0.81204683278E+01  0.10891474679E+02  0.33691436636E+02  0.51100000000E-03 0.  1.
         12    1    3    3    0    0  0.21717094765E+02 -0.22521858967E+01  0.59667787478E+01  0.22634199676E+02  0.00000000000E+00 0. -1.
</event>
<event>
 7    1  0.3196678E-013  0.7246157E+02  0.7816164E-02  0.1226708E+00
        -11   -1    0    0    0    0  0.00000000000E+00  0.00000000000E+00  0.45593999997E+02  0.45594000000E+02  0.51100000000E-03 0. -1.
         11   -1    0    0    0    0 -0.00000000000E+00 -0.00000000000E+00 -0.45593999997E+02  0.45594000000E+02  0.51100000000E-03 0.  1.
    9900012    2    1    2    0    0 -0.15313586412E+02  0.10141943147E+02  0.36488496335E+01  0.72461573666E+02  0.70000004392E+02 0.  0.
         12    1    1    2    0    0  0.15313586412E+02 -0.10141943147E+02 -0.36488496335E+01  0.18726426334E+02  0.00000000000E+00 0. -1.
         11    1    3    3    0    0  0.42736406795E+01 -0.16018925721E+02  0.17862658680E+02  0.24370977848E+02  0.51100000000E-03 0. -1.
        -11    1    3    3    0    0 -0.70644793539E+00  0.35067106670E+01 -0.18005368511E+02  0.18357270600E+02  0.51100000000E-03 0.  1.
        -12    1    3    3    0    0 -0.18880779156E+02  0.22654158202E+02  0.37915594652E+01  0.29733325218E+02  0.00000000000E+00 0.  1.
</event>
<event>
 7    1  0.3196678E-013  0.7246155E+02  0.7816164E-02  0.1226708E+00
        -11   -1    0    0    0    0  0.00000000000E+00  0.00000000000E+00  0.45593999997E+02  0.45594000000E+02  0.51100000000E-03 0.  1.
         11   -1    0    0    0    0 -0.00000000000E+00 -0.00000000000E+00 -0.45593999997E+02  0.45594000000E+02  0.51100000000E-03 0. -1.
    9900012    2    1    2    0    0  0.15253953555E+02 -0.10254458755E+02 -0.35837149565E+01  0.72461547151E+02  0.69999969851E+02 0.  0.
         12    1    1    2    0    0 -0.15253953555E+02  0.10254458755E+02  0.35837149565E+01  0.18726452849E+02  0.00000000000E+00 0. -1.
         11    1    3    3    0    0  0.33078426748E+02 -0.14478387735E+02 -0.13069138117E+02  0.38400630189E+02  0.51100000000E-03 0. -1.
        -11    1    3    3    0    0 -0.17716520085E+01 -0.10588485985E+02  0.45938763619E+01  0.11677263660E+02  0.51100000000E-03 0.  1.
         12    1    3    3    0    0 -0.16052821184E+02  0.14812414965E+02  0.48915467986E+01  0.22383653302E+02  0.00000000000E+00 0. -1.
</event>
<event>
 7    1  0.3196678E-013  0.7246159E+02  0.7816164E-02  0.1226708E+00
        -11   -1    0    0    0    0  0.00000000000E+00  0.00000000000E+00  0.45593999997E+02  0.45594000000E+02  0.51100000000E-03 0. -1.
         11   -1    0    0    0    0 -0.00000000000E+00 -0.00000000000E+00 -0.45593999997E+02  0.45594000000E+02  0.51100000000E-03 0.  1.
    9900012    2    1    2    0    0 -0.18640025015E+02 -0.17900714249E+01 -0.15402141874E+00  0.72461585211E+02  0.70000019431E+02 0.  0.
         12    1    1    2    0    0  0.18640025015E+02  0.17900714249E+01  0.15402141874E+00  0.18726414789E+02  0.00000000000E+00 0. -1.
         11    1    3    3    0    0 -0.31722388481E+01 -0.29315455690E+01 -0.53011061464E+01  0.68380395853E+01  0.51100000000E-03 0. -1.
        -11    1    3    3    0    0 -0.16441971807E+02 -0.28092566501E+02 -0.80544300293E+01  0.33532142384E+02  0.51100000000E-03 0.  1.
         12    1    3    3    0    0  0.97418563990E+00  0.29234040645E+02  0.13201514757E+02  0.32091403241E+02  0.00000000000E+00 0. -1.
</event>
<event>
 7    1  0.3196678E-013  0.7246147E+02  0.7816164E-02  0.1226708E+00
        -11   -1    0    0    0    0  0.00000000000E+00  0.00000000000E+00  0.45593999997E+02  0.45594000000E+02  0.51100000000E-03 0.  1.
         11   -1    0    0    0    0 -0.00000000000E+00 -0.00000000000E+00 -0.45593999997E+02  0.45594000000E+02  0.51100000000E-03 0. -1.
    9900012    2    1    2    0    0  0.10299339999E+02 -0.50056875102E+01  0.14817201422E+02  0.72461474166E+02  0.69999874774E+02 0.  0.
         12    1    1    2    0    0 -0.10299339999E+02  0.50056875102E+01 -0.14817201422E+02  0.18726525834E+02  0.00000000000E+00 0. -1.
         11    1    3    3    0    0 -0.19482738192E+02  0.12014160405E+02  0.22396982811E+02  0.32024084327E+02  0.51100000000E-03 0. -1.
        -11    1    3    3    0    0  0.16237446687E+00  0.11707581970E+01  0.37073414893E+01  0.38911979393E+01  0.51100000000E-03 0.  1.
        -12    1    3    3    0    0  0.29619703724E+02 -0.18190606112E+02 -0.11287122879E+02  0.36546191899E+02  0.00000000000E+00 0.  1.
</event>
<event>
 7    1  0.3196678E-013  0.7246148E+02  0.7816164E-02  0.1226708E+00
        -11   -1    0    0    0    0  0.00000000000E+00  0.00000000000E+00  0.45593999997E+02  0.45594000000E+02  0.51100000000E-03 0. -1.
         11   -1    0    0    0    0 -0.00000000000E+00 -0.00000000000E+00 -0.45593999997E+02  0.45594000000E+02  0.51100000000E-03 0.  1.
    9900012    2    1    2    0    0  0.10866950169E+02 -0.85795331073E+01 -0.12608861600E+02  0.72461484436E+02  0.69999888154E+02 0.  0.
         12    1    1    2    0    0 -0.10866950169E+02  0.85795331073E+01  0.12608861600E+02  0.18726515564E+02  0.00000000000E+00 0. -1.
         11    1    3    3    0    0  0.31268563548E+02 -0.22027930820E+02 -0.86355882095E+01  0.39211301771E+02  0.51100000000E-03 0. -1.
        -11    1    3    3    0    0  0.30456467436E+01  0.14920231557E+01 -0.59580723355E+01  0.68557073596E+01  0.51100000000E-03 0.  1.
        -12    1    3    3    0    0 -0.23447260123E+02  0.11956374557E+02  0.19847989455E+01  0.26394475306E+02  0.00000000000E+00 0.  1.
</event>
<event>
 7    1  0.3196678E-013  0.7246161E+02  0.7816164E-02  0.1226708E+00
        -11   -1    0    0    0    0  0.00000000000E+00  0.00000000000E+00  0.45593999997E+02  0.45594000000E+02  0.51100000000E-03 0.  1.
         11   -1    0    0    0    0 -0.00000000000E+00 -0.00000000000E+00 -0.45593999997E+02  0.45594000000E+02  0.51100000000E-03 0. -1.
    9900012    2    1    2    0    0  0.61493974406E+01  0.17676375371E+02 -0.63891120243E+00  0.72461613732E+02  0.70000056586E+02 0.  0.
         12    1    1    2    0    0 -0.61493974406E+01 -0.17676375371E+02  0.63891120243E+00  0.18726386268E+02  0.00000000000E+00 0. -1.
         11    1    3    3    0    0  0.19848969765E+02  0.91982757943E+01  0.28720657785E+00  0.21878582363E+02  0.51100000000E-03 0. -1.
        -11    1    3    3    0    0  0.66979747588E+01  0.63377920911E+01 -0.20346045830E+02  0.22338130084E+02  0.51100000000E-03 0.  1.
        -12    1    3    3    0    0 -0.20397547084E+02  0.21403074853E+01  0.19419928050E+02  0.28244901285E+02  0.00000000000E+00 0.  1.
</event>
<event>
 7    1  0.3196678E-013  0.7246148E+02  0.7816164E-02  0.1226708E+00
        -11   -1    0    0    0    0  0.00000000000E+00  0.00000000000E+00  0.45593999997E+02  0.45594000000E+02  0.51100000000E-03 0. -1.
         11   -1    0    0    0    0 -0.00000000000E+00 -0.00000000000E+00 -0.45593999997E+02  0.45594000000E+02  0.51100000000E-03 0.  1.
    9900012    2    1    2    0    0 -0.46311862275E+01 -0.11002055178E+02 -0.14428770865E+02  0.72461480497E+02  0.69999883022E+02 0.  0.
         12    1    1    2    0    0  0.46311862275E+01  0.11002055178E+02  0.14428770865E+02  0.18726519503E+02  0.00000000000E+00 0. -1.
         11    1    3    3    0    0  0.22412258045E+02 -0.20429303509E+01  0.66067027506E+01  0.23454880017E+02  0.51100000000E-03 0. -1.
        -11    1    3    3    0    0 -0.38856027120E+01  0.11918224776E+02 -0.26580076838E+01  0.12814327737E+02  0.51100000000E-03 0.  1.
         12    1    3    3    0    0 -0.23157841561E+02 -0.20877349603E+02 -0.18377465932E+02  0.36192272743E+02  0.00000000000E+00 0. -1.
</event>
<event>
 7    1  0.3196678E-013  0.7246164E+02  0.7816164E-02  0.1226708E+00
        -11   -1    0    0    0    0  0.00000000000E+00  0.00000000000E+00  0.45593999997E+02  0.45594000000E+02  0.51100000000E-03 0. -1.
         11   -1    0    0    0    0 -0.00000000000E+00 -0.00000000000E+00 -0.45593999997E+02  0.45594000000E+02  0.51100000000E-03 0.  1.
    9900012    2    1    2    0    0 -0.16959205571E+02 -0.65316356193E+01  0.45165943684E+01  0.72461640445E+02  0.70000091385E+02 0.  0.
         12    1    1    2    0    0  0.16959205571E+02  0.65316356193E+01 -0.45165943684E+01  0.18726359555E+02  0.00000000000E+00 0. -1.
         11    1    3    3    0    0 -0.19926833949E+01 -0.23088288251E+01  0.94562474554E+01  0.99358992474E+01  0.51100000000E-03 0. -1.
        -11    1    3    3    0    0 -0.33733116057E+02 -0.18514033118E+02 -0.58374039538E+01  0.38920018325E+02  0.51100000000E-03 0.  1.
         12    1    3    3    0    0  0.18766593881E+02  0.14291226324E+02  0.89775086685E+00  0.23605722873E+02  0.00000000000E+00 0. -1.
</event>
<event>
 7    1  0.3196678E-013  0.7246157E+02  0.7816164E-02  0.1226708E+00
        -11   -1    0    0    0    0  0.00000000000E+00  0.00000000000E+00  0.45593999997E+02  0.45594000000E+02  0.51100000000E-03 0. -1.
         11   -1    0    0    0    0 -0.00000000000E+00 -0.00000000000E+00 -0.45593999997E+02  0.45594000000E+02  0.51100000000E-03 0.  1.
    9900012    2    1    2    0    0  0.44287906928E+01 -0.29591018630E+01 -0.17952961345E+02  0.72461567027E+02  0.69999995743E+02 0.  0.
         12    1    1    2    0    0 -0.44287906928E+01  0.29591018630E+01  0.17952961345E+02  0.18726432973E+02  0.00000000000E+00 0. -1.
         11    1    3    3    0    0 -0.85714426862E+01  0.46283031733E+01  0.50804265876E+01  0.10986425923E+02  0.51100000000E-03 0. -1.
        -11    1    3    3    0    0 -0.10598505009E+02  0.23950437643E+00  0.13573797974E+02  0.17223056131E+02  0.51100000000E-03 0.  1.
        -12    1    3    3    0    0  0.23598738388E+02 -0.78269094127E+01 -0.36607185907E+02  0.44252084973E+02  0.00000000000E+00 0.  1.
</event>
<event>
 7    1  0.3196678E-013  0.7246156E+02  0.7816164E-02  0.1226708E+00
        -11   -1    0    0    0    0  0.00000000000E+00  0.00000000000E+00  0.45593999997E+02  0.45594000000E+02  0.51100000000E-03 0. -1.
         11   -1    0    0    0    0 -0.00000000000E+00 -0.00000000000E+00 -0.45593999997E+02  0.45594000000E+02  0.51100000000E-03 0.  1.
    9900012    2    1    2    0    0 -0.14939219169E+02 -0.25813377440E+01  0.10992539428E+02  0.72461561551E+02  0.69999988610E+02 0.  0.
         12    1    1    2    0    0  0.14939219169E+02  0.25813377440E+01 -0.10992539428E+02  0.18726438449E+02  0.00000000000E+00 0. -1.
         11    1    3    3    0    0  0.97830332317E+01 -0.56599387341E+01  0.19684684341E+02  0.22698666118E+02  0.51100000000E-03 0. -1.
        -11    1    3    3    0    0  0.31621208259E+01  0.11634288246E+02 -0.15671087438E+02  0.19772168643E+02  0.51100000000E-03 0.  1.
        -12    1    3    3    0    0 -0.27884373226E+02 -0.85556872559E+01  0.69789425245E+01  0.29990726790E+02  0.00000000000E+00 0.  1.
</event>
<event>
 7    1  0.3196678E-013  0.7246156E+02  0.7816164E-02  0.1226708E+00
        -11   -1    0    0    0    0  0.00000000000E+00  0.00000000000E+00  0.45593999997E+02  0.45594000000E+02  0.51100000000E-03 0.  1.
         11   -1    0    0    0    0 -0.00000000000E+00 -0.00000000000E+00 -0.45593999997E+02  0.45594000000E+02  0.51100000000E-03 0. -1.
    9900012    2    1    2    0    0  0.16271615543E+02 -0.48436944153E+01  0.79026963871E+01  0.72461562588E+02  0.69999989961E+02 0.  0.
         12    1    1    2    0    0 -0.16271615543E+02  0.48436944153E+01 -0.79026963871E+01  0.18726437412E+02  0.00000000000E+00 0. -1.
         11    1    3    3    0    0 -0.47824960505E+01  0.16170328053E+02  0.23152425017E+02  0.28642391001E+02  0.51100000000E-03 0. -1.
        -11    1    3    3    0    0 -0.35288113973E+01 -0.37971977066E+01  0.53250613653E+01  0.74315206456E+01  0.51100000000E-03 0.  1.
        -12    1    3    3    0    0  0.24582922990E+02 -0.17216824762E+02 -0.20574789996E+02  0.36387650941E+02  0.00000000000E+00 0.  1.
</event>
<event>
 7    1  0.3196678E-013  0.7246150E+02  0.7816164E-02  0.1226708E+00
        -11   -1    0    0    0    0  0.00000000000E+00  0.00000000000E+00  0.45593999997E+02  0.45594000000E+02  0.51100000000E-03 0.  1.
         11   -1    0    0    0    0 -0.00000000000E+00 -0.00000000000E+00 -0.45593999997E+02  0.45594000000E+02  0.51100000000E-03 0. -1.
    9900012    2    1    2    0    0 -0.75500210548E+01 -0.17131911030E+02 -0.42015831364E+00  0.72461502023E+02  0.69999911064E+02 0.  0.
         12    1    1    2    0    0  0.75500210548E+01  0.17131911030E+02  0.42015831364E+00  0.18726497977E+02  0.00000000000E+00 0. -1.
         11    1    3    3    0    0  0.49902924273E+01 -0.67652445205E+01 -0.21029719777E+02  0.22647751899E+02  0.51100000000E-03 0. -1.
        -11    1    3    3    0    0 -0.25109036096E+02  0.18093992410E+01  0.36369565073E+01  0.25435508098E+02  0.51100000000E-03 0.  1.
        -12    1    3    3    0    0  0.12568722614E+02 -0.12176065751E+02  0.16972604956E+02  0.24378242026E+02  0.00000000000E+00 0.  1.
</event>
<event>
 7    1  0.3196678E-013  0.7246148E+02  0.7816164E-02  0.1226708E+00
        -11   -1    0    0    0    0  0.00000000000E+00  0.00000000000E+00  0.45593999997E+02  0.45594000000E+02  0.51100000000E-03 0. -1.
         11   -1    0    0    0    0 -0.00000000000E+00 -0.00000000000E+00 -0.45593999997E+02  0.45594000000E+02  0.51100000000E-03 0.  1.
    9900012    2    1    2    0    0  0.25014367938E+01 -0.17775141530E+02 -0.53357069882E+01  0.72461478392E+02  0.69999880281E+02 0.  0.
         12    1    1    2    0    0 -0.25014367938E+01  0.17775141530E+02  0.53357069882E+01  0.18726521608E+02  0.00000000000E+00 0. -1.
         11    1    3    3    0    0 -0.72143985364E+01 -0.20329012930E+02 -0.11200454291E+02  0.24305688419E+02  0.51100000000E-03 0. -1.
        -11    1    3    3    0    0  0.19763905905E+02 -0.16229401390E+02  0.78764951511E+01  0.26759010113E+02  0.51100000000E-03 0.  1.
         12    1    3    3    0    0 -0.10048070575E+02  0.18783272790E+02 -0.20117478487E+01  0.21396779860E+02  0.00000000000E+00 0. -1.
</event>
<event>
 7    1  0.3196678E-013  0.7246155E+02  0.7816164E-02  0.1226708E+00
        -11   -1    0    0    0    0  0.00000000000E+00  0.00000000000E+00  0.45593999997E+02  0.45594000000E+02  0.51100000000E-03 0.  1.
         11   -1    0    0    0    0 -0.00000000000E+00 -0.00000000000E+00 -0.45593999997E+02  0.45594000000E+02  0.51100000000E-03 0. -1.
    9900012    2    1    2    0    0  0.89274091875E+01  0.33305580543E+01  0.16121059602E+02  0.72461553075E+02  0.69999977569E+02 0.  0.
         12    1    1    2    0    0 -0.89274091875E+01 -0.33305580543E+01 -0.16121059602E+02  0.18726446925E+02  0.00000000000E+00 0. -1.
         11    1    3    3    0    0  0.88932483980E+01  0.20646064292E+02  0.90311880665E+01  0.24226270781E+02  0.51100000000E-03 0. -1.
        -11    1    3    3    0    0 -0.10580032532E+01 -0.82143715063E+01  0.25964013894E+02  0.27252986770E+02  0.51100000000E-03 0.  1.
         12    1    3    3    0    0  0.10921640427E+01 -0.91011347309E+01 -0.18874142359E+02  0.20982295524E+02  0.00000000000E+00 0. -1.
</event>
<event>
 7    1  0.3196678E-013  0.7246163E+02  0.7816164E-02  0.1226708E+00
        -11   -1    0    0    0    0  0.00000000000E+00  0.00000000000E+00  0.45593999997E+02  0.45594000000E+02  0.51100000000E-03 0.  1.
         11   -1    0    0    0    0 -0.00000000000E+00 -0.00000000000E+00 -0.45593999997E+02  0.45594000000E+02  0.51100000000E-03 0. -1.
    9900012    2    1    2    0    0  0.20802635460E+01  0.12720893819E+02  0.13584124176E+02  0.72461626470E+02  0.70000073179E+02 0.  0.
         12    1    1    2    0    0 -0.20802635460E+01 -0.12720893819E+02 -0.13584124176E+02  0.18726373530E+02  0.00000000000E+00 0. -1.
         11    1    3    3    0    0  0.12019224277E+02 -0.10322792609E+02 -0.22950110887E+00  0.15845329611E+02  0.51100000000E-03 0. -1.
        -11    1    3    3    0    0  0.85730521025E+01  0.14376831374E+02 -0.14191431297E+02  0.21945095699E+02  0.51100000000E-03 0.  1.
        -12    1    3    3    0    0 -0.18512012833E+02  0.86668550539E+01  0.28005056582E+02  0.34671201159E+02  0.00000000000E+00 0.  1.
</event>
<event>
 7    1  0.3196678E-013  0.7246150E+02  0.7816164E-02  0.1226708E+00
        -11   -1    0    0    0    0  0.00000000000E+00  0.00000000000E+00  0.45593999997E+02  0.45594000000E+02  0.51100000000E-03 0. -1.
         11   -1    0    0    0    0 -0.00000000000E+00 -0.00000000000E+00 -0.45593999997E+02  0.45594000000E+02  0.51100000000E-03 0.  1.
    9900012    2    1    2    0    0 -0.62594706902E+01 -0.42487784095E+01 -0.17130343397E+02  0.72461501230E+02  0.69999910030E+02 0.  0.
         12    1    1    2    0    0  0.62594706902E+01  0.42487784095E+01  0.17130343397E+02  0.18726498770E+02  0.00000000000E+00 0. -1.
         11    1    3    3    0    0  0.11529043116E+02  0.12924064064E+01 -0.74485304836E+01  0.13786578840E+02  0.51100000000E-03 0. -1.
        -11    1    3    3    0    0  0.11858330003E+02  0.13095104319E+02 -0.15100154377E+02  0.23240404688E+02  0.51100000000E-03 0.  1.
         12    1    3    3    0    0 -0.29646843809E+02 -0.18636289135E+02  0.54183414634E+01  0.35434517702E+02  0.00000000000E+00 0. -1.
</event>
<event>
 7    1  0.3196678E-013  0.7246157E+02  0.7816164E-02  0.1226708E+00
        -11   -1    0    0    0    0  0.00000000000E+00  0.00000000000E+00  0.45593999997E+02  0.45594000000E+02  0.51100000000E-03 0. -1.
         11   -1    0    0    0    0 -0.00000000000E+00 -0.00000000000E+00 -0.45593999997E+02  0.45594000000E+02  0.51100000000E-03 0.  1.
    9900012    2    1    2    0    0 -0.65533075704E+01 -0.24770372102E+01 -0.17366564956E+02  0.72461571301E+02  0.70000001311E+02 0.  0.
         12    1    1    2    0    0  0.65533075704E+01  0.24770372102E+01  0.17366564956E+02  0.18726428699E+02  0.00000000000E+00 0. -1.
         11    1    3    3    0    0 -0.10902528771E+02 -0.72737550089E+01  0.93817985550E+01  0.16118026862E+02  0.51100000000E-03 0. -1.
        -11    1    3    3    0    0 -0.22250194172E+02  0.56728399315E+01 -0.11729158578E+02  0.25784208632E+02  0.51100000000E-03 0.  1.
        -12    1    3    3    0    0  0.26599415372E+02 -0.87612213277E+00 -0.15019204933E+02  0.30559335807E+02  0.00000000000E+00 0.  1.
</event>
<event>
 7    1  0.3196678E-013  0.7246158E+02  0.7816164E-02  0.1226708E+00
        -11   -1    0    0    0    0  0.00000000000E+00  0.00000000000E+00  0.45593999997E+02  0.45594000000E+02  0.51100000000E-03 0. -1.
         11   -1    0    0    0    0 -0.00000000000E+00 -0.00000000000E+00 -0.45593999997E+02  0.45594000000E+02  0.51100000000E-03 0.  1.
    9900012    2    1    2    0    0 -0.41116947396E+01  0.15857684794E+02 -0.90722923356E+01  0.72461583128E+02  0.70000016718E+02 0.  0.
         12    1    1    2    0    0  0.41116947396E+01 -0.15857684794E+02  0.90722923356E+01  0.18726416872E+02  0.00000000000E+00 0. -1.
         11    1    3    3    0    0  0.18454138114E+02  0.18615238965E-01  0.59349155308E+01  0.19385014384E+02  0.51100000000E-03 0. -1.
        -11    1    3    3    0    0 -0.24224501970E+01 -0.13840697638E+02  0.35487892197E+00  0.14055572396E+02  0.51100000000E-03 0.  1.
        -12    1    3    3    0    0 -0.20143382657E+02  0.29679767193E+02 -0.15362086788E+02  0.39020996348E+02  0.00000000000E+00 0.  1.
</event>
<event>
 7    1  0.3196678E-013  0.7246162E+02  0.7816164E-02  0.1226708E+00
        -11   -1    0    0    0    0  0.00000000000E+00  0.00000000000E+00  0.45593999997E+02  0.45594000000E+02  0.51100000000E-03 0. -1.
         11   -1    0    0    0    0 -0.00000000000E+00 -0.00000000000E+00 -0.45593999997E+02  0.45594000000E+02  0.51100000000E-03 0.  1.
    9900012    2    1    2    0    0 -0.11404954997E+02 -0.97900375322E+01 -0.11169575249E+02  0.72461621690E+02  0.70000066952E+02 0.  0.
         12    1    1    2    0    0  0.11404954997E+02  0.97900375322E+01  0.11169575249E+02  0.18726378310E+02  0.00000000000E+00 0. -1.
         11    1    3    3    0    0  0.17905605318E+02 -0.60195411616E+01 -0.12956294901E+02  0.22906574502E+02  0.51100000000E-03 0. -1.
        -11    1    3    3    0    0  0.21988254046E+01  0.53436381106E+01 -0.12505150751E+02  0.13775634177E+02  0.51100000000E-03 0.  1.
         12    1    3    3    0    0 -0.31509385720E+02 -0.91141344812E+01  0.14291870403E+02  0.35779413011E+02  0.00000000000E+00 0. -1.
</event>
<event>
 7    1  0.3196678E-013  0.7246157E+02  0.7816164E-02  0.1226708E+00
        -11   -1    0    0    0    0  0.00000000000E+00  0.00000000000E+00  0.45593999997E+02  0.45594000000E+02  0.51100000000E-03 0. -1.
         11   -1    0    0    0    0 -0.00000000000E+00 -0.00000000000E+00 -0.45593999997E+02  0.45594000000E+02  0.51100000000E-03 0.  1.
    9900012    2    1    2    0    0  0.43618870368E+01 -0.28315395377E+01 -0.17989872020E+02  0.72461570282E+02  0.69999999984E+02 0.  0.
         12    1    1    2    0    0 -0.43618870368E+01  0.28315395377E+01  0.17989872020E+02  0.18726429718E+02  0.00000000000E+00 0. -1.
         11    1    3    3    0    0 -0.19846044300E+02  0.55152008053E+01  0.80630816529E+01  0.22120040693E+02  0.51100000000E-03 0. -1.
        -11    1    3    3    0    0 -0.80814263326E+01  0.21048502752E+01 -0.15794765929E+01  0.84990936469E+01  0.51100000000E-03 0.  1.
        -12    1    3    3    0    0  0.32289357669E+02 -0.10451590618E+02 -0.24473477080E+02  0.41842435942E+02  0.00000000000E+00 0.  1.
</event>
<event>
 7    1  0.3196678E-013  0.7246157E+02  0.7816164E-02  0.1226708E+00
        -11   -1    0    0    0    0  0.00000000000E+00  0.00000000000E+00  0.45593999997E+02  0.45594000000E+02  0.51100000000E-03 0.  1.
         11   -1    0    0    0    0 -0.00000000000E+00 -0.00000000000E+00 -0.45593999997E+02  0.45594000000E+02  0.51100000000E-03 0. -1.
    9900012    2    1    2    0    0 -0.15402574784E+02 -0.58804599295E+01  0.88803262181E+01  0.72461566472E+02  0.69999995020E+02 0.  0.
         12    1    1    2    0    0  0.15402574784E+02  0.58804599295E+01 -0.88803262181E+01  0.18726433528E+02  0.00000000000E+00 0. -1.
         11    1    3    3    0    0 -0.34331455885E+02 -0.25536996273E+01  0.14235625685E+02  0.37253500290E+02  0.51100000000E-03 0. -1.
        -11    1    3    3    0    0 -0.50366194876E+00  0.20609850763E+01  0.97717072993E+01  0.99993799132E+01  0.51100000000E-03 0.  1.
         12    1    3    3    0    0  0.19432543050E+02 -0.53877453785E+01 -0.15127006766E+02  0.25208686268E+02  0.00000000000E+00 0. -1.
</event>
<event>
 7    1  0.3196678E-013  0.7246157E+02  0.7816164E-02  0.1226708E+00
        -11   -1    0    0    0    0  0.00000000000E+00  0.00000000000E+00  0.45593999997E+02  0.45594000000E+02  0.51100000000E-03 0.  1.
         11   -1    0    0    0    0 -0.00000000000E+00 -0.00000000000E+00 -0.45593999997E+02  0.45594000000E+02  0.51100000000E-03 0. -1.
    9900012    2    1    2    0    0 -0.15157869580E+02 -0.18417817422E+01  0.10840941597E+02  0.72461569884E+02  0.69999999466E+02 0.  0.
         12    1    1    2    0    0  0.15157869580E+02  0.18417817422E+01 -0.10840941597E+02  0.18726430116E+02  0.00000000000E+00 0. -1.
         11    1    3    3    0    0 -0.15864080720E+02  0.10559788987E+02 -0.14816014287E+02  0.24139024010E+02  0.51100000000E-03 0. -1.
        -11    1    3    3    0    0 -0.12610661673E+02  0.66290666591E+01  0.19756465343E+02  0.24357570398E+02  0.51100000000E-03 0.  1.
        -12    1    3    3    0    0  0.13316872813E+02 -0.19030637389E+02  0.59004905406E+01  0.23964975476E+02  0.00000000000E+00 0.  1.
</event>
<event>
 7    1  0.3196678E-013  0.7246157E+02  0.7816164E-02  0.1226708E+00
        -11   -1    0    0    0    0  0.00000000000E+00  0.00000000000E+00  0.45593999997E+02  0.45594000000E+02  0.51100000000E-03 0.  1.
         11   -1    0    0    0    0 -0.00000000000E+00 -0.00000000000E+00 -0.45593999997E+02  0.45594000000E+02  0.51100000000E-03 0. -1.
    9900012    2    1    2    0    0  0.36531258558E+01 -0.10585288207E+02  0.15009517464E+02  0.72461567626E+02  0.69999996524E+02 0.  0.
         12    1    1    2    0    0 -0.36531258558E+01  0.10585288207E+02 -0.15009517464E+02  0.18726432374E+02  0.00000000000E+00 0. -1.
         11    1    3    3    0    0 -0.97640545962E+01 -0.35099860250E+01 -0.15781964956E+01  0.10495116412E+02  0.51100000000E-03 0. -1.
        -11    1    3    3    0    0 -0.21920632818E+02 -0.98425999521E+01  0.93811068848E+01  0.25795272505E+02  0.51100000000E-03 0.  1.
        -12    1    3    3    0    0  0.35337813270E+02  0.27672977697E+01  0.72066070748E+01  0.36171178709E+02  0.00000000000E+00 0.  1.
</event>
<event>
 7    1  0.3196678E-013  0.7246155E+02  0.7816164E-02  0.1226708E+00
        -11   -1    0    0    0    0  0.00000000000E+00  0.00000000000E+00  0.45593999997E+02  0.45594000000E+02  0.51100000000E-03 0.  1.
         11   -1    0    0    0    0 -0.00000000000E+00 -0.00000000000E+00 -0.45593999997E+02  0.45594000000E+02  0.51100000000E-03 0. -1.
    9900012    2    1    2    0    0  0.43062831552E+01  0.13937924238E+02  0.11741805143E+02  0.72461553603E+02  0.69999978256E+02 0.  0.
         12    1    1    2    0    0 -0.43062831552E+01 -0.13937924238E+02 -0.11741805143E+02  0.18726446397E+02  0.00000000000E+00 0. -1.
         11    1    3    3    0    0  0.17063117908E+02 -0.64193326449E+01  0.11689149615E+02  0.21656270301E+02  0.51100000000E-03 0. -1.
        -11    1    3    3    0    0 -0.11154012147E+02  0.78695732610E+01  0.21773848499E+02  0.25699078758E+02  0.51100000000E-03 0.  1.
        -12    1    3    3    0    0 -0.16028226062E+01  0.12487683621E+02 -0.21721192971E+02  0.25106204544E+02  0.00000000000E+00 0.  1.
</event>
<event>
 7    1  0.3196678E-013  0.7246159E+02  0.7816164E-02  0.1226708E+00
        -11   -1    0    0    0    0  0.00000000000E+00  0.00000000000E+00  0.45593999997E+02  0.45594000000E+02  0.51100000000E-03 0.  1.
         11   -1    0    0    0    0 -0.00000000000E+00 -0.00000000000E+00 -0.45593999997E+02  0.45594000000E+02  0.51100000000E-03 0. -1.
    9900012    2    1    2    0    0 -0.73311782711E+00 -0.29136562071E+01  0.18483823776E+02  0.72461585617E+02  0.70000019961E+02 0.  0.
         12    1    1    2    0    0  0.73311782711E+00  0.29136562071E+01 -0.18483823776E+02  0.18726414383E+02  0.00000000000E+00 0. -1.
         11    1    3    3    0    0 -0.96531760720E+01  0.71001594220E+01 -0.12224577930E+01  0.12045350780E+02  0.51100000000E-03 0. -1.
        -11    1    3    3    0    0 -0.14981077996E+02  0.15419910714E+02  0.29499348557E+01  0.21700425347E+02  0.51100000000E-03 0.  1.
         12    1    3    3    0    0  0.23901136241E+02 -0.25433726343E+02  0.16756346714E+02  0.38715809490E+02  0.00000000000E+00 0. -1.
</event>
<event>
 7    1  0.3196678E-013  0.7246158E+02  0.7816164E-02  0.1226708E+00
        -11   -1    0    0    0    0  0.00000000000E+00  0.00000000000E+00  0.45593999997E+02  0.45594000000E+02  0.51100000000E-03 0.  1.
         11   -1    0    0    0    0 -0.00000000000E+00 -0.00000000000E+00 -0.45593999997E+02  0.45594000000E+02  0.51100000000E-03 0. -1.
    9900012    2    1    2    0    0  0.85566723213E+01 -0.10783432739E+02  0.12695662225E+02  0.72461577432E+02  0.70000009298E+02 0.  0.
         12    1    1    2    0    0 -0.85566723213E+01  0.10783432739E+02 -0.12695662225E+02  0.18726422568E+02  0.00000000000E+00 0. -1.
         11    1    3    3    0    0 -0.14169198280E+02 -0.12814504410E+02 -0.39331573613E+01  0.19505061657E+02  0.51100000000E-03 0. -1.
        -11    1    3    3    0    0 -0.13724630536E+02  0.16649144665E+01  0.46658097108E+01  0.14591340036E+02  0.51100000000E-03 0.  1.
        -12    1    3    3    0    0  0.36450501137E+02  0.36615720397E+00  0.11963009876E+02  0.38365175739E+02  0.00000000000E+00 0.  1.
</event>
<event>
 7    1  0.3196678E-013  0.7246157E+02  0.7816164E-02  0.1226708E+00
        -11   -1    0    0    0    0  0.00000000000E+00  0.00000000000E+00  0.45593999997E+02  0.45594000000E+02  0.51100000000E-03 0. -1.
         11   -1    0    0    0    0 -0.00000000000E+00 -0.00000000000E+00 -0.45593999997E+02  0.45594000000E+02  0.51100000000E-03 0.  1.
    9900012    2    1    2    0    0 -0.70079553457E+01  0.17267005513E+02  0.18488874724E+01  0.72461566747E+02  0.69999995379E+02 0.  0.
         12    1    1    2    0    0  0.70079553457E+01 -0.17267005513E+02 -0.18488874724E+01  0.18726433253E+02  0.00000000000E+00 0. -1.
         11    1    3    3    0    0  0.81024482610E+01  0.33106511019E+02  0.70984938457E+01  0.34814930056E+02  0.51100000000E-03 0. -1.
        -11    1    3    3    0    0 -0.16816185583E+02  0.26168523075E+01 -0.81783336732E+01  0.18881661884E+02  0.51100000000E-03 0.  1.
        -12    1    3    3    0    0  0.17057819762E+01 -0.18456357814E+02  0.29287272999E+01  0.18764974807E+02  0.00000000000E+00 0.  1.
</event>
<event>
 7    1  0.3196678E-013  0.7246160E+02  0.7816164E-02  0.1226708E+00
        -11   -1    0    0    0    0  0.00000000000E+00  0.00000000000E+00  0.45593999997E+02  0.45594000000E+02  0.51100000000E-03 0. -1.
         11   -1    0    0    0    0 -0.00000000000E+00 -0.00000000000E+00 -0.45593999997E+02  0.45594000000E+02  0.51100000000E-03 0.  1.
    9900012    2    1    2    0    0 -0.17771871129E+02 -0.58841233261E+01  0.46459804852E+00  0.72461597193E+02  0.70000035040E+02 0.  0.
         12    1    1    2    0    0  0.17771871129E+02  0.58841233261E+01 -0.46459804852E+00  0.18726402807E+02  0.00000000000E+00 0. -1.
         11    1    3    3    0    0 -0.32966351297E+01  0.76556540126E+01  0.28256883121E+02  0.29460622626E+02  0.51100000000E-03 0. -1.
        -11    1    3    3    0    0 -0.51605863234E+01 -0.43160615395E+01  0.45374516473E+01  0.81147092448E+01  0.51100000000E-03 0.  1.
        -12    1    3    3    0    0 -0.93146496760E+01 -0.92237157993E+01 -0.32329736720E+02  0.34886265322E+02  0.00000000000E+00 0.  1.
</event>
<event>
 7    1  0.3196678E-013  0.7246163E+02  0.7816164E-02  0.1226708E+00
        -11   -1    0    0    0    0  0.00000000000E+00  0.00000000000E+00  0.45593999997E+02  0.45594000000E+02  0.51100000000E-03 0.  1.
         11   -1    0    0    0    0 -0.00000000000E+00 -0.00000000000E+00 -0.45593999997E+02  0.45594000000E+02  0.51100000000E-03 0. -1.
    9900012    2    1    2    0    0 -0.80785818975E+00 -0.12292403847E+02  0.14103937137E+02  0.72461631693E+02  0.70000079984E+02 0.  0.
         12    1    1    2    0    0  0.80785818975E+00  0.12292403847E+02 -0.14103937137E+02  0.18726368307E+02  0.00000000000E+00 0. -1.
         11    1    3    3    0    0 -0.68402323876E+00  0.12417714338E+02 -0.93991254775E+00  0.12472006777E+02  0.51100000000E-03 0. -1.
        -11    1    3    3    0    0 -0.20179727442E+02  0.50144239351E+01  0.11988358926E+02  0.24001804038E+02  0.51100000000E-03 0.  1.
        -12    1    3    3    0    0  0.20055892491E+02 -0.29724542120E+02  0.30554907583E+01  0.35987820879E+02  0.00000000000E+00 0.  1.
</event>
<event>
 7    1  0.3196678E-013  0.7246216E+02  0.7816164E-02  0.1226706E+00
        -11   -1    0    0    0    0  0.00000000000E+00  0.00000000000E+00  0.45593999997E+02  0.45594000000E+02  0.51100000000E-03 0. -1.
         11   -1    0    0    0    0 -0.00000000000E+00 -0.00000000000E+00 -0.45593999997E+02  0.45594000000E+02  0.51100000000E-03 0.  1.
    9900012    2    1    2    0    0 -0.13739537726E+02 -0.22195308368E+01 -0.12528205120E+02  0.72462158562E+02  0.70000766323E+02 0.  0.
         12    1    1    2    0    0  0.13739537726E+02  0.22195308368E+01  0.12528205120E+02  0.18725841438E+02  0.00000000000E+00 0. -1.
         11    1    3    3    0    0  0.16236350564E+02 -0.23639952483E+02 -0.17398061772E+02  0.33543389613E+02  0.51100000000E-03 0. -1.
        -11    1    3    3    0    0 -0.39275408674E+01 -0.12271508820E+00 -0.20242272595E+01  0.44201959818E+01  0.51100000000E-03 0.  1.
        -12    1    3    3    0    0 -0.26048347422E+02  0.21543136734E+02  0.68940839113E+01  0.34498572967E+02  0.00000000000E+00 0.  1.
</event>
<event>
 7    1  0.3196678E-013  0.7246156E+02  0.7816164E-02  0.1226708E+00
        -11   -1    0    0    0    0  0.00000000000E+00  0.00000000000E+00  0.45593999997E+02  0.45594000000E+02  0.51100000000E-03 0.  1.
         11   -1    0    0    0    0 -0.00000000000E+00 -0.00000000000E+00 -0.45593999997E+02  0.45594000000E+02  0.51100000000E-03 0. -1.
    9900012    2    1    2    0    0 -0.42592213658E+01  0.45559621251E+01  0.17657341471E+02  0.72461562396E+02  0.69999989710E+02 0.  0.
         12    1    1    2    0    0  0.42592213658E+01 -0.45559621251E+01 -0.17657341471E+02  0.18726437604E+02  0.00000000000E+00 0. -1.
         11    1    3    3    0    0 -0.69714345411E+01  0.60659518490E+00  0.27358263434E+02  0.28239040983E+02  0.51100000000E-03 0. -1.
        -11    1    3    3    0    0 -0.66820952958E+01 -0.65766659527E+01  0.13876090479E+02  0.16746606218E+02  0.51100000000E-03 0.  1.
         12    1    3    3    0    0  0.93943084711E+01  0.10526032893E+02 -0.23577012441E+02  0.27475915194E+02  0.00000000000E+00 0. -1.
</event>
<event>
 7    1  0.3196678E-013  0.7246167E+02  0.7816164E-02  0.1226708E+00
        -11   -1    0    0    0    0  0.00000000000E+00  0.00000000000E+00  0.45593999997E+02  0.45594000000E+02  0.51100000000E-03 0. -1.
         11   -1    0    0    0    0 -0.00000000000E+00 -0.00000000000E+00 -0.45593999997E+02  0.45594000000E+02  0.51100000000E-03 0.  1.
    9900012    2    1    2    0    0 -0.21451380158E+01  0.18023653972E+02  0.46067033301E+01  0.72461670003E+02  0.70000129888E+02 0.  0.
         12    1    1    2    0    0  0.21451380158E+01 -0.18023653972E+02 -0.46067033301E+01  0.18726329997E+02  0.00000000000E+00 0. -1.
         11    1    3    3    0    0 -0.14980306718E+02  0.18339091252E+02 -0.82184403758E+01  0.25065406834E+02  0.51100000000E-03 0. -1.
        -11    1    3    3    0    0  0.49063856015E+01  0.64803386905E+01 -0.15338449977E+02  0.17359016596E+02  0.51100000000E-03 0.  1.
        -12    1    3    3    0    0  0.79287831007E+01 -0.67957759705E+01  0.28163593683E+02  0.30037246572E+02  0.00000000000E+00 0.  1.
</event>
<event>
 7    1  0.3196678E-013  0.7246157E+02  0.7816164E-02  0.1226708E+00
        -11   -1    0    0    0    0  0.00000000000E+00  0.00000000000E+00  0.45593999997E+02  0.45594000000E+02  0.51100000000E-03 0.  1.
         11   -1    0    0    0    0 -0.00000000000E+00 -0.00000000000E+00 -0.45593999997E+02  0.45594000000E+02  0.51100000000E-03 0. -1.
    9900012    2    1    2    0    0  0.14285612568E+01 -0.13834381042E+02  0.12539861665E+02  0.72461574376E+02  0.70000005317E+02 0.  0.
         12    1    1    2    0    0 -0.14285612568E+01  0.13834381042E+02 -0.12539861665E+02  0.18726425624E+02  0.00000000000E+00 0. -1.
         11    1    3    3    0    0  0.74842514809E+01  0.10495716434E+02 -0.20203153245E+01  0.13048208995E+02  0.51100000000E-03 0. -1.
        -11    1    3    3    0    0 -0.15150568710E+01  0.38548167219E+01  0.27684600663E+02  0.27992715542E+02  0.51100000000E-03 0.  1.
         12    1    3    3    0    0 -0.45406333531E+01 -0.28184914197E+02 -0.13124423673E+02  0.31420649839E+02  0.00000000000E+00 0. -1.
</event>
<event>
 7    1  0.3196678E-013  0.7246160E+02  0.7816164E-02  0.1226708E+00
        -11   -1    0    0    0    0  0.00000000000E+00  0.00000000000E+00  0.45593999997E+02  0.45594000000E+02  0.51100000000E-03 0.  1.
         11   -1    0    0    0    0 -0.00000000000E+00 -0.00000000000E+00 -0.45593999997E+02  0.45594000000E+02  0.51100000000E-03 0. -1.
    9900012    2    1    2    0    0 -0.77467913651E+01 -0.11124304127E+01  0.17012580122E+02  0.72461597241E+02  0.70000035103E+02 0.  0.
         12    1    1    2    0    0  0.77467913651E+01  0.11124304127E+01 -0.17012580122E+02  0.18726402759E+02  0.00000000000E+00 0. -1.
         11    1    3    3    0    0  0.86802596425E+01  0.34617190721E+01 -0.12430975264E+02  0.15551834383E+02  0.51100000000E-03 0. -1.
        -11    1    3    3    0    0 -0.10254274944E+02  0.13224842732E+02 -0.51585470030E+01  0.17511631202E+02  0.51100000000E-03 0.  1.
        -12    1    3    3    0    0 -0.61727760633E+01 -0.17798992217E+02  0.34602102389E+02  0.39398131656E+02  0.00000000000E+00 0.  1.
</event>
<event>
 7    1  0.3196678E-013  0.7246167E+02  0.7816164E-02  0.1226708E+00
        -11   -1    0    0    0    0  0.00000000000E+00  0.00000000000E+00  0.45593999997E+02  0.45594000000E+02  0.51100000000E-03 0.  1.
         11   -1    0    0    0    0 -0.00000000000E+00 -0.00000000000E+00 -0.45593999997E+02  0.45594000000E+02  0.51100000000E-03 0. -1.
    9900012    2    1    2    0    0 -0.13498412057E+02  0.71303517394E+01  0.10845578191E+02  0.72461665327E+02  0.70000123797E+02 0.  0.
         12    1    1    2    0    0  0.13498412057E+02 -0.71303517394E+01 -0.10845578191E+02  0.18726334673E+02  0.00000000000E+00 0. -1.
         11    1    3    3    0    0 -0.65422110604E+01  0.18279073337E+02 -0.14776092627E+02  0.24397908951E+02  0.51100000000E-03 0. -1.
        -11    1    3    3    0    0  0.49875846730E+01 -0.38945383183E+01 -0.88429490016E+01  0.10873875891E+02  0.51100000000E-03 0.  1.
        -12    1    3    3    0    0 -0.11943785670E+02 -0.72541832796E+01  0.34464619819E+02  0.37189880485E+02  0.00000000000E+00 0.  1.
</event>
<event>
 7    1  0.3196678E-013  0.7246156E+02  0.7816164E-02  0.1226708E+00
        -11   -1    0    0    0    0  0.00000000000E+00  0.00000000000E+00  0.45593999997E+02  0.45594000000E+02  0.51100000000E-03 0. -1.
         11   -1    0    0    0    0 -0.00000000000E+00 -0.00000000000E+00 -0.45593999997E+02  0.45594000000E+02  0.51100000000E-03 0.  1.
    9900012    2    1    2    0    0  0.16546427359E+02 -0.10535208754E+01 -0.87054855175E+01  0.72461557661E+02  0.69999983543E+02 0.  0.
         12    1    1    2    0    0 -0.16546427359E+02  0.10535208754E+01  0.87054855175E+01  0.18726442339E+02  0.00000000000E+00 0. -1.
         11    1    3    3    0    0  0.21773182785E+02  0.87644636158E+01  0.18039464179E+02  0.29602526568E+02  0.51100000000E-03 0. -1.
        -11    1    3    3    0    0  0.30942380812E+01  0.10155322222E+02 -0.36857705829E+01  0.11237872743E+02  0.51100000000E-03 0.  1.
        -12    1    3    3    0    0 -0.83209935077E+01 -0.19973306713E+02 -0.23059179114E+02  0.31621158350E+02  0.00000000000E+00 0.  1.
</event>
<event>
 7    1  0.3196678E-013  0.7246162E+02  0.7816164E-02  0.1226708E+00
        -11   -1    0    0    0    0  0.00000000000E+00  0.00000000000E+00  0.45593999997E+02  0.45594000000E+02  0.51100000000E-03 0.  1.
         11   -1    0    0    0    0 -0.00000000000E+00 -0.00000000000E+00 -0.45593999997E+02  0.45594000000E+02  0.51100000000E-03 0. -1.
    9900012    2    1    2    0    0 -0.12295745180E+02 -0.14761033304E+01  0.14046823374E+02  0.72461615473E+02  0.70000058853E+02 0.  0.
         12    1    1    2    0    0  0.12295745180E+02  0.14761033304E+01 -0.14046823374E+02  0.18726384527E+02  0.00000000000E+00 0. -1.
         11    1    3    3    0    0 -0.13829850341E+02 -0.82207851756E+01 -0.15814734551E+02  0.22559962291E+02  0.51100000000E-03 0. -1.
        -11    1    3    3    0    0 -0.97120931139E+01  0.16028882035E+01 -0.62981752287E+01  0.11685932343E+02  0.51100000000E-03 0.  1.
        -12    1    3    3    0    0  0.11246198275E+02  0.51417936416E+01  0.36159733154E+02  0.38215720839E+02  0.00000000000E+00 0.  1.
</event>
<event>
 7    1  0.3196678E-013  0.7246151E+02  0.7816164E-02  0.1226708E+00
        -11   -1    0    0    0    0  0.00000000000E+00  0.00000000000E+00  0.45593999997E+02  0.45594000000E+02  0.51100000000E-03 0. -1.
         11   -1    0    0    0    0 -0.00000000000E+00 -0.00000000000E+00 -0.45593999997E+02  0.45594000000E+02  0.51100000000E-03 0.  1.
    9900012    2    1    2    0    0  0.15226801818E+02  0.68678308901E+01  0.84651503497E+01  0.72461511670E+02  0.69999923631E+02 0.  0.
         12    1    1    2    0    0 -0.15226801818E+02 -0.68678308901E+01 -0.84651503497E+01  0.18726488330E+02  0.00000000000E+00 0. -1.
         11    1    3    3    0    0  0.28480996469E+02 -0.11568125752E+02 -0.11255891214E+02  0.32736581687E+02  0.51100000000E-03 0. -1.
        -11    1    3    3    0    0 -0.49217504379E+01 -0.55401693421E+01 -0.26933133413E+00  0.74155002084E+01  0.51100000000E-03 0.  1.
         12    1    3    3    0    0 -0.83324442137E+01  0.23976125984E+02  0.19990372897E+02  0.32309429774E+02  0.00000000000E+00 0. -1.
</event>
<event>
 7    1  0.3196678E-013  0.7246166E+02  0.7816164E-02  0.1226708E+00
        -11   -1    0    0    0    0  0.00000000000E+00  0.00000000000E+00  0.45593999997E+02  0.45594000000E+02  0.51100000000E-03 0.  1.
         11   -1    0    0    0    0 -0.00000000000E+00 -0.00000000000E+00 -0.45593999997E+02  0.45594000000E+02  0.51100000000E-03 0. -1.
    9900012    2    1    2    0    0 -0.63334090866E+01  0.16560691567E+02  0.60255638000E+01  0.72461655056E+02  0.70000110418E+02 0.  0.
         12    1    1    2    0    0  0.63334090866E+01 -0.16560691567E+02 -0.60255638000E+01  0.18726344944E+02  0.00000000000E+00 0. -1.
         11    1    3    3    0    0  0.37149029217E+01  0.20539483944E+02 -0.18956644997E+02  0.28196192902E+02  0.51100000000E-03 0. -1.
        -11    1    3    3    0    0 -0.96117956066E+01  0.48218587187E+01 -0.58202093935E+01  0.12227500723E+02  0.51100000000E-03 0.  1.
        -12    1    3    3    0    0 -0.43651640171E+00 -0.88006510953E+01  0.30802418190E+02  0.32037961431E+02  0.00000000000E+00 0.  1.
</event>
<event>
 7    1  0.3196678E-013  0.7246152E+02  0.7816164E-02  0.1226708E+00
        -11   -1    0    0    0    0  0.00000000000E+00  0.00000000000E+00  0.45593999997E+02  0.45594000000E+02  0.51100000000E-03 0. -1.
         11   -1    0    0    0    0 -0.00000000000E+00 -0.00000000000E+00 -0.45593999997E+02  0.45594000000E+02  0.51100000000E-03 0.  1.
    9900012    2    1    2    0    0 -0.18020458896E+02  0.25981041410E+01 -0.43810998370E+01  0.72461518223E+02  0.69999932168E+02 0.  0.
         12    1    1    2    0    0  0.18020458896E+02 -0.25981041410E+01  0.43810998370E+01  0.18726481777E+02  0.00000000000E+00 0. -1.
         11    1    3    3    0    0  0.39245868464E+01  0.19062668186E+02 -0.75334113170E+01  0.20869594788E+02  0.51100000000E-03 0. -1.
        -11    1    3    3    0    0 -0.94786367775E+01  0.52431936968E+00 -0.18863070535E+02  0.21117170649E+02  0.51100000000E-03 0.  1.
         12    1    3    3    0    0 -0.12466408965E+02 -0.16988883414E+02  0.22015382015E+02  0.30474752786E+02  0.00000000000E+00 0. -1.
</event>
<event>
 7    1  0.3196678E-013  0.7246215E+02  0.7816164E-02  0.1226706E+00
        -11   -1    0    0    0    0  0.00000000000E+00  0.00000000000E+00  0.45593999997E+02  0.45594000000E+02  0.51100000000E-03 0.  1.
         11   -1    0    0    0    0 -0.00000000000E+00 -0.00000000000E+00 -0.45593999997E+02  0.45594000000E+02  0.51100000000E-03 0. -1.
    9900012    2    1    2    0    0  0.75197215103E+01 -0.30765126585E+01  0.16871462014E+02  0.72462152296E+02  0.70000758161E+02 0.  0.
         12    1    1    2    0    0 -0.75197215103E+01  0.30765126585E+01 -0.16871462014E+02  0.18725847704E+02  0.00000000000E+00 0. -1.
         11    1    3    3    0    0 -0.13862607520E+01 -0.13745422002E+01  0.37580568886E+01  0.42348644573E+01  0.51100000000E-03 0. -1.
        -11    1    3    3    0    0 -0.60548882935E+01 -0.30197560851E+02  0.18001978777E+02  0.35673878310E+02  0.51100000000E-03 0.  1.
         12    1    3    3    0    0  0.14960870556E+02  0.28495590392E+02 -0.48885736510E+01  0.32553409528E+02  0.00000000000E+00 0. -1.
</event>
<event>
 7    1  0.3196678E-013  0.7246151E+02  0.7816164E-02  0.1226708E+00
        -11   -1    0    0    0    0  0.00000000000E+00  0.00000000000E+00  0.45593999997E+02  0.45594000000E+02  0.51100000000E-03 0.  1.
         11   -1    0    0    0    0 -0.00000000000E+00 -0.00000000000E+00 -0.45593999997E+02  0.45594000000E+02  0.51100000000E-03 0. -1.
    9900012    2    1    2    0    0  0.23321656306E+01 -0.12742501122E+00  0.18580263112E+02  0.72461510447E+02  0.69999922038E+02 0.  0.
         12    1    1    2    0    0 -0.23321656306E+01  0.12742501122E+00 -0.18580263112E+02  0.18726489553E+02  0.00000000000E+00 0. -1.
         11    1    3    3    0    0  0.33768616403E+01 -0.51766950381E+01 -0.51111526739E+01  0.80203022370E+01  0.51100000000E-03 0. -1.
        -11    1    3    3    0    0  0.13931659612E+01 -0.54824558247E+01 -0.19299800948E+02  0.20111701821E+02  0.51100000000E-03 0.  1.
        -12    1    3    3    0    0 -0.24378619709E+01  0.10531725852E+02  0.42991216734E+02  0.44329506389E+02  0.00000000000E+00 0.  1.
</event>
<event>
 7    1  0.3196678E-013  0.7246153E+02  0.7816164E-02  0.1226708E+00
        -11   -1    0    0    0    0  0.00000000000E+00  0.00000000000E+00  0.45593999997E+02  0.45594000000E+02  0.51100000000E-03 0. -1.
         11   -1    0    0    0    0 -0.00000000000E+00 -0.00000000000E+00 -0.45593999997E+02  0.45594000000E+02  0.51100000000E-03 0.  1.
    9900012    2    1    2    0    0  0.92213274368E+01  0.28755305085E+01 -0.16043042340E+02  0.72461527750E+02  0.69999944578E+02 0.  0.
         12    1    1    2    0    0 -0.92213274368E+01 -0.28755305085E+01  0.16043042340E+02  0.18726472250E+02  0.00000000000E+00 0. -1.
         11    1    3    3    0    0  0.10792728723E+02  0.74552255914E+01 -0.18195749437E+02  0.22430975898E+02  0.51100000000E-03 0. -1.
        -11    1    3    3    0    0 -0.14288598462E+02  0.70774208465E+01 -0.17637407107E+02  0.23776712590E+02  0.51100000000E-03 0.  1.
         12    1    3    3    0    0  0.12717197175E+02 -0.11657115929E+02  0.19790114204E+02  0.26253839262E+02  0.00000000000E+00 0. -1.
</event>
<event>
 7    1  0.3196678E-013  0.7246160E+02  0.7816164E-02  0.1226708E+00
        -11   -1    0    0    0    0  0.00000000000E+00  0.00000000000E+00  0.45593999997E+02  0.45594000000E+02  0.51100000000E-03 0. -1.
         11   -1    0    0    0    0 -0.00000000000E+00 -0.00000000000E+00 -0.45593999997E+02  0.45594000000E+02  0.51100000000E-03 0.  1.
    9900012    2    1    2    0    0 -0.11286503663E+02  0.94818087380E+00 -0.14912876380E+02  0.72461599015E+02  0.70000037414E+02 0.  0.
         12    1    1    2    0    0  0.11286503663E+02 -0.94818087380E+00  0.14912876380E+02  0.18726400985E+02  0.00000000000E+00 0. -1.
         11    1    3    3    0    0 -0.11952672670E+02  0.47611534961E+01  0.19788724806E+02  0.23603571684E+02  0.51100000000E-03 0. -1.
        -11    1    3    3    0    0 -0.12891129582E+02 -0.32336506318E+01 -0.19837013192E+01  0.13437737514E+02  0.51100000000E-03 0.  1.
        -12    1    3    3    0    0  0.13557298589E+02 -0.57932199047E+00 -0.32717899867E+02  0.35420289817E+02  0.00000000000E+00 0.  1.
</event>
<event>
 7    1  0.3196678E-013  0.7246161E+02  0.7816164E-02  0.1226708E+00
        -11   -1    0    0    0    0  0.00000000000E+00  0.00000000000E+00  0.45593999997E+02  0.45594000000E+02  0.51100000000E-03 0. -1.
         11   -1    0    0    0    0 -0.00000000000E+00 -0.00000000000E+00 -0.45593999997E+02  0.45594000000E+02  0.51100000000E-03 0.  1.
    9900012    2    1    2    0    0 -0.11082936613E+02 -0.13574032868E+02 -0.66024074899E+01  0.72461611215E+02  0.70000053307E+02 0.  0.
         12    1    1    2    0    0  0.11082936613E+02  0.13574032868E+02  0.66024074899E+01  0.18726388785E+02  0.00000000000E+00 0. -1.
         11    1    3    3    0    0  0.13850792402E+02 -0.71591907821E+01  0.16330373127E+02  0.22578298199E+02  0.51100000000E-03 0. -1.
        -11    1    3    3    0    0 -0.56658140483E+01 -0.86928871116E+01  0.81825426085E+01  0.13214451898E+02  0.51100000000E-03 0.  1.
        -12    1    3    3    0    0 -0.19267914967E+02  0.22780450256E+01 -0.31115323225E+02  0.36668861118E+02  0.00000000000E+00 0.  1.
</event>
<event>
 7    1  0.3196678E-013  0.7246155E+02  0.7816164E-02  0.1226708E+00
        -11   -1    0    0    0    0  0.00000000000E+00  0.00000000000E+00  0.45593999997E+02  0.45594000000E+02  0.51100000000E-03 0.  1.
         11   -1    0    0    0    0 -0.00000000000E+00 -0.00000000000E+00 -0.45593999997E+02  0.45594000000E+02  0.51100000000E-03 0. -1.
    9900012    2    1    2    0    0  0.76116123917E+01  0.22020004811E+01  0.16967449921E+02  0.72461553296E+02  0.69999977856E+02 0.  0.
         12    1    1    2    0    0 -0.76116123917E+01 -0.22020004811E+01 -0.16967449921E+02  0.18726446704E+02  0.00000000000E+00 0. -1.
         11    1    3    3    0    0  0.85350134061E+01  0.19511843672E+02 -0.16304217292E+02  0.26821372059E+02  0.51100000000E-03 0. -1.
        -11    1    3    3    0    0  0.84174434088E+01 -0.71758532515E+01  0.16993595362E+01  0.11190801871E+02  0.51100000000E-03 0.  1.
        -12    1    3    3    0    0 -0.93408444232E+01 -0.10133989940E+02  0.31572307677E+02  0.34449379366E+02  0.00000000000E+00 0.  1.
</event>
<event>
 7    1  0.3196678E-013  0.7246158E+02  0.7816164E-02  0.1226708E+00
        -11   -1    0    0    0    0  0.00000000000E+00  0.00000000000E+00  0.45593999997E+02  0.45594000000E+02  0.51100000000E-03 0.  1.
         11   -1    0    0    0    0 -0.00000000000E+00 -0.00000000000E+00 -0.45593999997E+02  0.45594000000E+02  0.51100000000E-03 0. -1.
    9900012    2    1    2    0    0  0.50932577201E+01  0.68133155283E+01  0.16682816701E+02  0.72461577069E+02  0.70000008825E+02 0.  0.
         12    1    1    2    0    0 -0.50932577201E+01 -0.68133155283E+01 -0.16682816701E+02  0.18726422931E+02  0.00000000000E+00 0. -1.
         11    1    3    3    0    0 -0.22680100613E+02 -0.50394478645E+01  0.20138210696E+02  0.30746227881E+02  0.51100000000E-03 0. -1.
        -11    1    3    3    0    0  0.97395583706E+01 -0.16357515369E+01  0.11133597159E+02  0.14882596088E+02  0.51100000000E-03 0.  1.
         12    1    3    3    0    0  0.18033799962E+02  0.13488514930E+02 -0.14588991154E+02  0.26832753101E+02  0.00000000000E+00 0. -1.
</event>
<event>
 7    1  0.3196678E-013  0.7246155E+02  0.7816164E-02  0.1226708E+00
        -11   -1    0    0    0    0  0.00000000000E+00  0.00000000000E+00  0.45593999997E+02  0.45594000000E+02  0.51100000000E-03 0. -1.
         11   -1    0    0    0    0 -0.00000000000E+00 -0.00000000000E+00 -0.45593999997E+02  0.45594000000E+02  0.51100000000E-03 0.  1.
    9900012    2    1    2    0    0 -0.78476154078E+01 -0.61277033780E+01 -0.15860204822E+02  0.72461550436E+02  0.69999974131E+02 0.  0.
         12    1    1    2    0    0  0.78476154078E+01  0.61277033780E+01  0.15860204822E+02  0.18726449564E+02  0.00000000000E+00 0. -1.
         11    1    3    3    0    0 -0.14001289483E+02 -0.51496406760E+01  0.14222053703E+02  0.20611203703E+02  0.51100000000E-03 0. -1.
        -11    1    3    3    0    0 -0.16873237941E+02  0.52356318405E+01 -0.81792021565E+01  0.19468367871E+02  0.51100000000E-03 0.  1.
         12    1    3    3    0    0  0.23026912016E+02 -0.62136945425E+01 -0.21903056368E+02  0.32381978863E+02  0.00000000000E+00 0. -1.
</event>
<event>
 7    1  0.3196678E-013  0.7246169E+02  0.7816164E-02  0.1226708E+00
        -11   -1    0    0    0    0  0.00000000000E+00  0.00000000000E+00  0.45593999997E+02  0.45594000000E+02  0.51100000000E-03 0. -1.
         11   -1    0    0    0    0 -0.00000000000E+00 -0.00000000000E+00 -0.45593999997E+02  0.45594000000E+02  0.51100000000E-03 0.  1.
    9900012    2    1    2    0    0  0.10859655469E+02  0.19149148849E+01 -0.15135243688E+02  0.72461691837E+02  0.70000158331E+02 0.  0.
         12    1    1    2    0    0 -0.10859655469E+02 -0.19149148849E+01  0.15135243688E+02  0.18726308163E+02  0.00000000000E+00 0. -1.
         11    1    3    3    0    0 -0.58931925716E+01 -0.32193752092E+00  0.19624441376E+02  0.20492731932E+02  0.51100000000E-03 0. -1.
        -11    1    3    3    0    0  0.98083233271E+01 -0.15240096170E+02 -0.94561902614E+01  0.20442193431E+02  0.51100000000E-03 0.  1.
        -12    1    3    3    0    0  0.69445247139E+01  0.17476948576E+02 -0.25303494803E+02  0.31526766473E+02  0.00000000000E+00 0.  1.
</event>
<event>
 7    1  0.3196678E-013  0.7246158E+02  0.7816164E-02  0.1226708E+00
        -11   -1    0    0    0    0  0.00000000000E+00  0.00000000000E+00  0.45593999997E+02  0.45594000000E+02  0.51100000000E-03 0.  1.
         11   -1    0    0    0    0 -0.00000000000E+00 -0.00000000000E+00 -0.45593999997E+02  0.45594000000E+02  0.51100000000E-03 0. -1.
    9900012    2    1    2    0    0  0.55008423518E+01  0.17783766098E+02  0.20389108424E+01  0.72461581211E+02  0.70000014222E+02 0.  0.
         12    1    1    2    0    0 -0.55008423518E+01 -0.17783766098E+02 -0.20389108424E+01  0.18726418789E+02  0.00000000000E+00 0. -1.
         11    1    3    3    0    0  0.77808511554E+01  0.32591888529E+02 -0.22989726628E+02  0.40636195360E+02  0.51100000000E-03 0. -1.
        -11    1    3    3    0    0 -0.42202765529E+01 -0.25802621232E+01  0.13857957632E+01  0.51370144020E+01  0.51100000000E-03 0.  1.
        -12    1    3    3    0    0  0.19402677493E+01 -0.12227860308E+02  0.23642841707E+02  0.26688371450E+02  0.00000000000E+00 0.  1.
</event>
<event>
 7    1  0.3196678E-013  0.7246162E+02  0.7816164E-02  0.1226708E+00
        -11   -1    0    0    0    0  0.00000000000E+00  0.00000000000E+00  0.45593999997E+02  0.45594000000E+02  0.51100000000E-03 0.  1.
         11   -1    0    0    0    0 -0.00000000000E+00 -0.00000000000E+00 -0.45593999997E+02  0.45594000000E+02  0.51100000000E-03 0. -1.
    9900012    2    1    2    0    0  0.78887375462E+01  0.16615478350E+02 -0.35172570502E+01  0.72461617593E+02  0.70000061616E+02 0.  0.
         12    1    1    2    0    0 -0.78887375462E+01 -0.16615478350E+02  0.35172570502E+01  0.18726382407E+02  0.00000000000E+00 0. -1.
         11    1    3    3    0    0 -0.42012756227E+01  0.97596459245E+01 -0.18484896651E+02  0.21321182188E+02  0.51100000000E-03 0.  1.
        -11    1    3    3    0    0 -0.47071024718E+01 -0.17940590515E+02  0.25667444873E+01  0.18724576877E+02  0.51100000000E-03 0. -1.
        -12    1    3    3    0    0  0.16797115641E+02  0.24796422940E+02  0.12400895114E+02  0.32415858528E+02  0.00000000000E+00 0.  1.
</event>
<event>
 7    1  0.3196678E-013  0.7246155E+02  0.7816164E-02  0.1226708E+00
        -11   -1    0    0    0    0  0.00000000000E+00  0.00000000000E+00  0.45593999997E+02  0.45594000000E+02  0.51100000000E-03 0.  1.
         11   -1    0    0    0    0 -0.00000000000E+00 -0.00000000000E+00 -0.45593999997E+02  0.45594000000E+02  0.51100000000E-03 0. -1.
    9900012    2    1    2    0    0 -0.78787511477E+01 -0.28245708365E+00  0.16986031063E+02  0.72461554717E+02  0.69999979708E+02 0.  0.
         12    1    1    2    0    0  0.78787511477E+01  0.28245708365E+00 -0.16986031063E+02  0.18726445283E+02  0.00000000000E+00 0. -1.
         11    1    3    3    0    0  0.64107017167E+01  0.23728905198E+01 -0.65122173954E+01  0.94412224625E+01  0.51100000000E-03 0.  1.
        -11    1    3    3    0    0  0.10689924007E+02 -0.26167177259E+01 -0.14096253078E+02  0.17883680774E+02  0.51100000000E-03 0. -1.
        -12    1    3    3    0    0 -0.24979376872E+02 -0.38629877493E-01  0.37594501536E+02  0.45136651481E+02  0.00000000000E+00 0.  1.
</event>
<event>
 7    1  0.3196678E-013  0.7246161E+02  0.7816164E-02  0.1226708E+00
        -11   -1    0    0    0    0  0.00000000000E+00  0.00000000000E+00  0.45593999997E+02  0.45594000000E+02  0.51100000000E-03 0.  1.
         11   -1    0    0    0    0 -0.00000000000E+00 -0.00000000000E+00 -0.45593999997E+02  0.45594000000E+02  0.51100000000E-03 0. -1.
    9900012    2    1    2    0    0 -0.27892233673E+01  0.10391103199E+02  0.15327192474E+02  0.72461611618E+02  0.70000053832E+02 0.  0.
         12    1    1    2    0    0  0.27892233673E+01 -0.10391103199E+02 -0.15327192474E+02  0.18726388382E+02  0.00000000000E+00 0. -1.
         11    1    3    3    0    0  0.14996730901E+02 -0.66772563881E+01  0.60681477945E+01  0.17501717302E+02  0.51100000000E-03 0.  1.
        -11    1    3    3    0    0 -0.14311432607E+02  0.22055697282E+02 -0.14781881887E+02  0.30162475333E+02  0.51100000000E-03 0. -1.
         12    1    3    3    0    0 -0.34745216618E+01 -0.49873376948E+01  0.24040926567E+02  0.24797418984E+02  0.00000000000E+00 0. -1.
</event>
<event>
 7    1  0.3196678E-013  0.7246157E+02  0.7816164E-02  0.1226708E+00
        -11   -1    0    0    0    0  0.00000000000E+00  0.00000000000E+00  0.45593999997E+02  0.45594000000E+02  0.51100000000E-03 0. -1.
         11   -1    0    0    0    0 -0.00000000000E+00 -0.00000000000E+00 -0.45593999997E+02  0.45594000000E+02  0.51100000000E-03 0.  1.
    9900012    2    1    2    0    0 -0.17651474412E+02 -0.44303545309E+01  0.44132145498E+01  0.72461573410E+02  0.70000004058E+02 0.  0.
         12    1    1    2    0    0  0.17651474412E+02  0.44303545309E+01 -0.44132145498E+01  0.18726426590E+02  0.00000000000E+00 0. -1.
         11    1    3    3    0    0 -0.12903356406E+02 -0.31510712085E+01 -0.10235209062E+02  0.16768582561E+02  0.51100000000E-03 0. -1.
        -11    1    3    3    0    0  0.13602843328E+02  0.14821223141E+02 -0.86948465237E+01  0.21915892826E+02  0.51100000000E-03 0.  1.
         12    1    3    3    0    0 -0.18350961334E+02 -0.16100506463E+02  0.23343270135E+02  0.33777098023E+02  0.00000000000E+00 0. -1.
</event>
<event>
 7    1  0.3196678E-013  0.7246157E+02  0.7816164E-02  0.1226708E+00
        -11   -1    0    0    0    0  0.00000000000E+00  0.00000000000E+00  0.45593999997E+02  0.45594000000E+02  0.51100000000E-03 0.  1.
         11   -1    0    0    0    0 -0.00000000000E+00 -0.00000000000E+00 -0.45593999997E+02  0.45594000000E+02  0.51100000000E-03 0. -1.
    9900012    2    1    2    0    0 -0.18479746843E+02 -0.11345249118E+01  0.28090652659E+01  0.72461573811E+02  0.70000004581E+02 0.  0.
         12    1    1    2    0    0  0.18479746843E+02  0.11345249118E+01 -0.28090652659E+01  0.18726426189E+02  0.00000000000E+00 0. -1.
         11    1    3    3    0    0 -0.67782832504E+01 -0.15384776227E+02 -0.63457712478E+01  0.17969565280E+02  0.51100000000E-03 0. -1.
        -11    1    3    3    0    0  0.72662829259E+01  0.57753064397E+01  0.26088176396E+02  0.27690178403E+02  0.51100000000E-03 0.  1.
         12    1    3    3    0    0 -0.18967746518E+02  0.84749448752E+01 -0.16933339883E+02  0.26801830128E+02  0.00000000000E+00 0. -1.
</event>
<event>
 7    1  0.3196678E-013  0.7246160E+02  0.7816164E-02  0.1226708E+00
        -11   -1    0    0    0    0  0.00000000000E+00  0.00000000000E+00  0.45593999997E+02  0.45594000000E+02  0.51100000000E-03 0. -1.
         11   -1    0    0    0    0 -0.00000000000E+00 -0.00000000000E+00 -0.45593999997E+02  0.45594000000E+02  0.51100000000E-03 0.  1.
    9900012    2    1    2    0    0 -0.41345246624E+01 -0.15806474433E+02 -0.91509128177E+01  0.72461597954E+02  0.70000036032E+02 0.  0.
         12    1    1    2    0    0  0.41345246624E+01  0.15806474433E+02  0.91509128177E+01  0.18726402046E+02  0.00000000000E+00 0. -1.
         11    1    3    3    0    0 -0.10050065702E+02 -0.32391167711E+02  0.51814851419E+01  0.34308007154E+02  0.51100000000E-03 0.  1.
        -11    1    3    3    0    0 -0.65710679632E+01 -0.61950594774E+01 -0.14130879057E+01  0.91408158168E+01  0.51100000000E-03 0. -1.
        -12    1    3    3    0    0  0.12486609002E+02  0.22779752756E+02 -0.12919310054E+02  0.29012774984E+02  0.00000000000E+00 0.  1.
</event>
<event>
 7    1  0.3196678E-013  0.7246149E+02  0.7816164E-02  0.1226708E+00
        -11   -1    0    0    0    0  0.00000000000E+00  0.00000000000E+00  0.45593999997E+02  0.45594000000E+02  0.51100000000E-03 0.  1.
         11   -1    0    0    0    0 -0.00000000000E+00 -0.00000000000E+00 -0.45593999997E+02  0.45594000000E+02  0.51100000000E-03 0. -1.
    9900012    2    1    2    0    0 -0.18128123542E+02 -0.35647902240E+01  0.30570433703E+01  0.72461491872E+02  0.69999897840E+02 0.  0.
         12    1    1    2    0    0  0.18128123542E+02  0.35647902240E+01 -0.30570433703E+01  0.18726508128E+02  0.00000000000E+00 0. -1.
         11    1    3    3    0    0  0.66235173549E+01  0.11137610137E+02 -0.19675474425E+01  0.13106814446E+02  0.51100000000E-03 0.  1.
        -11    1    3    3    0    0 -0.16789487958E+02 -0.75866553654E+01 -0.22938857586E+02  0.29421683044E+02  0.51100000000E-03 0. -1.
        -12    1    3    3    0    0 -0.79621529392E+01 -0.71157449958E+01  0.27963448399E+02  0.29932994382E+02  0.00000000000E+00 0.  1.
</event>
<event>
 7    1  0.3196678E-013  0.7246129E+02  0.7816164E-02  0.1226709E+00
        -11   -1    0    0    0    0  0.00000000000E+00  0.00000000000E+00  0.45593999997E+02  0.45594000000E+02  0.51100000000E-03 0.  1.
         11   -1    0    0    0    0 -0.00000000000E+00 -0.00000000000E+00 -0.45593999997E+02  0.45594000000E+02  0.51100000000E-03 0. -1.
    9900012    2    1    2    0    0 -0.61862286593E+00 -0.13125775861E+02  0.13342446887E+02  0.72461292464E+02  0.69999638074E+02 0.  0.
         12    1    1    2    0    0  0.61862286593E+00  0.13125775861E+02 -0.13342446887E+02  0.18726707536E+02  0.00000000000E+00 0. -1.
         11    1    3    3    0    0 -0.78464333740E+00  0.15267547868E+02  0.11111209469E+02  0.18899012122E+02  0.51100000000E-03 0. -1.
        -11    1    3    3    0    0  0.86204932524E+01  0.10465378067E+02 -0.13912711573E+01  0.13629845109E+02  0.51100000000E-03 0.  1.
         12    1    3    3    0    0 -0.84544727809E+01 -0.38858701796E+02  0.36225085751E+01  0.39932435233E+02  0.00000000000E+00 0. -1.
</event>
<event>
 7    1  0.3196678E-013  0.7246159E+02  0.7816164E-02  0.1226708E+00
        -11   -1    0    0    0    0  0.00000000000E+00  0.00000000000E+00  0.45593999997E+02  0.45594000000E+02  0.51100000000E-03 0.  1.
         11   -1    0    0    0    0 -0.00000000000E+00 -0.00000000000E+00 -0.45593999997E+02  0.45594000000E+02  0.51100000000E-03 0. -1.
    9900012    2    1    2    0    0  0.93578709008E+01  0.16185885335E+02 -0.10610278167E+01  0.72461590523E+02  0.70000026351E+02 0.  0.
         12    1    1    2    0    0 -0.93578709008E+01 -0.16185885335E+02  0.10610278167E+01  0.18726409477E+02  0.00000000000E+00 0. -1.
         11    1    3    3    0    0  0.21332357600E+01  0.18507380637E+02 -0.14407157057E+02  0.23550796326E+02  0.51100000000E-03 0. -1.
        -11    1    3    3    0    0 -0.18611493310E+02 -0.82605431679E+01  0.36716428706E+01  0.20690703669E+02  0.51100000000E-03 0.  1.
        -12    1    3    3    0    0  0.25836128451E+02  0.59390478661E+01  0.96744863696E+01  0.28220090528E+02  0.00000000000E+00 0.  1.
</event>
<event>
 7    1  0.3196678E-013  0.7246173E+02  0.7816164E-02  0.1226708E+00
        -11   -1    0    0    0    0  0.00000000000E+00  0.00000000000E+00  0.45593999997E+02  0.45594000000E+02  0.51100000000E-03 0.  1.
         11   -1    0    0    0    0 -0.00000000000E+00 -0.00000000000E+00 -0.45593999997E+02  0.45594000000E+02  0.51100000000E-03 0. -1.
    9900012    2    1    2    0    0  0.12137722649E+02  0.13374657730E+02  0.49464521451E+01  0.72461730501E+02  0.70000208699E+02 0.  0.
         12    1    1    2    0    0 -0.12137722649E+02 -0.13374657730E+02 -0.49464521451E+01  0.18726269499E+02  0.00000000000E+00 0. -1.
         11    1    3    3    0    0 -0.20104207501E+01 -0.10874628083E+02 -0.11272204575E+02  0.15791197667E+02  0.51100000000E-03 0. -1.
        -11    1    3    3    0    0  0.72095559428E+01 -0.10827171601E+01 -0.14514798182E+02  0.16242824258E+02  0.51100000000E-03 0.  1.
        -12    1    3    3    0    0  0.69385874567E+01  0.25332002973E+02  0.30733454902E+02  0.40427708576E+02  0.00000000000E+00 0.  1.
</event>
<event>
 7    1  0.3196678E-013  0.7246161E+02  0.7816164E-02  0.1226708E+00
        -11   -1    0    0    0    0  0.00000000000E+00  0.00000000000E+00  0.45593999997E+02  0.45594000000E+02  0.51100000000E-03 0.  1.
         11   -1    0    0    0    0 -0.00000000000E+00 -0.00000000000E+00 -0.45593999997E+02  0.45594000000E+02  0.51100000000E-03 0. -1.
    9900012    2    1    2    0    0  0.26863891984E+01 -0.15538063041E+02  0.10100977756E+02  0.72461605750E+02  0.70000046187E+02 0.  0.
         12    1    1    2    0    0 -0.26863891984E+01  0.15538063041E+02 -0.10100977756E+02  0.18726394250E+02  0.00000000000E+00 0. -1.
         11    1    3    3    0    0 -0.14149058438E+02 -0.71395175700E+01  0.21639383935E+01  0.15995349181E+02  0.51100000000E-03 0. -1.
        -11    1    3    3    0    0 -0.96185586025E+01 -0.14268630727E+02  0.20359144351E+02  0.26657180109E+02  0.51100000000E-03 0.  1.
         12    1    3    3    0    0  0.26454006239E+02  0.58700852555E+01 -0.12422104989E+02  0.29809076459E+02  0.00000000000E+00 0. -1.
</event>
<event>
 7    1  0.3196678E-013  0.7246203E+02  0.7816164E-02  0.1226707E+00
        -11   -1    0    0    0    0  0.00000000000E+00  0.00000000000E+00  0.45593999997E+02  0.45594000000E+02  0.51100000000E-03 0. -1.
         11   -1    0    0    0    0 -0.00000000000E+00 -0.00000000000E+00 -0.45593999997E+02  0.45594000000E+02  0.51100000000E-03 0.  1.
    9900012    2    1    2    0    0 -0.11353207221E+01 -0.41555608568E+01 -0.18223733059E+02  0.72462026439E+02  0.70000594211E+02 0.  0.
         12    1    1    2    0    0  0.11353207221E+01  0.41555608568E+01  0.18223733059E+02  0.18725973561E+02  0.00000000000E+00 0. -1.
         11    1    3    3    0    0  0.15602722481E+01  0.20926021877E+02  0.15918385899E+01  0.21044400477E+02  0.51100000000E-03 0. -1.
        -11    1    3    3    0    0 -0.52026144903E+01  0.10473698352E+02 -0.34236728113E+01  0.12185527911E+02  0.51100000000E-03 0.  1.
        -12    1    3    3    0    0  0.25070215201E+01 -0.35555281085E+02 -0.16391898838E+02  0.39232098051E+02  0.00000000000E+00 0.  1.
</event>
<event>
 7    1  0.3196678E-013  0.7246158E+02  0.7816164E-02  0.1226708E+00
        -11   -1    0    0    0    0  0.00000000000E+00  0.00000000000E+00  0.45593999997E+02  0.45594000000E+02  0.51100000000E-03 0.  1.
         11   -1    0    0    0    0 -0.00000000000E+00 -0.00000000000E+00 -0.45593999997E+02  0.45594000000E+02  0.51100000000E-03 0. -1.
    9900012    2    1    2    0    0  0.17512980033E+02 -0.22269229894E+01  0.62462157756E+01  0.72461578368E+02  0.70000010517E+02 0.  0.
         12    1    1    2    0    0 -0.17512980033E+02  0.22269229894E+01 -0.62462157756E+01  0.18726421632E+02  0.00000000000E+00 0. -1.
         11    1    3    3    0    0  0.22205872848E+01 -0.73277000424E+01  0.15046221291E+02  0.16882386419E+02  0.51100000000E-03 0. -1.
        -11    1    3    3    0    0 -0.10310793231E+02  0.21809291755E+02 -0.16421260297E+01  0.24179624523E+02  0.51100000000E-03 0.  1.
         12    1    3    3    0    0  0.25603185979E+02 -0.16708514702E+02 -0.71578794856E+01  0.31399567426E+02  0.00000000000E+00 0. -1.
</event>
<event>
 7    1  0.3196678E-013  0.7246157E+02  0.7816164E-02  0.1226708E+00
        -11   -1    0    0    0    0  0.00000000000E+00  0.00000000000E+00  0.45593999997E+02  0.45594000000E+02  0.51100000000E-03 0. -1.
         11   -1    0    0    0    0 -0.00000000000E+00 -0.00000000000E+00 -0.45593999997E+02  0.45594000000E+02  0.51100000000E-03 0.  1.
    9900012    2    1    2    0    0 -0.33762985099E+01  0.18077043249E+02 -0.35355678984E+01  0.72461571493E+02  0.70000001561E+02 0.  0.
         12    1    1    2    0    0  0.33762985099E+01 -0.18077043249E+02  0.35355678984E+01  0.18726428507E+02  0.00000000000E+00 0. -1.
         11    1    3    3    0    0  0.59584411094E+01  0.53358992480E+01  0.21709997751E+02  0.23136526183E+02  0.51100000000E-03 0. -1.
        -11    1    3    3    0    0  0.12024093923E+02  0.95527039344E+01  0.93710488255E+00  0.15385420142E+02  0.51100000000E-03 0.  1.
        -12    1    3    3    0    0 -0.21358833542E+02  0.31884400669E+01 -0.26182670532E+02  0.33939625167E+02  0.00000000000E+00 0.  1.
</event>
<event>
 7    1  0.3196678E-013  0.7246154E+02  0.7816164E-02  0.1226708E+00
        -11   -1    0    0    0    0  0.00000000000E+00  0.00000000000E+00  0.45593999997E+02  0.45594000000E+02  0.51100000000E-03 0. -1.
         11   -1    0    0    0    0 -0.00000000000E+00 -0.00000000000E+00 -0.45593999997E+02  0.45594000000E+02  0.51100000000E-03 0.  1.
    9900012    2    1    2    0    0  0.52644859300E+01 -0.67546837068E+01 -0.16653524793E+02  0.72461536048E+02  0.69999955388E+02 0.  0.
         12    1    1    2    0    0 -0.52644859300E+01  0.67546837068E+01  0.16653524793E+02  0.18726463952E+02  0.00000000000E+00 0. -1.
         11    1    3    3    0    0 -0.20398548204E+02  0.43286112514E+01  0.50609137117E+01  0.21458110169E+02  0.51100000000E-03 0. -1.
        -11    1    3    3    0    0  0.10937181239E+02 -0.15045848902E+02 -0.28723236403E+02  0.34220225195E+02  0.51100000000E-03 0.  1.
         12    1    3    3    0    0  0.14725852895E+02  0.39625539438E+01  0.70087978979E+01  0.16783200684E+02  0.00000000000E+00 0. -1.
</event>
<event>
 7    1  0.3196678E-013  0.7246160E+02  0.7816164E-02  0.1226708E+00
        -11   -1    0    0    0    0  0.00000000000E+00  0.00000000000E+00  0.45593999997E+02  0.45594000000E+02  0.51100000000E-03 0. -1.
         11   -1    0    0    0    0 -0.00000000000E+00 -0.00000000000E+00 -0.45593999997E+02  0.45594000000E+02  0.51100000000E-03 0.  1.
    9900012    2    1    2    0    0  0.73248881671E+01  0.15994744161E+02  0.64181310045E+01  0.72461595299E+02  0.70000032573E+02 0.  0.
         12    1    1    2    0    0 -0.73248881671E+01 -0.15994744161E+02 -0.64181310045E+01  0.18726404701E+02  0.00000000000E+00 0. -1.
         11    1    3    3    0    0  0.58981102878E+01  0.14961308389E+02 -0.11368521744E+02  0.19694459642E+02  0.51100000000E-03 0. -1.
        -11    1    3    3    0    0  0.10637299529E+02  0.43024437306E+01 -0.14811059765E+02  0.18735812097E+02  0.51100000000E-03 0.  1.
         12    1    3    3    0    0 -0.92105216495E+01 -0.32690079578E+01  0.32597712514E+02  0.34031323560E+02  0.00000000000E+00 0. -1.
</event>
<event>
 7    1  0.3196678E-013  0.7246137E+02  0.7816164E-02  0.1226709E+00
        -11   -1    0    0    0    0  0.00000000000E+00  0.00000000000E+00  0.45593999997E+02  0.45594000000E+02  0.51100000000E-03 0.  1.
         11   -1    0    0    0    0 -0.00000000000E+00 -0.00000000000E+00 -0.45593999997E+02  0.45594000000E+02  0.51100000000E-03 0. -1.
    9900012    2    1    2    0    0 -0.39974006703E+01  0.59907430520E+01  0.17286370919E+02  0.72461365652E+02  0.69999733415E+02 0.  0.
         12    1    1    2    0    0  0.39974006703E+01 -0.59907430520E+01 -0.17286370919E+02  0.18726634348E+02  0.00000000000E+00 0. -1.
         11    1    3    3    0    0 -0.27907430552E+02  0.15538123525E+02  0.24306156440E+02  0.40137852507E+02  0.51100000000E-03 0. -1.
        -11    1    3    3    0    0 -0.92404076024E+00  0.33869928621E+01 -0.13069182350E+01  0.37461456871E+01  0.51100000000E-03 0.  1.
        -12    1    3    3    0    0  0.24834070642E+02 -0.12934373335E+02 -0.57128672863E+01  0.28577367458E+02  0.00000000000E+00 0.  1.
</event>
<event>
 7    1  0.3196678E-013  0.7246152E+02  0.7816164E-02  0.1226708E+00
        -11   -1    0    0    0    0  0.00000000000E+00  0.00000000000E+00  0.45593999997E+02  0.45594000000E+02  0.51100000000E-03 0. -1.
         11   -1    0    0    0    0 -0.00000000000E+00 -0.00000000000E+00 -0.45593999997E+02  0.45594000000E+02  0.51100000000E-03 0.  1.
    9900012    2    1    2    0    0  0.14965212078E+02  0.10938809934E+02 -0.26581765346E+01  0.72461520411E+02  0.69999935017E+02 0.  0.
         12    1    1    2    0    0 -0.14965212078E+02 -0.10938809934E+02  0.26581765346E+01  0.18726479589E+02  0.00000000000E+00 0. -1.
         11    1    3    3    0    0  0.93692118184E+01 -0.10256432445E+02 -0.11749648557E+02  0.18194251237E+02  0.51100000000E-03 0. -1.
        -11    1    3    3    0    0 -0.20719254813E+02  0.18866923228E+01  0.47537225979E+01  0.21341157577E+02  0.51100000000E-03 0.  1.
        -12    1    3    3    0    0  0.26315255073E+02  0.19308550056E+02  0.43377494248E+01  0.32926111597E+02  0.00000000000E+00 0.  1.
</event>
<event>
 7    1  0.3196678E-013  0.7246160E+02  0.7816164E-02  0.1226708E+00
        -11   -1    0    0    0    0  0.00000000000E+00  0.00000000000E+00  0.45593999997E+02  0.45594000000E+02  0.51100000000E-03 0. -1.
         11   -1    0    0    0    0 -0.00000000000E+00 -0.00000000000E+00 -0.45593999997E+02  0.45594000000E+02  0.51100000000E-03 0.  1.
    9900012    2    1    2    0    0  0.11057023891E+01 -0.11444357076E+02 -0.14781136646E+02  0.72461604532E+02  0.70000044602E+02 0.  0.
         12    1    1    2    0    0 -0.11057023891E+01  0.11444357076E+02  0.14781136646E+02  0.18726395468E+02  0.00000000000E+00 0. -1.
         11    1    3    3    0    0 -0.24527088604E+01 -0.25204649604E+01  0.53786415076E+01  0.64263760471E+01  0.51100000000E-03 0. -1.
        -11    1    3    3    0    0 -0.78753411208E+01  0.22129260848E+02 -0.22933587541E+02  0.32827954874E+02  0.51100000000E-03 0.  1.
         12    1    3    3    0    0  0.11433752370E+02 -0.31053152963E+02  0.27738093869E+01  0.33207273612E+02  0.00000000000E+00 0. -1.
</event>
<event>
 7    1  0.3196678E-013  0.7246159E+02  0.7816164E-02  0.1226708E+00
        -11   -1    0    0    0    0  0.00000000000E+00  0.00000000000E+00  0.45593999997E+02  0.45594000000E+02  0.51100000000E-03 0.  1.
         11   -1    0    0    0    0 -0.00000000000E+00 -0.00000000000E+00 -0.45593999997E+02  0.45594000000E+02  0.51100000000E-03 0. -1.
    9900012    2    1    2    0    0  0.85804293440E+01 -0.15990736396E+02  0.46207128395E+01  0.72461590698E+02  0.70000026579E+02 0.  0.
         12    1    1    2    0    0 -0.85804293440E+01  0.15990736396E+02 -0.46207128395E+01  0.18726409302E+02  0.00000000000E+00 0. -1.
         11    1    3    3    0    0 -0.13061639390E+02  0.10551020655E+02  0.66422666523E+01  0.18056859277E+02  0.51100000000E-03 0. -1.
        -11    1    3    3    0    0  0.12301758961E+02  0.12202303855E+01 -0.17382531424E+02  0.21330134428E+02  0.51100000000E-03 0.  1.
        -12    1    3    3    0    0  0.93403097724E+01 -0.27761987437E+02  0.15360977611E+02  0.33074596993E+02  0.00000000000E+00 0.  1.
</event>
<event>
 7    1  0.3196678E-013  0.7246156E+02  0.7816164E-02  0.1226708E+00
        -11   -1    0    0    0    0  0.00000000000E+00  0.00000000000E+00  0.45593999997E+02  0.45594000000E+02  0.51100000000E-03 0.  1.
         11   -1    0    0    0    0 -0.00000000000E+00 -0.00000000000E+00 -0.45593999997E+02  0.45594000000E+02  0.51100000000E-03 0. -1.
    9900012    2    1    2    0    0 -0.16167616108E+02  0.70743269969E+01  0.62643081832E+01  0.72461562269E+02  0.69999989545E+02 0.  0.
         12    1    1    2    0    0  0.16167616108E+02 -0.70743269969E+01 -0.62643081832E+01  0.18726437731E+02  0.00000000000E+00 0. -1.
         11    1    3    3    0    0 -0.17537974517E+01 -0.63681680843E+01  0.20957350858E+02  0.21973618853E+02  0.51100000000E-03 0. -1.
        -11    1    3    3    0    0  0.86329608012E+01  0.21265613587E+02 -0.19987873297E+01  0.23038000878E+02  0.51100000000E-03 0.  1.
         12    1    3    3    0    0 -0.23046779458E+02 -0.78231185054E+01 -0.12694255345E+02  0.27449942537E+02  0.00000000000E+00 0. -1.
</event>
<event>
 7    1  0.3196678E-013  0.7246158E+02  0.7816164E-02  0.1226708E+00
        -11   -1    0    0    0    0  0.00000000000E+00  0.00000000000E+00  0.45593999997E+02  0.45594000000E+02  0.51100000000E-03 0.  1.
         11   -1    0    0    0    0 -0.00000000000E+00 -0.00000000000E+00 -0.45593999997E+02  0.45594000000E+02  0.51100000000E-03 0. -1.
    9900012    2    1    2    0    0  0.18511242984E+02 -0.30855953722E-01 -0.28304800797E+01  0.72461583195E+02  0.70000016805E+02 0.  0.
         12    1    1    2    0    0 -0.18511242984E+02  0.30855953722E-01  0.28304800797E+01  0.18726416805E+02  0.00000000000E+00 0. -1.
         11    1    3    3    0    0 -0.19344504126E+02  0.12817738097E+02 -0.10366885422E+02  0.25416069000E+02  0.51100000000E-03 0. -1.
        -11    1    3    3    0    0  0.22504606069E+01  0.10295596734E+01 -0.60112472603E+01  0.65007430306E+01  0.51100000000E-03 0.  1.
        -12    1    3    3    0    0  0.35605286502E+02 -0.13878153724E+02  0.13547652603E+02  0.40544771164E+02  0.00000000000E+00 0.  1.
</event>
<event>
 7    1  0.3196678E-013  0.7246158E+02  0.7816164E-02  0.1226708E+00
        -11   -1    0    0    0    0  0.00000000000E+00  0.00000000000E+00  0.45593999997E+02  0.45594000000E+02  0.51100000000E-03 0.  1.
         11   -1    0    0    0    0 -0.00000000000E+00 -0.00000000000E+00 -0.45593999997E+02  0.45594000000E+02  0.51100000000E-03 0. -1.
    9900012    2    1    2    0    0 -0.11073189091E+02 -0.38828269636E+00  0.15096771066E+02  0.72461580783E+02  0.70000013663E+02 0.  0.
         12    1    1    2    0    0  0.11073189091E+02  0.38828269636E+00 -0.15096771066E+02  0.18726419217E+02  0.00000000000E+00 0. -1.
         11    1    3    3    0    0 -0.23703357651E+02 -0.15137200875E+01 -0.19680999912E+02  0.30846106241E+02  0.51100000000E-03 0. -1.
        -11    1    3    3    0    0  0.77815233343E+01  0.30429309041E+01  0.22232658574E+01  0.86460653030E+01  0.51100000000E-03 0.  1.
        -12    1    3    3    0    0  0.48486452257E+01 -0.19174935130E+01  0.32554505121E+02  0.32969409239E+02  0.00000000000E+00 0.  1.
</event>
<event>
 7    1  0.3196678E-013  0.7246157E+02  0.7816164E-02  0.1226708E+00
        -11   -1    0    0    0    0  0.00000000000E+00  0.00000000000E+00  0.45593999997E+02  0.45594000000E+02  0.51100000000E-03 0. -1.
         11   -1    0    0    0    0 -0.00000000000E+00 -0.00000000000E+00 -0.45593999997E+02  0.45594000000E+02  0.51100000000E-03 0.  1.
    9900012    2    1    2    0    0  0.67042259395E+01  0.15879263843E+02 -0.73199471494E+01  0.72461567026E+02  0.69999995743E+02 0.  0.
         12    1    1    2    0    0 -0.67042259395E+01 -0.15879263843E+02  0.73199471494E+01  0.18726432974E+02  0.00000000000E+00 0. -1.
         11    1    3    3    0    0  0.76907235891E+00  0.21584412376E+02  0.14374068821E+00  0.21598587721E+02  0.51100000000E-03 0. -1.
        -11    1    3    3    0    0  0.17434491468E+02 -0.10275880883E+01  0.16403515927E+02  0.23960232993E+02  0.51100000000E-03 0.  1.
        -12    1    3    3    0    0 -0.11499337888E+02 -0.46775604441E+01 -0.23867203765E+02  0.26902746312E+02  0.00000000000E+00 0.  1.
</event>
<event>
 7    1  0.3196678E-013  0.7246155E+02  0.7816164E-02  0.1226708E+00
        -11   -1    0    0    0    0  0.00000000000E+00  0.00000000000E+00  0.45593999997E+02  0.45594000000E+02  0.51100000000E-03 0. -1.
         11   -1    0    0    0    0 -0.00000000000E+00 -0.00000000000E+00 -0.45593999997E+02  0.45594000000E+02  0.51100000000E-03 0.  1.
    9900012    2    1    2    0    0 -0.67822815642E+01 -0.17442932336E+02 -0.65161101264E+00  0.72461552696E+02  0.69999977076E+02 0.  0.
         12    1    1    2    0    0  0.67822815642E+01  0.17442932336E+02  0.65161101264E+00  0.18726447304E+02  0.00000000000E+00 0. -1.
         11    1    3    3    0    0 -0.31272577017E+02 -0.17983815849E+02 -0.30821699541E+01  0.36206235343E+02  0.51100000000E-03 0. -1.
        -11    1    3    3    0    0  0.25552204385E+01 -0.33008541105E+01 -0.99401027012E+01  0.10781021812E+02  0.51100000000E-03 0.  1.
        -12    1    3    3    0    0  0.21935075014E+02  0.38417376236E+01  0.12370661643E+02  0.25474295541E+02  0.00000000000E+00 0.  1.
</event>
<event>
 7    1  0.3196678E-013  0.7246160E+02  0.7816164E-02  0.1226708E+00
        -11   -1    0    0    0    0  0.00000000000E+00  0.00000000000E+00  0.45593999997E+02  0.45594000000E+02  0.51100000000E-03 0.  1.
         11   -1    0    0    0    0 -0.00000000000E+00 -0.00000000000E+00 -0.45593999997E+02  0.45594000000E+02  0.51100000000E-03 0. -1.
    9900012    2    1    2    0    0  0.40518611194E+01 -0.11349123433E+01  0.18247530074E+02  0.72461602633E+02  0.70000042127E+02 0.  0.
         12    1    1    2    0    0 -0.40518611194E+01  0.11349123433E+01 -0.18247530074E+02  0.18726397367E+02  0.00000000000E+00 0. -1.
         11    1    3    3    0    0  0.11928255817E+02 -0.13396690568E+02  0.16953145482E+02  0.24681242817E+02  0.51100000000E-03 0. -1.
        -11    1    3    3    0    0 -0.26360705670E+01  0.17876063508E+02  0.20362484917E+02  0.27223763642E+02  0.51100000000E-03 0.  1.
         12    1    3    3    0    0 -0.52403241304E+01 -0.56142852832E+01 -0.19068100326E+02  0.20556596174E+02  0.00000000000E+00 0. -1.
</event>
<event>
 7    1  0.3196678E-013  0.7246158E+02  0.7816164E-02  0.1226708E+00
        -11   -1    0    0    0    0  0.00000000000E+00  0.00000000000E+00  0.45593999997E+02  0.45594000000E+02  0.51100000000E-03 0.  1.
         11   -1    0    0    0    0 -0.00000000000E+00 -0.00000000000E+00 -0.45593999997E+02  0.45594000000E+02  0.51100000000E-03 0. -1.
    9900012    2    1    2    0    0 -0.12661323594E+02  0.56891534745E+01  0.12569935055E+02  0.72461578834E+02  0.70000011125E+02 0.  0.
         12    1    1    2    0    0  0.12661323594E+02 -0.56891534745E+01 -0.12569935055E+02  0.18726421166E+02  0.00000000000E+00 0. -1.
         11    1    3    3    0    0 -0.14146620387E+01  0.14635073048E+02  0.31080449745E+01  0.15028192693E+02  0.51100000000E-03 0. -1.
        -11    1    3    3    0    0 -0.22649008418E+02  0.16170727003E+02  0.10716080704E+02  0.29821206884E+02  0.51100000000E-03 0.  1.
         12    1    3    3    0    0  0.11402346862E+02 -0.25116646576E+02 -0.12541906238E+01  0.27612179257E+02  0.00000000000E+00 0. -1.
</event>
<event>
 7    1  0.3196678E-013  0.7246187E+02  0.7816164E-02  0.1226707E+00
        -11   -1    0    0    0    0  0.00000000000E+00  0.00000000000E+00  0.45593999997E+02  0.45594000000E+02  0.51100000000E-03 0.  1.
         11   -1    0    0    0    0 -0.00000000000E+00 -0.00000000000E+00 -0.45593999997E+02  0.45594000000E+02  0.51100000000E-03 0. -1.
    9900012    2    1    2    0    0  0.66448626005E+01  0.12982566709E+02  0.11745917280E+02  0.72461873596E+02  0.70000395106E+02 0.  0.
         12    1    1    2    0    0 -0.66448626005E+01 -0.12982566709E+02 -0.11745917280E+02  0.18726126404E+02  0.00000000000E+00 0. -1.
         11    1    3    3    0    0 -0.11439161584E+02 -0.50445328737E+01 -0.95605222312E+01  0.15738656717E+02  0.51100000000E-03 0. -1.
        -11    1    3    3    0    0  0.20793599120E+02  0.43839486085E+01 -0.92295265763E+01  0.23168446880E+02  0.51100000000E-03 0.  1.
        -12    1    3    3    0    0 -0.27095749355E+01  0.13643150975E+02  0.30535966087E+02  0.33554769999E+02  0.00000000000E+00 0.  1.
</event>
<event>
 7    1  0.3196678E-013  0.7246157E+02  0.7816164E-02  0.1226708E+00
        -11   -1    0    0    0    0  0.00000000000E+00  0.00000000000E+00  0.45593999997E+02  0.45594000000E+02  0.51100000000E-03 0. -1.
         11   -1    0    0    0    0 -0.00000000000E+00 -0.00000000000E+00 -0.45593999997E+02  0.45594000000E+02  0.51100000000E-03 0.  1.
    9900012    2    1    2    0    0  0.71095542114E+01  0.31455788817E+01 -0.17036395570E+02  0.72461569438E+02  0.69999998884E+02 0.  0.
         12    1    1    2    0    0 -0.71095542114E+01 -0.31455788817E+01  0.17036395570E+02  0.18726430562E+02  0.00000000000E+00 0. -1.
         11    1    3    3    0    0  0.19690506988E+02 -0.23871083610E+02 -0.79212391358E+01  0.31941990042E+02  0.51100000000E-03 0. -1.
        -11    1    3    3    0    0 -0.95137799447E+01  0.12658851133E+02  0.81879949906E+01  0.17826995907E+02  0.51100000000E-03 0.  1.
        -12    1    3    3    0    0 -0.30671728314E+01  0.14357811358E+02 -0.17303151425E+02  0.22692583489E+02  0.00000000000E+00 0.  1.
</event>
<event>
 7    1  0.3196678E-013  0.7246127E+02  0.7816164E-02  0.1226709E+00
        -11   -1    0    0    0    0  0.00000000000E+00  0.00000000000E+00  0.45593999997E+02  0.45594000000E+02  0.51100000000E-03 0. -1.
         11   -1    0    0    0    0 -0.00000000000E+00 -0.00000000000E+00 -0.45593999997E+02  0.45594000000E+02  0.51100000000E-03 0.  1.
    9900012    2    1    2    0    0 -0.84134512021E+01  0.12288518194E+02 -0.11353259884E+02  0.72461271761E+02  0.69999611104E+02 0.  0.
         12    1    1    2    0    0  0.84134512021E+01 -0.12288518194E+02  0.11353259884E+02  0.18726728239E+02  0.00000000000E+00 0. -1.
         11    1    3    3    0    0  0.13051405728E+02  0.11119141021E+02  0.63104420855E+01  0.18270089438E+02  0.51100000000E-03 0. -1.
        -11    1    3    3    0    0 -0.48354925752E+01 -0.22010378905E+02 -0.56214526679E+01  0.23225836871E+02  0.51100000000E-03 0.  1.
        -12    1    3    3    0    0 -0.16629364355E+02  0.23179756079E+02 -0.12042249302E+02  0.30965345452E+02  0.00000000000E+00 0.  1.
</event>
<event>
 7    1  0.4004018E-013  0.7246166E+02  0.7816164E-02  0.1226708E+00
        -11   -1    0    0    0    0  0.00000000000E+00  0.00000000000E+00  0.45593999997E+02  0.45594000000E+02  0.51100000000E-03 0. -1.
         11   -1    0    0    0    0 -0.00000000000E+00 -0.00000000000E+00 -0.45593999997E+02  0.45594000000E+02  0.51100000000E-03 0.  1.
    9900012    2    1    2    0    0 -0.18012345884E+02 -0.16877571036E+01 -0.48355704852E+01  0.72461658387E+02  0.70000114757E+02 0.  0.
         12    1    1    2    0    0  0.18012345884E+02  0.16877571036E+01  0.48355704852E+01  0.18726341613E+02  0.00000000000E+00 0. -1.
         11    1    3    3    0    0 -0.19303433862E+02 -0.13029039666E+02  0.70012103591E+01  0.24318622087E+02  0.51100000000E-03 0. -1.
        -11    1    3    3    0    0 -0.11780759264E+02 -0.85295755606E+01 -0.18414228968E+02  0.23465373997E+02  0.51100000000E-03 0.  1.
         12    1    3    3    0    0  0.13071847242E+02  0.19870858123E+02  0.65774481236E+01  0.24677662302E+02  0.00000000000E+00 0. -1.
</event>
<event>
 7    1  0.3196678E-013  0.7246158E+02  0.7816164E-02  0.1226708E+00
        -11   -1    0    0    0    0  0.00000000000E+00  0.00000000000E+00  0.45593999997E+02  0.45594000000E+02  0.51100000000E-03 0.  1.
         11   -1    0    0    0    0 -0.00000000000E+00 -0.00000000000E+00 -0.45593999997E+02  0.45594000000E+02  0.51100000000E-03 0. -1.
    9900012    2    1    2    0    0  0.48567102414E+00  0.15856874777E+02  0.99499888920E+01  0.72461584620E+02  0.70000018662E+02 0.  0.
         12    1    1    2    0    0 -0.48567102414E+00 -0.15856874777E+02 -0.99499888920E+01  0.18726415380E+02  0.00000000000E+00 0. -1.
         11    1    3    3    0    0  0.32246392217E+01  0.67290948652E+01 -0.24824585974E+02  0.25921787841E+02  0.51100000000E-03 0. -1.
        -11    1    3    3    0    0 -0.66839661213E+01  0.13839705028E+02  0.50365211980E+01  0.16173415979E+02  0.51100000000E-03 0.  1.
        -12    1    3    3    0    0  0.39449979237E+01 -0.47119251167E+01  0.29738053668E+02  0.30366380800E+02  0.00000000000E+00 0.  1.
</event>
<event>
 7    1  0.3196678E-013  0.7246157E+02  0.7816164E-02  0.1226708E+00
        -11   -1    0    0    0    0  0.00000000000E+00  0.00000000000E+00  0.45593999997E+02  0.45594000000E+02  0.51100000000E-03 0.  1.
         11   -1    0    0    0    0 -0.00000000000E+00 -0.00000000000E+00 -0.45593999997E+02  0.45594000000E+02  0.51100000000E-03 0. -1.
    9900012    2    1    2    0    0 -0.68228675094E+00 -0.18154173360E+02 -0.45430824028E+01  0.72461571528E+02  0.70000001607E+02 0.  0.
         12    1    1    2    0    0  0.68228675094E+00  0.18154173360E+02  0.45430824028E+01  0.18726428472E+02  0.00000000000E+00 0. -1.
         11    1    3    3    0    0  0.10536893498E+02 -0.25608208877E+00 -0.89579980963E+01  0.13832477463E+02  0.51100000000E-03 0. -1.
        -11    1    3    3    0    0  0.16176826269E+02  0.10273680090E+02  0.17256105316E+01  0.19240996407E+02  0.51100000000E-03 0.  1.
        -12    1    3    3    0    0 -0.27396006518E+02 -0.28171771362E+02  0.26893051620E+01  0.39388097658E+02  0.00000000000E+00 0.  1.
</event>
<event>
 7    1  0.3196678E-013  0.7246160E+02  0.7816164E-02  0.1226708E+00
        -11   -1    0    0    0    0  0.00000000000E+00  0.00000000000E+00  0.45593999997E+02  0.45594000000E+02  0.51100000000E-03 0.  1.
         11   -1    0    0    0    0 -0.00000000000E+00 -0.00000000000E+00 -0.45593999997E+02  0.45594000000E+02  0.51100000000E-03 0. -1.
    9900012    2    1    2    0    0 -0.40904778164E+01  0.16817467057E+02 -0.71497505394E+01  0.72461597789E+02  0.70000035817E+02 0.  0.
         12    1    1    2    0    0  0.40904778164E+01 -0.16817467057E+02  0.71497505394E+01  0.18726402211E+02  0.00000000000E+00 0. -1.
         11    1    3    3    0    0  0.11171031701E+02  0.18566236363E+02 -0.22308658021E+02  0.31099410041E+02  0.51100000000E-03 0. -1.
        -11    1    3    3    0    0 -0.48578149336E+01  0.20329694564E+01 -0.11417024688E+02  0.12572978316E+02  0.51100000000E-03 0.  1.
        -12    1    3    3    0    0 -0.10403694583E+02 -0.37817387623E+01  0.26575932170E+02  0.28789209432E+02  0.00000000000E+00 0.  1.
</event>
<event>
 7    1  0.3196678E-013  0.7246161E+02  0.7816164E-02  0.1226708E+00
        -11   -1    0    0    0    0  0.00000000000E+00  0.00000000000E+00  0.45593999997E+02  0.45594000000E+02  0.51100000000E-03 0. -1.
         11   -1    0    0    0    0 -0.00000000000E+00 -0.00000000000E+00 -0.45593999997E+02  0.45594000000E+02  0.51100000000E-03 0.  1.
    9900012    2    1    2    0    0  0.82888087812E+01  0.15296674465E+02 -0.69271370055E+01  0.72461606119E+02  0.70000046668E+02 0.  0.
         12    1    1    2    0    0 -0.82888087812E+01 -0.15296674465E+02  0.69271370055E+01  0.18726393881E+02  0.00000000000E+00 0. -1.
         11    1    3    3    0    0 -0.45155740351E+01 -0.10325985472E+02  0.97515094018E+00  0.11312263454E+02  0.51100000000E-03 0. -1.
        -11    1    3    3    0    0 -0.69819472257E+01  0.19198220141E+01 -0.24880812087E+02  0.25913087697E+02  0.51100000000E-03 0.  1.
         12    1    3    3    0    0  0.19786330042E+02  0.23702837923E+02  0.16978524141E+02  0.35236254968E+02  0.00000000000E+00 0. -1.
</event>
<event>
 7    1  0.3196678E-013  0.7246152E+02  0.7816164E-02  0.1226708E+00
        -11   -1    0    0    0    0  0.00000000000E+00  0.00000000000E+00  0.45593999997E+02  0.45594000000E+02  0.51100000000E-03 0.  1.
         11   -1    0    0    0    0 -0.00000000000E+00 -0.00000000000E+00 -0.45593999997E+02  0.45594000000E+02  0.51100000000E-03 0. -1.
    9900012    2    1    2    0    0 -0.10095117095E+02 -0.12000019463E+02  0.10235680034E+02  0.72461521367E+02  0.69999936262E+02 0.  0.
         12    1    1    2    0    0  0.10095117095E+02  0.12000019463E+02 -0.10235680034E+02  0.18726478633E+02  0.00000000000E+00 0. -1.
         11    1    3    3    0    0 -0.15088364412E+02  0.62773402565E+01 -0.15190649813E+02  0.22311870906E+02  0.51100000000E-03 0. -1.
        -11    1    3    3    0    0 -0.94023369197E+00  0.12161402438E+02  0.65554491136E+01  0.13847659080E+02  0.51100000000E-03 0.  1.
        -12    1    3    3    0    0  0.59334810098E+01 -0.30438762157E+02  0.18870880732E+02  0.36301991380E+02  0.00000000000E+00 0.  1.
</event>
<event>
 7    1  0.3196678E-013  0.7246162E+02  0.7816164E-02  0.1226708E+00
        -11   -1    0    0    0    0  0.00000000000E+00  0.00000000000E+00  0.45593999997E+02  0.45594000000E+02  0.51100000000E-03 0. -1.
         11   -1    0    0    0    0 -0.00000000000E+00 -0.00000000000E+00 -0.45593999997E+02  0.45594000000E+02  0.51100000000E-03 0.  1.
    9900012    2    1    2    0    0 -0.25532251448E+01 -0.28119107068E+01 -0.18337159677E+02  0.72461622201E+02  0.70000067618E+02 0.  0.
         12    1    1    2    0    0  0.25532251448E+01  0.28119107068E+01  0.18337159677E+02  0.18726377799E+02  0.00000000000E+00 0. -1.
         11    1    3    3    0    0 -0.60045557405E+00 -0.82552875702E+01  0.20625215375E+02  0.22224082192E+02  0.51100000000E-03 0. -1.
        -11    1    3    3    0    0 -0.89712288427E+01 -0.89762983156E+01 -0.70386186750E+01  0.14512030578E+02  0.51100000000E-03 0.  1.
        -12    1    3    3    0    0  0.70184592719E+01  0.14419675179E+02 -0.31923756377E+02  0.35725509430E+02  0.00000000000E+00 0.  1.
</event>
<event>
 7    1  0.3196678E-013  0.7246143E+02  0.7816164E-02  0.1226708E+00
        -11   -1    0    0    0    0  0.00000000000E+00  0.00000000000E+00  0.45593999997E+02  0.45594000000E+02  0.51100000000E-03 0.  1.
         11   -1    0    0    0    0 -0.00000000000E+00 -0.00000000000E+00 -0.45593999997E+02  0.45594000000E+02  0.51100000000E-03 0. -1.
    9900012    2    1    2    0    0 -0.18148243750E+02 -0.17255348770E+01  0.42834783991E+01  0.72461430399E+02  0.69999817760E+02 0.  0.
         12    1    1    2    0    0  0.18148243750E+02  0.17255348770E+01 -0.42834783991E+01  0.18726569601E+02  0.00000000000E+00 0. -1.
         11    1    3    3    0    0 -0.74315352766E+01  0.11044929056E+02 -0.94416109089E+01  0.16320606338E+02  0.51100000000E-03 0. -1.
        -11    1    3    3    0    0  0.13715603151E+02  0.10571080603E+01  0.22807069563E+02  0.26634520261E+02  0.51100000000E-03 0.  1.
         12    1    3    3    0    0 -0.24432311625E+02 -0.13827571993E+02 -0.90819802546E+01  0.29506303800E+02  0.00000000000E+00 0. -1.
</event>
<event>
 7    1  0.3196678E-013  0.7246159E+02  0.7816164E-02  0.1226708E+00
        -11   -1    0    0    0    0  0.00000000000E+00  0.00000000000E+00  0.45593999997E+02  0.45594000000E+02  0.51100000000E-03 0.  1.
         11   -1    0    0    0    0 -0.00000000000E+00 -0.00000000000E+00 -0.45593999997E+02  0.45594000000E+02  0.51100000000E-03 0. -1.
    9900012    2    1    2    0    0  0.16300028785E+01  0.41969246071E+01  0.18177111062E+02  0.72461589450E+02  0.70000024954E+02 0.  0.
         12    1    1    2    0    0 -0.16300028785E+01 -0.41969246071E+01 -0.18177111062E+02  0.18726410550E+02  0.00000000000E+00 0. -1.
         11    1    3    3    0    0  0.67058788114E+01 -0.28640134933E+00 -0.61227830763E+01  0.90851147063E+01  0.51100000000E-03 0. -1.
        -11    1    3    3    0    0  0.11026093312E+02  0.27407390685E+02  0.66993560930E+01  0.30292262547E+02  0.51100000000E-03 0.  1.
        -12    1    3    3    0    0 -0.16101969245E+02 -0.22924064728E+02  0.17600538045E+02  0.33084212197E+02  0.00000000000E+00 0.  1.
</event>
<event>
 7    1  0.3196678E-013  0.7246118E+02  0.7816164E-02  0.1226709E+00
        -11   -1    0    0    0    0  0.00000000000E+00  0.00000000000E+00  0.45593999997E+02  0.45594000000E+02  0.51100000000E-03 0.  1.
         11   -1    0    0    0    0 -0.00000000000E+00 -0.00000000000E+00 -0.45593999997E+02  0.45594000000E+02  0.51100000000E-03 0. -1.
    9900012    2    1    2    0    0 -0.70710793959E+01 -0.82460574272E+01 -0.15254376928E+02  0.72461183870E+02  0.69999496609E+02 0.  0.
         12    1    1    2    0    0  0.70710793959E+01  0.82460574272E+01  0.15254376928E+02  0.18726816130E+02  0.00000000000E+00 0. -1.
         11    1    3    3    0    0  0.54281497501E+01 -0.25468502862E+02 -0.20844609332E+02  0.33355766911E+02  0.51100000000E-03 0. -1.
        -11    1    3    3    0    0 -0.71917600214E+00 -0.68635510243E+01 -0.66927422718E+01  0.96134461128E+01  0.51100000000E-03 0.  1.
         12    1    3    3    0    0 -0.11780053144E+02  0.24085996459E+02  0.12282974676E+02  0.29491970846E+02  0.00000000000E+00 0. -1.
</event>
<event>
 7    1  0.3196678E-013  0.7246161E+02  0.7816164E-02  0.1226708E+00
        -11   -1    0    0    0    0  0.00000000000E+00  0.00000000000E+00  0.45593999997E+02  0.45594000000E+02  0.51100000000E-03 0.  1.
         11   -1    0    0    0    0 -0.00000000000E+00 -0.00000000000E+00 -0.45593999997E+02  0.45594000000E+02  0.51100000000E-03 0. -1.
    9900012    2    1    2    0    0  0.81172504207E+01 -0.31994292142E+01  0.16569597456E+02  0.72461610558E+02  0.70000052451E+02 0.  0.
         12    1    1    2    0    0 -0.81172504207E+01  0.31994292142E+01 -0.16569597456E+02  0.18726389442E+02  0.00000000000E+00 0. -1.
         11    1    3    3    0    0 -0.70059327555E+01  0.14796150665E+01 -0.22184117683E+02  0.23311101049E+02  0.51100000000E-03 0. -1.
        -11    1    3    3    0    0  0.79609010417E+01 -0.90495906718E+01  0.29933269929E+01  0.12418979164E+02  0.51100000000E-03 0.  1.
        -12    1    3    3    0    0  0.71622821345E+01  0.43705463911E+01  0.35760388146E+02  0.36731530345E+02  0.00000000000E+00 0.  1.
</event>
<event>
 7    1  0.3196678E-013  0.7246163E+02  0.7816164E-02  0.1226708E+00
        -11   -1    0    0    0    0  0.00000000000E+00  0.00000000000E+00  0.45593999997E+02  0.45594000000E+02  0.51100000000E-03 0. -1.
         11   -1    0    0    0    0 -0.00000000000E+00 -0.00000000000E+00 -0.45593999997E+02  0.45594000000E+02  0.51100000000E-03 0.  1.
    9900012    2    1    2    0    0  0.17685250660E+02  0.29777358444E+01  0.53890713261E+01  0.72461625780E+02  0.70000072281E+02 0.  0.
         12    1    1    2    0    0 -0.17685250660E+02 -0.29777358444E+01 -0.53890713261E+01  0.18726374220E+02  0.00000000000E+00 0. -1.
         11    1    3    3    0    0  0.54913329214E+01 -0.10019114764E+02  0.12986226556E+01  0.11498861638E+02  0.51100000000E-03 0. -1.
        -11    1    3    3    0    0 -0.17928989437E+02 -0.74389700303E-01 -0.14651195641E+02  0.23154086681E+02  0.51100000000E-03 0.  1.
         12    1    3    3    0    0  0.30122907175E+02  0.13071240308E+02  0.18741644312E+02  0.37808677462E+02  0.00000000000E+00 0. -1.
</event>
<event>
 7    1  0.3196678E-013  0.7246158E+02  0.7816164E-02  0.1226708E+00
        -11   -1    0    0    0    0  0.00000000000E+00  0.00000000000E+00  0.45593999997E+02  0.45594000000E+02  0.51100000000E-03 0.  1.
         11   -1    0    0    0    0 -0.00000000000E+00 -0.00000000000E+00 -0.45593999997E+02  0.45594000000E+02  0.51100000000E-03 0. -1.
    9900012    2    1    2    0    0 -0.32839922055E+01 -0.17592090344E+01  0.18352098208E+02  0.72461576693E+02  0.70000008335E+02 0.  0.
         12    1    1    2    0    0  0.32839922055E+01  0.17592090344E+01 -0.18352098208E+02  0.18726423307E+02  0.00000000000E+00 0. -1.
         11    1    3    3    0    0 -0.23817594103E+02  0.11170986684E+02 -0.38654699442E+01  0.26589670748E+02  0.51100000000E-03 0. -1.
        -11    1    3    3    0    0  0.75367353718E+00 -0.13897810220E+02  0.22040854722E+02  0.26067535938E+02  0.51100000000E-03 0.  1.
        -12    1    3    3    0    0  0.19779928360E+02  0.96761450222E+00  0.17671343007E+00  0.19804370007E+02  0.00000000000E+00 0.  1.
</event>
<event>
 7    1  0.3196678E-013  0.7246163E+02  0.7816164E-02  0.1226708E+00
        -11   -1    0    0    0    0  0.00000000000E+00  0.00000000000E+00  0.45593999997E+02  0.45594000000E+02  0.51100000000E-03 0. -1.
         11   -1    0    0    0    0 -0.00000000000E+00 -0.00000000000E+00 -0.45593999997E+02  0.45594000000E+02  0.51100000000E-03 0.  1.
    9900012    2    1    2    0    0 -0.18178326077E+02 -0.38568162501E+01 -0.23130842842E+01  0.72461630105E+02  0.70000077914E+02 0.  0.
         12    1    1    2    0    0  0.18178326077E+02  0.38568162501E+01  0.23130842842E+01  0.18726369895E+02  0.00000000000E+00 0. -1.
         11    1    3    3    0    0 -0.10248496945E+02 -0.16475996286E+02  0.14791835165E+01  0.19459653835E+02  0.51100000000E-03 0. -1.
        -11    1    3    3    0    0 -0.28020670282E+02  0.10737918737E+02 -0.10415826311E+02  0.31763978023E+02  0.51100000000E-03 0.  1.
         12    1    3    3    0    0  0.20090841150E+02  0.18812612979E+01  0.66235585099E+01  0.21237998246E+02  0.00000000000E+00 0. -1.
</event>
<event>
 7    1  0.3196678E-013  0.7246152E+02  0.7816164E-02  0.1226708E+00
        -11   -1    0    0    0    0  0.00000000000E+00  0.00000000000E+00  0.45593999997E+02  0.45594000000E+02  0.51100000000E-03 0. -1.
         11   -1    0    0    0    0 -0.00000000000E+00 -0.00000000000E+00 -0.45593999997E+02  0.45594000000E+02  0.51100000000E-03 0.  1.
    9900012    2    1    2    0    0 -0.72192429529E+01  0.64667773215E+01 -0.16023245984E+02  0.72461519028E+02  0.69999933216E+02 0.  0.
         12    1    1    2    0    0  0.72192429529E+01 -0.64667773215E+01  0.16023245984E+02  0.18726480972E+02  0.00000000000E+00 0. -1.
         11    1    3    3    0    0  0.71027727825E+01  0.69575589651E+00  0.32965214583E+01  0.78613301326E+01  0.51100000000E-03 0. -1.
        -11    1    3    3    0    0  0.21121484698E+02 -0.28122882169E+01  0.34819392869E+01  0.21590506763E+02  0.51100000000E-03 0.  1.
         12    1    3    3    0    0 -0.35443500433E+02  0.85833096418E+01 -0.22801706729E+02  0.43009682132E+02  0.00000000000E+00 0. -1.
</event>
<event>
 7    1  0.3196678E-013  0.7246163E+02  0.7816164E-02  0.1226708E+00
        -11   -1    0    0    0    0  0.00000000000E+00  0.00000000000E+00  0.45593999997E+02  0.45594000000E+02  0.51100000000E-03 0. -1.
         11   -1    0    0    0    0 -0.00000000000E+00 -0.00000000000E+00 -0.45593999997E+02  0.45594000000E+02  0.51100000000E-03 0.  1.
    9900012    2    1    2    0    0 -0.51714462037E+00 -0.18202059612E+02  0.43697354110E+01  0.72461628215E+02  0.70000075453E+02 0.  0.
         12    1    1    2    0    0  0.51714462037E+00  0.18202059612E+02 -0.43697354110E+01  0.18726371785E+02  0.00000000000E+00 0. -1.
         11    1    3    3    0    0 -0.12154823727E+02  0.14200980409E+02  0.71457009298E+01  0.20011712232E+02  0.51100000000E-03 0. -1.
        -11    1    3    3    0    0 -0.35756036465E+01  0.78393653555E+01  0.28187199633E+01  0.90656369388E+01  0.51100000000E-03 0.  1.
        -12    1    3    3    0    0  0.15213282753E+02 -0.40242405376E+02 -0.55946854821E+01  0.43384279045E+02  0.00000000000E+00 0.  1.
</event>
<event>
 7    1  0.3196678E-013  0.7246157E+02  0.7816164E-02  0.1226708E+00
        -11   -1    0    0    0    0  0.00000000000E+00  0.00000000000E+00  0.45593999997E+02  0.45594000000E+02  0.51100000000E-03 0. -1.
         11   -1    0    0    0    0 -0.00000000000E+00 -0.00000000000E+00 -0.45593999997E+02  0.45594000000E+02  0.51100000000E-03 0.  1.
    9900012    2    1    2    0    0  0.48053729270E+01 -0.15912565170E+02  0.86242689672E+01  0.72461565356E+02  0.69999993567E+02 0.  0.
         12    1    1    2    0    0 -0.48053729270E+01  0.15912565170E+02 -0.86242689672E+01  0.18726434644E+02  0.00000000000E+00 0. -1.
         11    1    3    3    0    0  0.11718313371E+02  0.16583073124E+02 -0.67570564167E+01  0.21400350329E+02  0.51100000000E-03 0. -1.
        -11    1    3    3    0    0 -0.22961574306E+01 -0.13995427351E+02  0.25719991693E+02  0.29371113336E+02  0.51100000000E-03 0.  1.
        -12    1    3    3    0    0 -0.46167830136E+01 -0.18500210943E+02 -0.10338666309E+02  0.21690101691E+02  0.00000000000E+00 0.  1.
</event>
<event>
 7    1  0.3196678E-013  0.7246177E+02  0.7816164E-02  0.1226707E+00
        -11   -1    0    0    0    0  0.00000000000E+00  0.00000000000E+00  0.45593999997E+02  0.45594000000E+02  0.51100000000E-03 0.  1.
         11   -1    0    0    0    0 -0.00000000000E+00 -0.00000000000E+00 -0.45593999997E+02  0.45594000000E+02  0.51100000000E-03 0. -1.
    9900012    2    1    2    0    0 -0.50744646776E+01 -0.41147519137E+01  0.17549649136E+02  0.72461773474E+02  0.70000264679E+02 0.  0.
         12    1    1    2    0    0  0.50744646776E+01  0.41147519137E+01 -0.17549649136E+02  0.18726226526E+02  0.00000000000E+00 0. -1.
         11    1    3    3    0    0 -0.37943232942E+01  0.76870108377E+01  0.18270053282E+02  0.20181225732E+02  0.51100000000E-03 0. -1.
        -11    1    3    3    0    0 -0.21292028444E+02 -0.21272429650E+02  0.57250135361E+00  0.30103064570E+02  0.51100000000E-03 0.  1.
         12    1    3    3    0    0  0.20011887060E+02  0.94706668983E+01 -0.12929054991E+01  0.22177483172E+02  0.00000000000E+00 0. -1.
</event>
<event>
 7    1  0.3196678E-013  0.7246161E+02  0.7816164E-02  0.1226708E+00
        -11   -1    0    0    0    0  0.00000000000E+00  0.00000000000E+00  0.45593999997E+02  0.45594000000E+02  0.51100000000E-03 0.  1.
         11   -1    0    0    0    0 -0.00000000000E+00 -0.00000000000E+00 -0.45593999997E+02  0.45594000000E+02  0.51100000000E-03 0. -1.
    9900012    2    1    2    0    0 -0.92676556475E+01  0.25281224421E+01  0.16074721633E+02  0.72461614341E+02  0.70000057379E+02 0.  0.
         12    1    1    2    0    0  0.92676556475E+01 -0.25281224421E+01 -0.16074721633E+02  0.18726385659E+02  0.00000000000E+00 0. -1.
         11    1    3    3    0    0  0.62312634630E+01  0.27807412874E+02 -0.93609089943E+01  0.29995124147E+02  0.51100000000E-03 0. -1.
        -11    1    3    3    0    0 -0.50564003205E+01 -0.49421450575E+01 -0.14056443795E+01  0.72088708099E+01  0.51100000000E-03 0.  1.
        -12    1    3    3    0    0 -0.10442518790E+02 -0.20337145375E+02  0.26841275007E+02  0.35257619384E+02  0.00000000000E+00 0.  1.
</event>
<event>
 7    1  0.3196678E-013  0.7246159E+02  0.7816164E-02  0.1226708E+00
        -11   -1    0    0    0    0  0.00000000000E+00  0.00000000000E+00  0.45593999997E+02  0.45594000000E+02  0.51100000000E-03 0.  1.
         11   -1    0    0    0    0 -0.00000000000E+00 -0.00000000000E+00 -0.45593999997E+02  0.45594000000E+02  0.51100000000E-03 0. -1.
    9900012    2    1    2    0    0  0.18368603234E+02 -0.27355618427E+01  0.24061806376E+01  0.72461585804E+02  0.70000020204E+02 0.  0.
         12    1    1    2    0    0 -0.18368603234E+02  0.27355618427E+01 -0.24061806376E+01  0.18726414196E+02  0.00000000000E+00 0. -1.
         11    1    3    3    0    0  0.82418910936E+01 -0.15079851287E+02 -0.47599728935E+01  0.17832218758E+02  0.51100000000E-03 0. -1.
        -11    1    3    3    0    0  0.31372291597E+02  0.56945151215E+01  0.47474619949E+01  0.32236416956E+02  0.51100000000E-03 0.  1.
         12    1    3    3    0    0 -0.21245579456E+02  0.66497743224E+01  0.24186915361E+01  0.22392950090E+02  0.00000000000E+00 0. -1.
</event>
<event>
 7    1  0.3196678E-013  0.7246148E+02  0.7816164E-02  0.1226708E+00
        -11   -1    0    0    0    0  0.00000000000E+00  0.00000000000E+00  0.45593999997E+02  0.45594000000E+02  0.51100000000E-03 0. -1.
         11   -1    0    0    0    0 -0.00000000000E+00 -0.00000000000E+00 -0.45593999997E+02  0.45594000000E+02  0.51100000000E-03 0.  1.
    9900012    2    1    2    0    0  0.17093041425E+02  0.66584762727E+01  0.37649926919E+01  0.72461480265E+02  0.69999882720E+02 0.  0.
         12    1    1    2    0    0 -0.17093041425E+02 -0.66584762727E+01 -0.37649926919E+01  0.18726519735E+02  0.00000000000E+00 0. -1.
         11    1    3    3    0    0  0.24065285323E+02  0.83730423418E+01  0.78438409840E+01  0.26660300774E+02  0.51100000000E-03 0. -1.
        -11    1    3    3    0    0  0.18997017055E+02  0.29774399256E+01 -0.16090206432E+01  0.19296133115E+02  0.51100000000E-03 0.  1.
        -12    1    3    3    0    0 -0.25969260954E+02 -0.46920059947E+01 -0.24698276489E+01  0.26505046375E+02  0.00000000000E+00 0.  1.
</event>
<event>
 7    1  0.3196678E-013  0.7246156E+02  0.7816164E-02  0.1226708E+00
        -11   -1    0    0    0    0  0.00000000000E+00  0.00000000000E+00  0.45593999997E+02  0.45594000000E+02  0.51100000000E-03 0.  1.
         11   -1    0    0    0    0 -0.00000000000E+00 -0.00000000000E+00 -0.45593999997E+02  0.45594000000E+02  0.51100000000E-03 0. -1.
    9900012    2    1    2    0    0 -0.86396890385E+01 -0.49811300560E+01  0.15850036332E+02  0.72461560535E+02  0.69999987287E+02 0.  0.
         12    1    1    2    0    0  0.86396890385E+01  0.49811300560E+01 -0.15850036332E+02  0.18726439465E+02  0.00000000000E+00 0. -1.
         11    1    3    3    0    0 -0.18739450611E+02  0.28655025703E+01  0.10117292640E+01  0.18984249012E+02  0.51100000000E-03 0. -1.
        -11    1    3    3    0    0 -0.74425715493E+01 -0.18397907644E+02  0.23920866414E+02  0.31081871359E+02  0.51100000000E-03 0.  1.
        -12    1    3    3    0    0  0.17542333122E+02  0.10551275017E+02 -0.90825593461E+01  0.22395440164E+02  0.00000000000E+00 0.  1.
</event>
<event>
 7    1  0.3196678E-013  0.7246179E+02  0.7816164E-02  0.1226707E+00
        -11   -1    0    0    0    0  0.00000000000E+00  0.00000000000E+00  0.45593999997E+02  0.45594000000E+02  0.51100000000E-03 0. -1.
         11   -1    0    0    0    0 -0.00000000000E+00 -0.00000000000E+00 -0.45593999997E+02  0.45594000000E+02  0.51100000000E-03 0.  1.
    9900012    2    1    2    0    0 -0.15403801977E+02  0.31521007924E+01 -0.10171430075E+02  0.72461792575E+02  0.70000289561E+02 0.  0.
         12    1    1    2    0    0  0.15403801977E+02 -0.31521007924E+01  0.10171430075E+02  0.18726207425E+02  0.00000000000E+00 0. -1.
         11    1    3    3    0    0 -0.75660514959E+01  0.12604987719E+02  0.16811010636E+02  0.22332508357E+02  0.51100000000E-03 0. -1.
        -11    1    3    3    0    0 -0.51659176943E+01  0.15091370372E+02 -0.17507523188E+02  0.23684373198E+02  0.51100000000E-03 0.  1.
         12    1    3    3    0    0 -0.26718327871E+01 -0.24544257299E+02 -0.94749175226E+01  0.26444911020E+02  0.00000000000E+00 0. -1.
</event>
<event>
 7    1  0.3196678E-013  0.7246157E+02  0.7816164E-02  0.1226708E+00
        -11   -1    0    0    0    0  0.00000000000E+00  0.00000000000E+00  0.45593999997E+02  0.45594000000E+02  0.51100000000E-03 0. -1.
         11   -1    0    0    0    0 -0.00000000000E+00 -0.00000000000E+00 -0.45593999997E+02  0.45594000000E+02  0.51100000000E-03 0.  1.
    9900012    2    1    2    0    0 -0.57572042985E+01  0.89698420172E+01 -0.15397259601E+02  0.72461572941E+02  0.70000003448E+02 0.  0.
         12    1    1    2    0    0  0.57572042985E+01 -0.89698420172E+01  0.15397259601E+02  0.18726427059E+02  0.00000000000E+00 0. -1.
         11    1    3    3    0    0 -0.59148728372E+00  0.44670472988E+01 -0.46652731548E+01  0.64860729757E+01  0.51100000000E-03 0. -1.
        -11    1    3    3    0    0 -0.85259636799E+01  0.33572891272E+02  0.46813261713E+00  0.34641741201E+02  0.51100000000E-03 0.  1.
         12    1    3    3    0    0  0.33602466652E+01 -0.29070096554E+02 -0.11200119064E+02  0.31333758765E+02  0.00000000000E+00 0. -1.
</event>
<event>
 7    1  0.3196678E-013  0.7246158E+02  0.7816164E-02  0.1226708E+00
        -11   -1    0    0    0    0  0.00000000000E+00  0.00000000000E+00  0.45593999997E+02  0.45594000000E+02  0.51100000000E-03 0.  1.
         11   -1    0    0    0    0 -0.00000000000E+00 -0.00000000000E+00 -0.45593999997E+02  0.45594000000E+02  0.51100000000E-03 0. -1.
    9900012    2    1    2    0    0 -0.79811407984E+01 -0.75091250164E+01  0.15185301424E+02  0.72461576255E+02  0.70000007764E+02 0.  0.
         12    1    1    2    0    0  0.79811407984E+01  0.75091250164E+01 -0.15185301424E+02  0.18726423745E+02  0.00000000000E+00 0. -1.
         11    1    3    3    0    0 -0.45014305838E+01  0.45657044746E+01 -0.75994223273E+01  0.99428242779E+01  0.51100000000E-03 0. -1.
        -11    1    3    3    0    0  0.11999421789E+02 -0.15495250478E+02 -0.12905876545E+02  0.23465944692E+02  0.51100000000E-03 0.  1.
         12    1    3    3    0    0 -0.15479132004E+02  0.34204209870E+01  0.35690600296E+02  0.39052807284E+02  0.00000000000E+00 0. -1.
</event>
<event>
 7    1  0.3196678E-013  0.7246172E+02  0.7816164E-02  0.1226708E+00
        -11   -1    0    0    0    0  0.00000000000E+00  0.00000000000E+00  0.45593999997E+02  0.45594000000E+02  0.51100000000E-03 0.  1.
         11   -1    0    0    0    0 -0.00000000000E+00 -0.00000000000E+00 -0.45593999997E+02  0.45594000000E+02  0.51100000000E-03 0. -1.
    9900012    2    1    2    0    0  0.32945066636E+01  0.91578679559E+01  0.15998538649E+02  0.72461720109E+02  0.70000195161E+02 0.  0.
         12    1    1    2    0    0 -0.32945066636E+01 -0.91578679559E+01 -0.15998538649E+02  0.18726279891E+02  0.00000000000E+00 0. -1.
         11    1    3    3    0    0 -0.68623613314E+01  0.18792290290E+02 -0.99674958789E+01  0.22351580520E+02  0.51100000000E-03 0. -1.
        -11    1    3    3    0    0 -0.14271471963E+01  0.10199634936E+02  0.25093175116E+02  0.27124467545E+02  0.51100000000E-03 0.  1.
        -12    1    3    3    0    0  0.11584015191E+02 -0.19834057270E+02  0.87285941180E+00  0.22985672044E+02  0.00000000000E+00 0.  1.
</event>
<event>
 7    1  0.3196678E-013  0.7246152E+02  0.7816164E-02  0.1226708E+00
        -11   -1    0    0    0    0  0.00000000000E+00  0.00000000000E+00  0.45593999997E+02  0.45594000000E+02  0.51100000000E-03 0. -1.
         11   -1    0    0    0    0 -0.00000000000E+00 -0.00000000000E+00 -0.45593999997E+02  0.45594000000E+02  0.51100000000E-03 0.  1.
    9900012    2    1    2    0    0 -0.17271833724E+02  0.58633659436E+01  0.42409535039E+01  0.72461521767E+02  0.69999936784E+02 0.  0.
         12    1    1    2    0    0  0.17271833724E+02 -0.58633659436E+01 -0.42409535039E+01  0.18726478233E+02  0.00000000000E+00 0. -1.
         11    1    3    3    0    0 -0.16652824997E+01 -0.56159931550E+01  0.13736171333E+01  0.60165911620E+01  0.51100000000E-03 0. -1.
        -11    1    3    3    0    0  0.47913701888E+01  0.24201067175E+02 -0.21126136909E+02  0.32480186909E+02  0.51100000000E-03 0.  1.
         12    1    3    3    0    0 -0.20397921413E+02 -0.12721708076E+02  0.23993473279E+02  0.33964743696E+02  0.00000000000E+00 0. -1.
</event>
<event>
 7    1  0.3196678E-013  0.7246164E+02  0.7816164E-02  0.1226708E+00
        -11   -1    0    0    0    0  0.00000000000E+00  0.00000000000E+00  0.45593999997E+02  0.45594000000E+02  0.51100000000E-03 0. -1.
         11   -1    0    0    0    0 -0.00000000000E+00 -0.00000000000E+00 -0.45593999997E+02  0.45594000000E+02  0.51100000000E-03 0.  1.
    9900012    2    1    2    0    0  0.18245706382E+02 -0.16294951636E+01 -0.38878877304E+01  0.72461635514E+02  0.70000084960E+02 0.  0.
         12    1    1    2    0    0 -0.18245706382E+02  0.16294951636E+01  0.38878877304E+01  0.18726364486E+02  0.00000000000E+00 0. -1.
         11    1    3    3    0    0  0.14002329762E+01 -0.26682859144E+02 -0.15367532273E+02  0.30823638216E+02  0.51100000000E-03 0. -1.
        -11    1    3    3    0    0 -0.15784012102E+01 -0.22255194871E+01 -0.43320762016E+01  0.51196847408E+01  0.51100000000E-03 0.  1.
        -12    1    3    3    0    0  0.18423874616E+02  0.27278883467E+02  0.15811720744E+02  0.36518312557E+02  0.00000000000E+00 0.  1.
</event>
<event>
 7    1  0.3196678E-013  0.7246166E+02  0.7816164E-02  0.1226708E+00
        -11   -1    0    0    0    0  0.00000000000E+00  0.00000000000E+00  0.45593999997E+02  0.45594000000E+02  0.51100000000E-03 0. -1.
         11   -1    0    0    0    0 -0.00000000000E+00 -0.00000000000E+00 -0.45593999997E+02  0.45594000000E+02  0.51100000000E-03 0.  1.
    9900012    2    1    2    0    0  0.81048868925E+01 -0.15960383433E+02 -0.55002523430E+01  0.72461660082E+02  0.70000116965E+02 0.  0.
         12    1    1    2    0    0 -0.81048868925E+01  0.15960383433E+02  0.55002523430E+01  0.18726339918E+02  0.00000000000E+00 0. -1.
         11    1    3    3    0    0  0.45698668274E+01  0.11729766267E+02 -0.73440886686E+01  0.14574180531E+02  0.51100000000E-03 0. -1.
        -11    1    3    3    0    0  0.27275983273E+01 -0.32724406837E+02  0.20389952189E+02  0.38653288942E+02  0.51100000000E-03 0.  1.
         12    1    3    3    0    0  0.80742173784E+00  0.50342571368E+01 -0.18546115864E+02  0.19234190610E+02  0.00000000000E+00 0. -1.
</event>
<event>
 7    1  0.4086857E-013  0.7246170E+02  0.7816164E-02  0.1226708E+00
        -11   -1    0    0    0    0  0.00000000000E+00  0.00000000000E+00  0.45593999997E+02  0.45594000000E+02  0.51100000000E-03 0.  1.
         11   -1    0    0    0    0 -0.00000000000E+00 -0.00000000000E+00 -0.45593999997E+02  0.45594000000E+02  0.51100000000E-03 0. -1.
    9900012    2    1    2    0    0 -0.32194406103E+01 -0.17916721512E+02  0.43932316871E+01  0.72461703190E+02  0.70000173121E+02 0.  0.
         12    1    1    2    0    0  0.32194406103E+01  0.17916721512E+02 -0.43932316871E+01  0.18726296810E+02  0.00000000000E+00 0. -1.
         11    1    3    3    0    0  0.56868648472E+01  0.90193672994E+01  0.12570269834E+02  0.16483358342E+02  0.51100000000E-03 0.  1.
        -11    1    3    3    0    0  0.13023583643E+02 -0.24966774319E+02 -0.16267880805E+02  0.32520724115E+02  0.51100000000E-03 0. -1.
         12    1    3    3    0    0 -0.21929889100E+02 -0.19693144921E+01  0.80908426583E+01  0.23457620733E+02  0.00000000000E+00 0. -1.
</event>
<event>
 7    1  0.3196678E-013  0.7246138E+02  0.7816164E-02  0.1226709E+00
        -11   -1    0    0    0    0  0.00000000000E+00  0.00000000000E+00  0.45593999997E+02  0.45594000000E+02  0.51100000000E-03 0.  1.
         11   -1    0    0    0    0 -0.00000000000E+00 -0.00000000000E+00 -0.45593999997E+02  0.45594000000E+02  0.51100000000E-03 0. -1.
    9900012    2    1    2    0    0 -0.61512067350E+00  0.12669474372E+02  0.13776515492E+02  0.72461379019E+02  0.69999750827E+02 0.  0.
         12    1    1    2    0    0  0.61512067350E+00 -0.12669474372E+02 -0.13776515492E+02  0.18726620981E+02  0.00000000000E+00 0. -1.
         11    1    3    3    0    0 -0.66734051273E+01  0.11706123872E+02 -0.22559094719E+02  0.26276994252E+02  0.51100000000E-03 0. -1.
        -11    1    3    3    0    0  0.18719209719E+01 -0.11691041873E+02  0.65000198005E+01  0.13506842928E+02  0.51100000000E-03 0.  1.
        -12    1    3    3    0    0  0.41863634819E+01  0.12654392373E+02  0.29835590410E+02  0.32677541839E+02  0.00000000000E+00 0.  1.
</event>
<event>
 7    1  0.3196678E-013  0.7246157E+02  0.7816164E-02  0.1226708E+00
        -11   -1    0    0    0    0  0.00000000000E+00  0.00000000000E+00  0.45593999997E+02  0.45594000000E+02  0.51100000000E-03 0.  1.
         11   -1    0    0    0    0 -0.00000000000E+00 -0.00000000000E+00 -0.45593999997E+02  0.45594000000E+02  0.51100000000E-03 0. -1.
    9900012    2    1    2    0    0 -0.89837562758E+01 -0.15073908394E+02  0.65382413706E+01  0.72461569713E+02  0.69999999242E+02 0.  0.
         12    1    1    2    0    0  0.89837562758E+01  0.15073908394E+02 -0.65382413706E+01  0.18726430287E+02  0.00000000000E+00 0. -1.
         11    1    3    3    0    0 -0.45059055378E+01 -0.17868300749E+02 -0.19897074341E+02  0.27119604053E+02  0.51100000000E-03 0. -1.
        -11    1    3    3    0    0 -0.13312922809E+02 -0.10491313691E+02  0.33473270451E+01  0.17277331255E+02  0.51100000000E-03 0.  1.
        -12    1    3    3    0    0  0.88350720711E+01  0.13285706046E+02  0.23087988667E+02  0.28064634406E+02  0.00000000000E+00 0.  1.
</event>
<event>
 7    1  0.3196678E-013  0.7246157E+02  0.7816164E-02  0.1226708E+00
        -11   -1    0    0    0    0  0.00000000000E+00  0.00000000000E+00  0.45593999997E+02  0.45594000000E+02  0.51100000000E-03 0.  1.
         11   -1    0    0    0    0 -0.00000000000E+00 -0.00000000000E+00 -0.45593999997E+02  0.45594000000E+02  0.51100000000E-03 0. -1.
    9900012    2    1    2    0    0 -0.81013019798E+01  0.16692501130E+02 -0.25315075209E+01  0.72461568998E+02  0.69999998311E+02 0.  0.
         12    1    1    2    0    0  0.81013019798E+01 -0.16692501130E+02  0.25315075209E+01  0.18726431002E+02  0.00000000000E+00 0. -1.
         11    1    3    3    0    0 -0.24085677557E+02 -0.10125730743E+02 -0.92210802725E+01  0.27707013699E+02  0.51100000000E-03 0. -1.
        -11    1    3    3    0    0 -0.26503337864E+01 -0.49742350084E+01 -0.33546145211E+01  0.65590183675E+01  0.51100000000E-03 0.  1.
        -12    1    3    3    0    0  0.18634709364E+02  0.31792466882E+02  0.10044187273E+02  0.38195536931E+02  0.00000000000E+00 0.  1.
</event>
<event>
 7    1  0.3196678E-013  0.7246150E+02  0.7816164E-02  0.1226708E+00
        -11   -1    0    0    0    0  0.00000000000E+00  0.00000000000E+00  0.45593999997E+02  0.45594000000E+02  0.51100000000E-03 0. -1.
         11   -1    0    0    0    0 -0.00000000000E+00 -0.00000000000E+00 -0.45593999997E+02  0.45594000000E+02  0.51100000000E-03 0.  1.
    9900012    2    1    2    0    0  0.99614496859E+01 -0.13504817241E+02 -0.83109092535E+01  0.72461500562E+02  0.69999909161E+02 0.  0.
         12    1    1    2    0    0 -0.99614496859E+01  0.13504817241E+02  0.83109092535E+01  0.18726499438E+02  0.00000000000E+00 0. -1.
         11    1    3    3    0    0  0.12784666748E+01 -0.52453024718E+00 -0.11020063497E+02  0.11106367937E+02  0.51100000000E-03 0. -1.
        -11    1    3    3    0    0 -0.33315298264E+01 -0.12851761989E+02 -0.26572278108E+02  0.29704424609E+02  0.51100000000E-03 0.  1.
         12    1    3    3    0    0  0.12014512838E+02 -0.12852500487E+00  0.29281432351E+02  0.31650708017E+02  0.00000000000E+00 0. -1.
</event>
<event>
 7    1  0.3196678E-013  0.7246155E+02  0.7816164E-02  0.1226708E+00
        -11   -1    0    0    0    0  0.00000000000E+00  0.00000000000E+00  0.45593999997E+02  0.45594000000E+02  0.51100000000E-03 0. -1.
         11   -1    0    0    0    0 -0.00000000000E+00 -0.00000000000E+00 -0.45593999997E+02  0.45594000000E+02  0.51100000000E-03 0.  1.
    9900012    2    1    2    0    0 -0.15604744942E+02  0.81920850762E+01  0.63294134015E+01  0.72461553551E+02  0.69999978189E+02 0.  0.
         12    1    1    2    0    0  0.15604744942E+02 -0.81920850762E+01 -0.63294134015E+01  0.18726446449E+02  0.00000000000E+00 0. -1.
         11    1    3    3    0    0  0.76865098117E+01  0.57346126579E+01 -0.81246612015E+01  0.12568943286E+02  0.51100000000E-03 0. -1.
        -11    1    3    3    0    0 -0.13807030187E+02  0.95926070471E+01 -0.18421674976E+02  0.24940134356E+02  0.51100000000E-03 0.  1.
         12    1    3    3    0    0 -0.94842245669E+01 -0.71351346288E+01  0.32875749579E+02  0.34952475909E+02  0.00000000000E+00 0. -1.
</event>
<event>
 7    1  0.3196678E-013  0.7246159E+02  0.7816164E-02  0.1226708E+00
        -11   -1    0    0    0    0  0.00000000000E+00  0.00000000000E+00  0.45593999997E+02  0.45594000000E+02  0.51100000000E-03 0.  1.
         11   -1    0    0    0    0 -0.00000000000E+00 -0.00000000000E+00 -0.45593999997E+02  0.45594000000E+02  0.51100000000E-03 0. -1.
    9900012    2    1    2    0    0  0.91576659643E+00 -0.99009175626E+01  0.15868576897E+02  0.72461587376E+02  0.70000022252E+02 0.  0.
         12    1    1    2    0    0 -0.91576659643E+00  0.99009175626E+01 -0.15868576897E+02  0.18726412624E+02  0.00000000000E+00 0. -1.
         11    1    3    3    0    0 -0.67060182861E+01  0.24380783670E+02  0.71484966798E+01  0.26277258203E+02  0.51100000000E-03 0. -1.
        -11    1    3    3    0    0 -0.89636157917E+01 -0.23610654160E+01  0.31104534834E+01  0.97773186045E+01  0.51100000000E-03 0.  1.
        -12    1    3    3    0    0  0.16585400674E+02 -0.31920635817E+02  0.56096267334E+01  0.36407010569E+02  0.00000000000E+00 0.  1.
</event>
<event>
 7    1  0.3196678E-013  0.7246162E+02  0.7816164E-02  0.1226708E+00
        -11   -1    0    0    0    0  0.00000000000E+00  0.00000000000E+00  0.45593999997E+02  0.45594000000E+02  0.51100000000E-03 0.  1.
         11   -1    0    0    0    0 -0.00000000000E+00 -0.00000000000E+00 -0.45593999997E+02  0.45594000000E+02  0.51100000000E-03 0. -1.
    9900012    2    1    2    0    0 -0.66017811436E+01  0.15254145432E+02  0.86258328170E+01  0.72461615968E+02  0.70000059498E+02 0.  0.
         12    1    1    2    0    0  0.66017811436E+01 -0.15254145432E+02 -0.86258328170E+01  0.18726384032E+02  0.00000000000E+00 0. -1.
         11    1    3    3    0    0  0.15702189070E+02 -0.36097393414E+00 -0.97769764856E+01  0.18500765207E+02  0.51100000000E-03 0. -1.
        -11    1    3    3    0    0  0.69122757815E+01  0.18033121489E+01  0.20368256059E+02  0.21584655344E+02  0.51100000000E-03 0.  1.
         12    1    3    3    0    0 -0.29216245996E+02  0.13811807217E+02 -0.19654467566E+01  0.32376195416E+02  0.00000000000E+00 0. -1.
</event>
<event>
 7    1  0.3196678E-013  0.7246155E+02  0.7816164E-02  0.1226708E+00
        -11   -1    0    0    0    0  0.00000000000E+00  0.00000000000E+00  0.45593999997E+02  0.45594000000E+02  0.51100000000E-03 0.  1.
         11   -1    0    0    0    0 -0.00000000000E+00 -0.00000000000E+00 -0.45593999997E+02  0.45594000000E+02  0.51100000000E-03 0. -1.
    9900012    2    1    2    0    0 -0.11358589075E+02  0.51020392839E+01 -0.13986831946E+02  0.72461552966E+02  0.69999977426E+02 0.  0.
         12    1    1    2    0    0  0.11358589075E+02 -0.51020392839E+01  0.13986831946E+02  0.18726447034E+02  0.00000000000E+00 0. -1.
         11    1    3    3    0    0 -0.31761797171E+02 -0.80135623068E+01 -0.93703527830E+01  0.34070991355E+02  0.51100000000E-03 0. -1.
        -11    1    3    3    0    0  0.11129251952E+02  0.46768680199E+01 -0.16945479525E+02  0.20805831396E+02  0.51100000000E-03 0.  1.
        -12    1    3    3    0    0  0.92739561436E+01  0.84387335708E+01  0.12329000362E+02  0.17584730215E+02  0.00000000000E+00 0.  1.
</event>
<event>
 7    1  0.3196678E-013  0.7246157E+02  0.7816164E-02  0.1226708E+00
        -11   -1    0    0    0    0  0.00000000000E+00  0.00000000000E+00  0.45593999997E+02  0.45594000000E+02  0.51100000000E-03 0. -1.
         11   -1    0    0    0    0 -0.00000000000E+00 -0.00000000000E+00 -0.45593999997E+02  0.45594000000E+02  0.51100000000E-03 0.  1.
    9900012    2    1    2    0    0 -0.72062316470E+01 -0.13977705383E+02 -0.10167265629E+02  0.72461566471E+02  0.69999995019E+02 0.  0.
         12    1    1    2    0    0  0.72062316470E+01  0.13977705383E+02  0.10167265629E+02  0.18726433529E+02  0.00000000000E+00 0. -1.
         11    1    3    3    0    0  0.16504547921E+02  0.12447309381E+02 -0.62504607362E+01  0.21596385637E+02  0.51100000000E-03 0. -1.
        -11    1    3    3    0    0  0.67613856570E+01 -0.17752639199E+02 -0.23873178840E+01  0.19146065431E+02  0.51100000000E-03 0.  1.
        -12    1    3    3    0    0 -0.30472165225E+02 -0.86723755649E+01 -0.15294870092E+01  0.31719115403E+02  0.00000000000E+00 0.  1.
</event>
<event>
 7    1  0.3196678E-013  0.7246158E+02  0.7816164E-02  0.1226708E+00
        -11   -1    0    0    0    0  0.00000000000E+00  0.00000000000E+00  0.45593999997E+02  0.45594000000E+02  0.51100000000E-03 0.  1.
         11   -1    0    0    0    0 -0.00000000000E+00 -0.00000000000E+00 -0.45593999997E+02  0.45594000000E+02  0.51100000000E-03 0. -1.
    9900012    2    1    2    0    0  0.17117136831E+01 -0.10882526102E+02  0.15143302960E+02  0.72461575818E+02  0.70000007196E+02 0.  0.
         12    1    1    2    0    0 -0.17117136831E+01  0.10882526102E+02 -0.15143302960E+02  0.18726424182E+02  0.00000000000E+00 0. -1.
         11    1    3    3    0    0 -0.12827293654E+00  0.26923219858E+01 -0.70917132460E+01  0.75866625499E+01  0.51100000000E-03 0. -1.
        -11    1    3    3    0    0  0.21524413700E+02  0.12600199569E+02  0.20139513622E+02  0.32057221082E+02  0.51100000000E-03 0.  1.
         12    1    3    3    0    0 -0.19684427081E+02 -0.26175047657E+02  0.20955025840E+01  0.32817692186E+02  0.00000000000E+00 0. -1.
</event>
<event>
 7    1  0.3196678E-013  0.7246157E+02  0.7816164E-02  0.1226708E+00
        -11   -1    0    0    0    0  0.00000000000E+00  0.00000000000E+00  0.45593999997E+02  0.45594000000E+02  0.51100000000E-03 0.  1.
         11   -1    0    0    0    0 -0.00000000000E+00 -0.00000000000E+00 -0.45593999997E+02  0.45594000000E+02  0.51100000000E-03 0. -1.
    9900012    2    1    2    0    0 -0.16922212782E+02  0.16121981232E+01  0.78561299523E+01  0.72461568250E+02  0.69999997338E+02 0.  0.
         12    1    1    2    0    0  0.16922212782E+02 -0.16121981232E+01 -0.78561299523E+01  0.18726431750E+02  0.00000000000E+00 0. -1.
         11    1    3    3    0    0 -0.12449206680E+02 -0.15970488913E+01 -0.32268823789E+01  0.12959401308E+02  0.51100000000E-03 0. -1.
        -11    1    3    3    0    0 -0.12470306160E+02  0.28890491313E+02  0.76755436042E+01  0.32389550690E+02  0.51100000000E-03 0.  1.
         12    1    3    3    0    0  0.79973000573E+01 -0.25681244298E+02  0.34074687270E+01  0.27112616252E+02  0.00000000000E+00 0. -1.
</event>
<event>
 7    1  0.3196678E-013  0.7246153E+02  0.7816164E-02  0.1226708E+00
        -11   -1    0    0    0    0  0.00000000000E+00  0.00000000000E+00  0.45593999997E+02  0.45594000000E+02  0.51100000000E-03 0. -1.
         11   -1    0    0    0    0 -0.00000000000E+00 -0.00000000000E+00 -0.45593999997E+02  0.45594000000E+02  0.51100000000E-03 0.  1.
    9900012    2    1    2    0    0 -0.14046340540E+02  0.12164469599E+02 -0.23252284876E+01  0.72461529679E+02  0.69999947091E+02 0.  0.
         12    1    1    2    0    0  0.14046340540E+02 -0.12164469599E+02  0.23252284876E+01  0.18726470321E+02  0.00000000000E+00 0. -1.
         11    1    3    3    0    0  0.18518418220E+02  0.10541188883E+02 -0.83081946885E+01  0.22870823677E+02  0.51100000000E-03 0. -1.
        -11    1    3    3    0    0  0.71429625892E+01  0.59354026553E+01  0.10797885090E+01  0.93496985361E+01  0.51100000000E-03 0.  1.
        -12    1    3    3    0    0 -0.39707721349E+02 -0.43121219401E+01  0.49031776919E+01  0.40241007465E+02  0.00000000000E+00 0.  1.
</event>
<event>
 7    1  0.3196678E-013  0.7246159E+02  0.7816164E-02  0.1226708E+00
        -11   -1    0    0    0    0  0.00000000000E+00  0.00000000000E+00  0.45593999997E+02  0.45594000000E+02  0.51100000000E-03 0.  1.
         11   -1    0    0    0    0 -0.00000000000E+00 -0.00000000000E+00 -0.45593999997E+02  0.45594000000E+02  0.51100000000E-03 0. -1.
    9900012    2    1    2    0    0  0.43055566773E+01 -0.13578823603E+02  0.12155495984E+02  0.72461592139E+02  0.70000028457E+02 0.  0.
         12    1    1    2    0    0 -0.43055566773E+01  0.13578823603E+02 -0.12155495984E+02  0.18726407861E+02  0.00000000000E+00 0. -1.
         11    1    3    3    0    0 -0.21788716090E+02  0.12936923294E+02 -0.35795260243E+01  0.25591505231E+02  0.51100000000E-03 0. -1.
        -11    1    3    3    0    0  0.38538131608E+01  0.15632179201E+01  0.96885721117E+01  0.10543431888E+02  0.51100000000E-03 0.  1.
        -12    1    3    3    0    0  0.22240459606E+02 -0.28078964816E+02  0.60464498968E+01  0.36326655021E+02  0.00000000000E+00 0.  1.
</event>
<event>
 7    1  0.3196678E-013  0.7246161E+02  0.7816164E-02  0.1226708E+00
        -11   -1    0    0    0    0  0.00000000000E+00  0.00000000000E+00  0.45593999997E+02  0.45594000000E+02  0.51100000000E-03 0. -1.
         11   -1    0    0    0    0 -0.00000000000E+00 -0.00000000000E+00 -0.45593999997E+02  0.45594000000E+02  0.51100000000E-03 0.  1.
    9900012    2    1    2    0    0 -0.49255033513E+01  0.16824243523E+02 -0.65849823156E+01  0.72461608316E+02  0.70000049531E+02 0.  0.
         12    1    1    2    0    0  0.49255033513E+01 -0.16824243523E+02  0.65849823156E+01  0.18726391684E+02  0.00000000000E+00 0. -1.
         11    1    3    3    0    0  0.11238027763E+02  0.17734182557E+02 -0.40084677642E+01  0.21374337722E+02  0.51100000000E-03 0. -1.
        -11    1    3    3    0    0 -0.10629061910E+02  0.85924090947E+01 -0.23651043352E+02  0.27316264442E+02  0.51100000000E-03 0.  1.
         12    1    3    3    0    0 -0.55344692045E+01 -0.95023481288E+01  0.21074528801E+02  0.23771006153E+02  0.00000000000E+00 0. -1.
</event>
<event>
 7    1  0.3196678E-013  0.7246159E+02  0.7816164E-02  0.1226708E+00
        -11   -1    0    0    0    0  0.00000000000E+00  0.00000000000E+00  0.45593999997E+02  0.45594000000E+02  0.51100000000E-03 0.  1.
         11   -1    0    0    0    0 -0.00000000000E+00 -0.00000000000E+00 -0.45593999997E+02  0.45594000000E+02  0.51100000000E-03 0. -1.
    9900012    2    1    2    0    0  0.12188529752E+02 -0.12679867215E+02 -0.64295584841E+01  0.72461587839E+02  0.70000022856E+02 0.  0.
         12    1    1    2    0    0 -0.12188529752E+02  0.12679867215E+02  0.64295584841E+01  0.18726412161E+02  0.00000000000E+00 0. -1.
         11    1    3    3    0    0 -0.52998796405E+01 -0.65452530582E+01 -0.11784521423E+02  0.14484612775E+02  0.51100000000E-03 0. -1.
        -11    1    3    3    0    0  0.96216766263E+00  0.33299329134E+01 -0.23307770363E+02  0.23564090888E+02  0.51100000000E-03 0.  1.
        -12    1    3    3    0    0  0.16526241730E+02 -0.94645470705E+01  0.28662733302E+02  0.34412884176E+02  0.00000000000E+00 0.  1.
</event>
<event>
 7    1  0.3196678E-013  0.7246159E+02  0.7816164E-02  0.1226708E+00
        -11   -1    0    0    0    0  0.00000000000E+00  0.00000000000E+00  0.45593999997E+02  0.45594000000E+02  0.51100000000E-03 0. -1.
         11   -1    0    0    0    0 -0.00000000000E+00 -0.00000000000E+00 -0.45593999997E+02  0.45594000000E+02  0.51100000000E-03 0.  1.
    9900012    2    1    2    0    0 -0.56991421951E+01  0.17776592330E+02  0.14801967720E+01  0.72461589797E+02  0.70000025405E+02 0.  0.
         12    1    1    2    0    0  0.56991421951E+01 -0.17776592330E+02 -0.14801967720E+01  0.18726410203E+02  0.00000000000E+00 0. -1.
         11    1    3    3    0    0 -0.15070824678E+02  0.23319205102E+01 -0.25876491030E+02  0.30035985052E+02  0.51100000000E-03 0. -1.
        -11    1    3    3    0    0 -0.82967844292E+01  0.33720783190E+01  0.18743359845E+01  0.91499005294E+01  0.51100000000E-03 0.  1.
         12    1    3    3    0    0  0.17668466912E+02  0.12072593501E+02  0.25482351818E+02  0.33275704215E+02  0.00000000000E+00 0. -1.
</event>
<event>
 7    1  0.3196678E-013  0.7246153E+02  0.7816164E-02  0.1226708E+00
        -11   -1    0    0    0    0  0.00000000000E+00  0.00000000000E+00  0.45593999997E+02  0.45594000000E+02  0.51100000000E-03 0. -1.
         11   -1    0    0    0    0 -0.00000000000E+00 -0.00000000000E+00 -0.45593999997E+02  0.45594000000E+02  0.51100000000E-03 0.  1.
    9900012    2    1    2    0    0  0.10924503306E+02  0.47944583763E+01 -0.14434303300E+02  0.72461529020E+02  0.69999946233E+02 0.  0.
         12    1    1    2    0    0 -0.10924503306E+02 -0.47944583763E+01  0.14434303300E+02  0.18726470980E+02  0.00000000000E+00 0. -1.
         11    1    3    3    0    0 -0.11219775090E+02  0.37787339228E+00  0.22917905942E+02  0.25519728729E+02  0.51100000000E-03 0. -1.
        -11    1    3    3    0    0  0.48771376497E+01 -0.29690660144E+01 -0.69261197851E+00  0.57516550893E+01  0.51100000000E-03 0.  1.
        -12    1    3    3    0    0  0.17267140746E+02  0.73856509984E+01 -0.36659597263E+02  0.41190145202E+02  0.00000000000E+00 0.  1.
</event>
<event>
 7    1  0.3196678E-013  0.7246155E+02  0.7816164E-02  0.1226708E+00
        -11   -1    0    0    0    0  0.00000000000E+00  0.00000000000E+00  0.45593999997E+02  0.45594000000E+02  0.51100000000E-03 0. -1.
         11   -1    0    0    0    0 -0.00000000000E+00 -0.00000000000E+00 -0.45593999997E+02  0.45594000000E+02  0.51100000000E-03 0.  1.
    9900012    2    1    2    0    0  0.46554879610E+01  0.10719835570E+02 -0.14631866774E+02  0.72461548972E+02  0.69999972224E+02 0.  0.
         12    1    1    2    0    0 -0.46554879610E+01 -0.10719835570E+02  0.14631866774E+02  0.18726451028E+02  0.00000000000E+00 0. -1.
         11    1    3    3    0    0 -0.65649199610E+01  0.25412996214E+02 -0.49834194743E+00  0.26251988413E+02  0.51100000000E-03 0. -1.
        -11    1    3    3    0    0 -0.12153654646E+02  0.17234938170E+01 -0.12621588254E+02  0.17606426171E+02  0.51100000000E-03 0.  1.
        -12    1    3    3    0    0  0.23374062568E+02 -0.16416654461E+02 -0.15119365722E+01  0.28603134388E+02  0.00000000000E+00 0.  1.
</event>
<event>
 7    1  0.3196678E-013  0.7246159E+02  0.7816164E-02  0.1226708E+00
        -11   -1    0    0    0    0  0.00000000000E+00  0.00000000000E+00  0.45593999997E+02  0.45594000000E+02  0.51100000000E-03 0.  1.
         11   -1    0    0    0    0 -0.00000000000E+00 -0.00000000000E+00 -0.45593999997E+02  0.45594000000E+02  0.51100000000E-03 0. -1.
    9900012    2    1    2    0    0 -0.13663865746E+01 -0.17886699290E+02  0.53737767263E+01  0.72461588169E+02  0.70000023285E+02 0.  0.
         12    1    1    2    0    0  0.13663865746E+01  0.17886699290E+02 -0.53737767263E+01  0.18726411831E+02  0.00000000000E+00 0. -1.
         11    1    3    3    0    0 -0.21850733524E+00 -0.19592706566E+02 -0.19388879950E+02  0.27565387028E+02  0.51100000000E-03 0. -1.
        -11    1    3    3    0    0 -0.77613603350E+01 -0.36138611379E+01 -0.75944615733E+01  0.11444411449E+02  0.51100000000E-03 0.  1.
        -12    1    3    3    0    0  0.66134810956E+01  0.53198684135E+01  0.32357118250E+02  0.33451789691E+02  0.00000000000E+00 0.  1.
</event>
<event>
 7    1  0.3196678E-013  0.7246161E+02  0.7816164E-02  0.1226708E+00
        -11   -1    0    0    0    0  0.00000000000E+00  0.00000000000E+00  0.45593999997E+02  0.45594000000E+02  0.51100000000E-03 0. -1.
         11   -1    0    0    0    0 -0.00000000000E+00 -0.00000000000E+00 -0.45593999997E+02  0.45594000000E+02  0.51100000000E-03 0.  1.
    9900012    2    1    2    0    0  0.98728050945E+01  0.15314899021E+02  0.43196227187E+01  0.72461613459E+02  0.70000056230E+02 0.  0.
         12    1    1    2    0    0 -0.98728050945E+01 -0.15314899021E+02 -0.43196227187E+01  0.18726386541E+02  0.00000000000E+00 0. -1.
         11    1    3    3    0    0  0.11223216022E+01 -0.96294183363E+01 -0.82743590464E+00  0.97298485965E+01  0.51100000000E-03 0. -1.
        -11    1    3    3    0    0  0.10979296664E+02  0.16606677794E+01 -0.23355294329E+02  0.25860637003E+02  0.51100000000E-03 0.  1.
        -12    1    3    3    0    0 -0.22288131721E+01  0.23283649578E+02  0.28502352952E+02  0.36871127860E+02  0.00000000000E+00 0.  1.
</event>
<event>
 7    1  0.3196678E-013  0.7246156E+02  0.7816164E-02  0.1226708E+00
        -11   -1    0    0    0    0  0.00000000000E+00  0.00000000000E+00  0.45593999997E+02  0.45594000000E+02  0.51100000000E-03 0. -1.
         11   -1    0    0    0    0 -0.00000000000E+00 -0.00000000000E+00 -0.45593999997E+02  0.45594000000E+02  0.51100000000E-03 0.  1.
    9900012    2    1    2    0    0 -0.11356241551E+02 -0.14611758688E+02  0.28656447562E+01  0.72461557893E+02  0.69999983845E+02 0.  0.
         12    1    1    2    0    0  0.11356241551E+02  0.14611758688E+02 -0.28656447562E+01  0.18726442107E+02  0.00000000000E+00 0. -1.
         11    1    3    3    0    0  0.95751713281E+01  0.11218239177E+02 -0.12603050611E+02  0.19400249513E+02  0.51100000000E-03 0. -1.
        -11    1    3    3    0    0 -0.17522435396E+02  0.54103998029E+01  0.73606926852E+00  0.18353472872E+02  0.51100000000E-03 0.  1.
        -12    1    3    3    0    0 -0.34089774837E+01 -0.31240397667E+02  0.14732626099E+02  0.34707835508E+02  0.00000000000E+00 0.  1.
</event>
<event>
 7    1  0.3196678E-013  0.7246161E+02  0.7816164E-02  0.1226708E+00
        -11   -1    0    0    0    0  0.00000000000E+00  0.00000000000E+00  0.45593999997E+02  0.45594000000E+02  0.51100000000E-03 0. -1.
         11   -1    0    0    0    0 -0.00000000000E+00 -0.00000000000E+00 -0.45593999997E+02  0.45594000000E+02  0.51100000000E-03 0.  1.
    9900012    2    1    2    0    0 -0.76091581501E+01  0.47242796277E+01 -0.16445659806E+02  0.72461606001E+02  0.70000046514E+02 0.  0.
         12    1    1    2    0    0  0.76091581501E+01 -0.47242796277E+01  0.16445659806E+02  0.18726393999E+02  0.00000000000E+00 0. -1.
         11    1    3    3    0    0 -0.70117715638E+01  0.17704580115E+02  0.93700876827E+01  0.21222997926E+02  0.51100000000E-03 0. -1.
        -11    1    3    3    0    0 -0.17960787299E+02  0.56196641009E+00 -0.90741962301E+00  0.17992473351E+02  0.51100000000E-03 0.  1.
        -12    1    3    3    0    0  0.17363400713E+02 -0.13542266897E+02 -0.24908327866E+02  0.33246134724E+02  0.00000000000E+00 0.  1.
</event>
<event>
 7    1  0.3196678E-013  0.7246154E+02  0.7816164E-02  0.1226708E+00
        -11   -1    0    0    0    0  0.00000000000E+00  0.00000000000E+00  0.45593999997E+02  0.45594000000E+02  0.51100000000E-03 0.  1.
         11   -1    0    0    0    0 -0.00000000000E+00 -0.00000000000E+00 -0.45593999997E+02  0.45594000000E+02  0.51100000000E-03 0. -1.
    9900012    2    1    2    0    0 -0.88280399971E+01 -0.15586904319E+02  0.54584246302E+01  0.72461540754E+02  0.69999961518E+02 0.  0.
         12    1    1    2    0    0  0.88280399971E+01  0.15586904319E+02 -0.54584246302E+01  0.18726459246E+02  0.00000000000E+00 0. -1.
         11    1    3    3    0    0  0.42504857861E+01  0.11126791173E+02 -0.12246694842E+02  0.17083724595E+02  0.51100000000E-03 0. -1.
        -11    1    3    3    0    0  0.94546680132E+01 -0.86909054108E+01 -0.93013157481E+01  0.15856766978E+02  0.51100000000E-03 0.  1.
        -12    1    3    3    0    0 -0.22533193796E+02 -0.18022790081E+02  0.27006435221E+02  0.39521049180E+02  0.00000000000E+00 0.  1.
</event>
<event>
 7    1  0.3196678E-013  0.7246138E+02  0.7816164E-02  0.1226709E+00
        -11   -1    0    0    0    0  0.00000000000E+00  0.00000000000E+00  0.45593999997E+02  0.45594000000E+02  0.51100000000E-03 0. -1.
         11   -1    0    0    0    0 -0.00000000000E+00 -0.00000000000E+00 -0.45593999997E+02  0.45594000000E+02  0.51100000000E-03 0.  1.
    9900012    2    1    2    0    0  0.11523170805E+02 -0.87766277106E+00  0.14735413720E+02  0.72461383252E+02  0.69999756343E+02 0.  0.
         12    1    1    2    0    0 -0.11523170805E+02  0.87766277106E+00 -0.14735413720E+02  0.18726616748E+02  0.00000000000E+00 0. -1.
         11    1    3    3    0    0 -0.14277966368E+02  0.35337954845E+01 -0.14687154466E+02  0.20786066022E+02  0.51100000000E-03 0. -1.
        -11    1    3    3    0    0  0.19117525033E+01 -0.15464265281E+02  0.15147904707E+02  0.21731482131E+02  0.51100000000E-03 0.  1.
        -12    1    3    3    0    0  0.23889384669E+02  0.11052807026E+02  0.14274663478E+02  0.29943835099E+02  0.00000000000E+00 0.  1.
</event>
<event>
 7    1  0.3196678E-013  0.7246136E+02  0.7816164E-02  0.1226709E+00
        -11   -1    0    0    0    0  0.00000000000E+00  0.00000000000E+00  0.45593999997E+02  0.45594000000E+02  0.51100000000E-03 0. -1.
         11   -1    0    0    0    0 -0.00000000000E+00 -0.00000000000E+00 -0.45593999997E+02  0.45594000000E+02  0.51100000000E-03 0.  1.
    9900012    2    1    2    0    0  0.33633481381E+01  0.12499451676E+01 -0.18379673276E+02  0.72461364868E+02  0.69999732394E+02 0.  0.
         12    1    1    2    0    0 -0.33633481381E+01 -0.12499451676E+01  0.18379673276E+02  0.18726635132E+02  0.00000000000E+00 0. -1.
         11    1    3    3    0    0  0.36530198092E+00 -0.89489729398E+01  0.18094259782E+01  0.91373729729E+01  0.51100000000E-03 0. -1.
        -11    1    3    3    0    0  0.22088951608E+02 -0.12781338976E+02  0.27354494488E+01  0.25666458522E+02  0.51100000000E-03 0.  1.
        -12    1    3    3    0    0 -0.19090905450E+02  0.22980257083E+02 -0.22924548703E+02  0.37657533373E+02  0.00000000000E+00 0.  1.
</event>
<event>
 7    1  0.3196678E-013  0.7246156E+02  0.7816164E-02  0.1226708E+00
        -11   -1    0    0    0    0  0.00000000000E+00  0.00000000000E+00  0.45593999997E+02  0.45594000000E+02  0.51100000000E-03 0. -1.
         11   -1    0    0    0    0 -0.00000000000E+00 -0.00000000000E+00 -0.45593999997E+02  0.45594000000E+02  0.51100000000E-03 0.  1.
    9900012    2    1    2    0    0  0.37814358028E+01  0.92580585736E+01 -0.15832519335E+02  0.72461559501E+02  0.69999985940E+02 0.  0.
         12    1    1    2    0    0 -0.37814358028E+01 -0.92580585736E+01  0.15832519335E+02  0.18726440499E+02  0.00000000000E+00 0. -1.
         11    1    3    3    0    0 -0.15842216242E+02 -0.13098780693E+02  0.83440336998E+01  0.22185057353E+02  0.51100000000E-03 0. -1.
        -11    1    3    3    0    0  0.18447375584E+02 -0.13352198490E+00 -0.20289554746E+02  0.27422427429E+02  0.51100000000E-03 0.  1.
        -12    1    3    3    0    0  0.11762764616E+01  0.22490361252E+02 -0.38869982884E+01  0.22854074719E+02  0.00000000000E+00 0.  1.
</event>
<event>
 7    1  0.3636211E-013  0.7246159E+02  0.7816164E-02  0.1226708E+00
        -11   -1    0    0    0    0  0.00000000000E+00  0.00000000000E+00  0.45593999997E+02  0.45594000000E+02  0.51100000000E-03 0. -1.
         11   -1    0    0    0    0 -0.00000000000E+00 -0.00000000000E+00 -0.45593999997E+02  0.45594000000E+02  0.51100000000E-03 0.  1.
    9900012    2    1    2    0    0 -0.95981839273E+01  0.60785545230E+01 -0.14886384392E+02  0.72461590839E+02  0.70000026763E+02 0.  0.
         12    1    1    2    0    0  0.95981839273E+01 -0.60785545230E+01  0.14886384392E+02  0.18726409161E+02  0.00000000000E+00 0. -1.
         11    1    3    3    0    0 -0.33422046875E+01 -0.48525752753E+01  0.86601818083E+01  0.10474567685E+02  0.51100000000E-03 0. -1.
        -11    1    3    3    0    0 -0.22620895881E+02  0.17462625836E+02 -0.31607221805E+02  0.42610617245E+02  0.51100000000E-03 0.  1.
         12    1    3    3    0    0  0.16364916641E+02 -0.65314960379E+01  0.80606556044E+01  0.19376405909E+02  0.00000000000E+00 0. -1.
</event>
<event>
 7    1  0.3196678E-013  0.7246159E+02  0.7816164E-02  0.1226708E+00
        -11   -1    0    0    0    0  0.00000000000E+00  0.00000000000E+00  0.45593999997E+02  0.45594000000E+02  0.51100000000E-03 0.  1.
         11   -1    0    0    0    0 -0.00000000000E+00 -0.00000000000E+00 -0.45593999997E+02  0.45594000000E+02  0.51100000000E-03 0. -1.
    9900012    2    1    2    0    0  0.17049654732E+02 -0.77331820067E+01 -0.43098831207E+00  0.72461585999E+02  0.70000020458E+02 0.  0.
         12    1    1    2    0    0 -0.17049654732E+02  0.77331820067E+01  0.43098831207E+00  0.18726414001E+02  0.00000000000E+00 0. -1.
         11    1    3    3    0    0 -0.12266236796E+02 -0.26958234332E+02 -0.76655097674E+01  0.30593577818E+02  0.51100000000E-03 0. -1.
        -11    1    3    3    0    0  0.12258227264E+02 -0.11282768843E+01 -0.41273205245E+01  0.12983524920E+02  0.51100000000E-03 0.  1.
        -12    1    3    3    0    0  0.17057664264E+02  0.20353329210E+02  0.11361841980E+02  0.28884483261E+02  0.00000000000E+00 0.  1.
</event>
<event>
 7    1  0.3196678E-013  0.7246156E+02  0.7816164E-02  0.1226708E+00
        -11   -1    0    0    0    0  0.00000000000E+00  0.00000000000E+00  0.45593999997E+02  0.45594000000E+02  0.51100000000E-03 0. -1.
         11   -1    0    0    0    0 -0.00000000000E+00 -0.00000000000E+00 -0.45593999997E+02  0.45594000000E+02  0.51100000000E-03 0.  1.
    9900012    2    1    2    0    0  0.29322898664E+00  0.13226323203E+02 -0.13253599349E+02  0.72461561353E+02  0.69999988352E+02 0.  0.
         12    1    1    2    0    0 -0.29322898664E+00 -0.13226323203E+02  0.13253599349E+02  0.18726438647E+02  0.00000000000E+00 0. -1.
         11    1    3    3    0    0 -0.13094717723E+02  0.49646155676E+01 -0.15003015933E+01  0.14084386572E+02  0.51100000000E-03 0. -1.
        -11    1    3    3    0    0 -0.14556805236E+01 -0.22671890081E+02 -0.67748707768E+01  0.23707224214E+02  0.51100000000E-03 0.  1.
         12    1    3    3    0    0  0.14843627234E+02  0.30933597716E+02 -0.49784269790E+01  0.34669950567E+02  0.00000000000E+00 0. -1.
</event>
<event>
 7    1  0.3196678E-013  0.7246157E+02  0.7816164E-02  0.1226708E+00
        -11   -1    0    0    0    0  0.00000000000E+00  0.00000000000E+00  0.45593999997E+02  0.45594000000E+02  0.51100000000E-03 0. -1.
         11   -1    0    0    0    0 -0.00000000000E+00 -0.00000000000E+00 -0.45593999997E+02  0.45594000000E+02  0.51100000000E-03 0.  1.
    9900012    2    1    2    0    0 -0.76722616921E+01 -0.91494888463E+01 -0.14425751929E+02  0.72461573103E+02  0.70000003658E+02 0.  0.
         12    1    1    2    0    0  0.76722616921E+01  0.91494888463E+01  0.14425751929E+02  0.18726426897E+02  0.00000000000E+00 0. -1.
         11    1    3    3    0    0 -0.25709760604E+00  0.17754240905E+02 -0.94852029209E+01  0.20130778524E+02  0.51100000000E-03 0. -1.
        -11    1    3    3    0    0  0.69373356889E+01 -0.78210462508E+01 -0.21066405541E+02  0.23517840751E+02  0.51100000000E-03 0.  1.
        -12    1    3    3    0    0 -0.14352499775E+02 -0.19082683500E+02  0.16125856533E+02  0.28812953828E+02  0.00000000000E+00 0.  1.
</event>
<event>
 7    1  0.3196678E-013  0.7246163E+02  0.7816164E-02  0.1226708E+00
        -11   -1    0    0    0    0  0.00000000000E+00  0.00000000000E+00  0.45593999997E+02  0.45594000000E+02  0.51100000000E-03 0.  1.
         11   -1    0    0    0    0 -0.00000000000E+00 -0.00000000000E+00 -0.45593999997E+02  0.45594000000E+02  0.51100000000E-03 0. -1.
    9900012    2    1    2    0    0  0.10744418477E+01 -0.13940128307E+02  0.12457737083E+02  0.72461633141E+02  0.70000081870E+02 0.  0.
         12    1    1    2    0    0 -0.10744418477E+01  0.13940128307E+02 -0.12457737083E+02  0.18726366859E+02  0.00000000000E+00 0. -1.
         11    1    3    3    0    0 -0.89522112453E+00 -0.97487976801E+01 -0.19768665498E+01  0.99874160164E+01  0.51100000000E-03 0. -1.
        -11    1    3    3    0    0 -0.12064901601E+02 -0.16452418946E+02  0.31285072918E+02  0.37349695146E+02  0.51100000000E-03 0.  1.
         12    1    3    3    0    0  0.14034564573E+02  0.12261088319E+02 -0.16850469285E+02  0.25124521978E+02  0.00000000000E+00 0. -1.
</event>
<event>
 7    1  0.3196678E-013  0.7246159E+02  0.7816164E-02  0.1226708E+00
        -11   -1    0    0    0    0  0.00000000000E+00  0.00000000000E+00  0.45593999997E+02  0.45594000000E+02  0.51100000000E-03 0.  1.
         11   -1    0    0    0    0 -0.00000000000E+00 -0.00000000000E+00 -0.45593999997E+02  0.45594000000E+02  0.51100000000E-03 0. -1.
    9900012    2    1    2    0    0  0.10643670276E+02 -0.15286386890E+02 -0.19279506263E+01  0.72461592584E+02  0.70000029036E+02 0.  0.
         12    1    1    2    0    0 -0.10643670276E+02  0.15286386890E+02  0.19279506263E+01  0.18726407416E+02  0.00000000000E+00 0. -1.
         11    1    3    3    0    0  0.16318308820E+02 -0.26896757342E+02 -0.21323236677E+02  0.38005304641E+02  0.51100000000E-03 0. -1.
        -11    1    3    3    0    0  0.11085939887E+01 -0.69040796603E+01  0.10980353709E+02  0.13017813350E+02  0.51100000000E-03 0.  1.
         12    1    3    3    0    0 -0.67832325327E+01  0.18514450112E+02  0.84149323417E+01  0.21438474592E+02  0.00000000000E+00 0. -1.
</event>
<event>
 7    1  0.3196678E-013  0.7246156E+02  0.7816164E-02  0.1226708E+00
        -11   -1    0    0    0    0  0.00000000000E+00  0.00000000000E+00  0.45593999997E+02  0.45594000000E+02  0.51100000000E-03 0.  1.
         11   -1    0    0    0    0 -0.00000000000E+00 -0.00000000000E+00 -0.45593999997E+02  0.45594000000E+02  0.51100000000E-03 0. -1.
    9900012    2    1    2    0    0 -0.14292940769E+02 -0.88186874433E+01  0.82838433024E+01  0.72461562434E+02  0.69999989761E+02 0.  0.
         12    1    1    2    0    0  0.14292940769E+02  0.88186874433E+01 -0.82838433024E+01  0.18726437566E+02  0.00000000000E+00 0. -1.
         11    1    3    3    0    0 -0.13952715699E+02 -0.10057130171E+01 -0.37789088544E+01  0.14490337693E+02  0.51100000000E-03 0. -1.
        -11    1    3    3    0    0  0.87104522991E+01 -0.30793216389E+02  0.70803468802E+01  0.32775378976E+02  0.51100000000E-03 0.  1.
         12    1    3    3    0    0 -0.90506773691E+01  0.22980241963E+02  0.49824052766E+01  0.25195845766E+02  0.00000000000E+00 0. -1.
</event>
<event>
 7    1  0.3196678E-013  0.7246184E+02  0.7816164E-02  0.1226707E+00
        -11   -1    0    0    0    0  0.00000000000E+00  0.00000000000E+00  0.45593999997E+02  0.45594000000E+02  0.51100000000E-03 0. -1.
         11   -1    0    0    0    0 -0.00000000000E+00 -0.00000000000E+00 -0.45593999997E+02  0.45594000000E+02  0.51100000000E-03 0.  1.
    9900012    2    1    2    0    0 -0.32085510944E+01  0.11195849359E+02  0.14663804270E+02  0.72461841861E+02  0.70000353765E+02 0.  0.
         12    1    1    2    0    0  0.32085510944E+01 -0.11195849359E+02 -0.14663804270E+02  0.18726158139E+02  0.00000000000E+00 0. -1.
         11    1    3    3    0    0  0.12972951994E+02  0.18229206902E+02  0.24128630786E+01  0.22503852475E+02  0.51100000000E-03 0. -1.
        -11    1    3    3    0    0 -0.18852894331E+02  0.15459387680E+01 -0.13134586916E+02  0.23029088672E+02  0.51100000000E-03 0.  1.
         12    1    3    3    0    0  0.26713912423E+01 -0.85792963114E+01  0.25385528107E+02  0.26928900714E+02  0.00000000000E+00 0. -1.
</event>
<event>
 7    1  0.3205123E-013  0.7246168E+02  0.7816164E-02  0.1226708E+00
        -11   -1    0    0    0    0  0.00000000000E+00  0.00000000000E+00  0.45593999997E+02  0.45594000000E+02  0.51100000000E-03 0.  1.
         11   -1    0    0    0    0 -0.00000000000E+00 -0.00000000000E+00 -0.45593999997E+02  0.45594000000E+02  0.51100000000E-03 0. -1.
    9900012    2    1    2    0    0 -0.16924479033E+02  0.77205514305E+01  0.21517996112E+01  0.72461677710E+02  0.70000139929E+02 0.  0.
         12    1    1    2    0    0  0.16924479033E+02 -0.77205514305E+01 -0.21517996112E+01  0.18726322290E+02  0.00000000000E+00 0. -1.
         11    1    3    3    0    0 -0.16258519953E+02 -0.80551519156E+01  0.32734496813E+01  0.18437473160E+02  0.51100000000E-03 0. -1.
        -11    1    3    3    0    0 -0.22036243621E+02 -0.10133655704E+01  0.10543767944E+02  0.24449825877E+02  0.51100000000E-03 0.  1.
         12    1    3    3    0    0  0.21370284541E+02  0.16789068916E+02 -0.11665418014E+02  0.29574378673E+02  0.00000000000E+00 0. -1.
</event>
<event>
 7    1  0.3196678E-013  0.7246145E+02  0.7816164E-02  0.1226708E+00
        -11   -1    0    0    0    0  0.00000000000E+00  0.00000000000E+00  0.45593999997E+02  0.45594000000E+02  0.51100000000E-03 0.  1.
         11   -1    0    0    0    0 -0.00000000000E+00 -0.00000000000E+00 -0.45593999997E+02  0.45594000000E+02  0.51100000000E-03 0. -1.
    9900012    2    1    2    0    0  0.13583951226E+02 -0.12879946937E+02  0.51671445782E+00  0.72461447785E+02  0.69999840409E+02 0.  0.
         12    1    1    2    0    0 -0.13583951226E+02  0.12879946937E+02 -0.51671445782E+00  0.18726552215E+02  0.00000000000E+00 0. -1.
         11    1    3    3    0    0 -0.13963546311E+02  0.33534584765E+01  0.74057991185E+01  0.16157727878E+02  0.51100000000E-03 0. -1.
        -11    1    3    3    0    0  0.23114845467E+02  0.41598333781E+01  0.13531642981E+02  0.27105454373E+02  0.51100000000E-03 0.  1.
         12    1    3    3    0    0  0.44326520698E+01 -0.20393238792E+02 -0.20420727642E+02  0.29198265534E+02  0.00000000000E+00 0. -1.
</event>
<event>
 7    1  0.3196678E-013  0.7246164E+02  0.7816164E-02  0.1226708E+00
        -11   -1    0    0    0    0  0.00000000000E+00  0.00000000000E+00  0.45593999997E+02  0.45594000000E+02  0.51100000000E-03 0.  1.
         11   -1    0    0    0    0 -0.00000000000E+00 -0.00000000000E+00 -0.45593999997E+02  0.45594000000E+02  0.51100000000E-03 0. -1.
    9900012    2    1    2    0    0 -0.76565143979E+01  0.16202221395E+02  0.54353026777E+01  0.72461636069E+02  0.70000085684E+02 0.  0.
         12    1    1    2    0    0  0.76565143979E+01 -0.16202221395E+02 -0.54353026777E+01  0.18726363931E+02  0.00000000000E+00 0. -1.
         11    1    3    3    0    0  0.20014230129E+02  0.17434993978E+02  0.54632474842E+01  0.27099732397E+02  0.51100000000E-03 0. -1.
        -11    1    3    3    0    0 -0.21803106364E+02  0.16069001479E+02 -0.41849526510E+00  0.27088067377E+02  0.51100000000E-03 0.  1.
        -12    1    3    3    0    0 -0.58676381622E+01 -0.17301774062E+02  0.39055045863E+00  0.18273836295E+02  0.00000000000E+00 0.  1.
</event>
<event>
 7    1  0.3196678E-013  0.7246158E+02  0.7816164E-02  0.1226708E+00
        -11   -1    0    0    0    0  0.00000000000E+00  0.00000000000E+00  0.45593999997E+02  0.45594000000E+02  0.51100000000E-03 0.  1.
         11   -1    0    0    0    0 -0.00000000000E+00 -0.00000000000E+00 -0.45593999997E+02  0.45594000000E+02  0.51100000000E-03 0. -1.
    9900012    2    1    2    0    0  0.89326315444E+01 -0.11401414475E+02  0.11869907159E+02  0.72461578710E+02  0.70000010963E+02 0.  0.
         12    1    1    2    0    0 -0.89326315444E+01  0.11401414475E+02 -0.11869907159E+02  0.18726421290E+02  0.00000000000E+00 0. -1.
         11    1    3    3    0    0 -0.13461261507E+02 -0.97537851924E+00 -0.58841668821E+01  0.14723462391E+02  0.51100000000E-03 0. -1.
        -11    1    3    3    0    0  0.24445486944E+02 -0.22075234426E+01 -0.11627554889E+02  0.27159805313E+02  0.51100000000E-03 0.  1.
        -12    1    3    3    0    0 -0.20515938923E+01 -0.82185125135E+01  0.29381628930E+02  0.30578311007E+02  0.00000000000E+00 0.  1.
</event>
<event>
 7    1  0.3196678E-013  0.7246110E+02  0.7816164E-02  0.1226709E+00
        -11   -1    0    0    0    0  0.00000000000E+00  0.00000000000E+00  0.45593999997E+02  0.45594000000E+02  0.51100000000E-03 0. -1.
         11   -1    0    0    0    0 -0.00000000000E+00 -0.00000000000E+00 -0.45593999997E+02  0.45594000000E+02  0.51100000000E-03 0.  1.
    9900012    2    1    2    0    0  0.22659607105E+01 -0.14807945393E+02 -0.11237754782E+02  0.72461095364E+02  0.69999381313E+02 0.  0.
         12    1    1    2    0    0 -0.22659607105E+01  0.14807945393E+02  0.11237754782E+02  0.18726904636E+02  0.00000000000E+00 0. -1.
         11    1    3    3    0    0 -0.10680640163E+02 -0.28504540319E+02  0.10671046599E+02  0.32256102196E+02  0.51100000000E-03 0. -1.
        -11    1    3    3    0    0 -0.42290481800E+01 -0.26987859009E+01 -0.14481337773E+02  0.15325711657E+02  0.51100000000E-03 0.  1.
        -12    1    3    3    0    0  0.17175649053E+02  0.16395380828E+02 -0.74274636078E+01  0.24879281511E+02  0.00000000000E+00 0.  1.
</event>
<event>
 7    1  0.3196678E-013  0.7246152E+02  0.7816164E-02  0.1226708E+00
        -11   -1    0    0    0    0  0.00000000000E+00  0.00000000000E+00  0.45593999997E+02  0.45594000000E+02  0.51100000000E-03 0.  1.
         11   -1    0    0    0    0 -0.00000000000E+00 -0.00000000000E+00 -0.45593999997E+02  0.45594000000E+02  0.51100000000E-03 0. -1.
    9900012    2    1    2    0    0 -0.15691401765E+02 -0.15430930406E+01  0.10103448426E+02  0.72461524208E+02  0.69999939964E+02 0.  0.
         12    1    1    2    0    0  0.15691401765E+02  0.15430930406E+01 -0.10103448426E+02  0.18726475792E+02  0.00000000000E+00 0. -1.
         11    1    3    3    0    0 -0.21645337706E+02  0.55949973370E+01 -0.81736882463E+01  0.23804071488E+02  0.51100000000E-03 0. -1.
        -11    1    3    3    0    0  0.14999164830E+02  0.49465312512E+01  0.26958477524E+02  0.31244241512E+02  0.51100000000E-03 0.  1.
         12    1    3    3    0    0 -0.90452288891E+01 -0.12084621629E+02 -0.86813408513E+01  0.17413211207E+02  0.00000000000E+00 0. -1.
</event>
<event>
 7    1  0.3196678E-013  0.7246159E+02  0.7816164E-02  0.1226708E+00
        -11   -1    0    0    0    0  0.00000000000E+00  0.00000000000E+00  0.45593999997E+02  0.45594000000E+02  0.51100000000E-03 0.  1.
         11   -1    0    0    0    0 -0.00000000000E+00 -0.00000000000E+00 -0.45593999997E+02  0.45594000000E+02  0.51100000000E-03 0. -1.
    9900012    2    1    2    0    0 -0.14897789526E+02 -0.11093514448E+02 -0.23807676224E+01  0.72461594845E+02  0.70000031981E+02 0.  0.
         12    1    1    2    0    0  0.14897789526E+02  0.11093514448E+02  0.23807676224E+01  0.18726405155E+02  0.00000000000E+00 0. -1.
         11    1    3    3    0    0 -0.23120915950E+02  0.14342963643E+02  0.75200437482E+01  0.28228503656E+02  0.51100000000E-03 0. -1.
        -11    1    3    3    0    0  0.20532096430E+02 -0.13003054241E+02 -0.36185374579E+00  0.24305911664E+02  0.51100000000E-03 0.  1.
         12    1    3    3    0    0 -0.12308970006E+02 -0.12433423850E+02 -0.95389576249E+01  0.19927179525E+02  0.00000000000E+00 0. -1.
</event>
<event>
 7    1  0.3196678E-013  0.7246159E+02  0.7816164E-02  0.1226708E+00
        -11   -1    0    0    0    0  0.00000000000E+00  0.00000000000E+00  0.45593999997E+02  0.45594000000E+02  0.51100000000E-03 0.  1.
         11   -1    0    0    0    0 -0.00000000000E+00 -0.00000000000E+00 -0.45593999997E+02  0.45594000000E+02  0.51100000000E-03 0. -1.
    9900012    2    1    2    0    0  0.71370894760E+01  0.17160131549E+02  0.22957060312E+01  0.72461590116E+02  0.70000025822E+02 0.  0.
         12    1    1    2    0    0 -0.71370894760E+01 -0.17160131549E+02 -0.22957060312E+01  0.18726409884E+02  0.00000000000E+00 0. -1.
         11    1    3    3    0    0 -0.87837991370E+00  0.41195824258E+01 -0.13945765439E+02  0.14568008943E+02  0.51100000000E-03 0. -1.
        -11    1    3    3    0    0  0.30021753932E+02  0.14639062828E+02  0.11504994528E+02  0.35326658050E+02  0.51100000000E-03 0.  1.
         12    1    3    3    0    0 -0.22006284542E+02 -0.15985137047E+01  0.47364769417E+01  0.22566923123E+02  0.00000000000E+00 0. -1.
</event>
<event>
 7    1  0.3196678E-013  0.7246161E+02  0.7816164E-02  0.1226708E+00
        -11   -1    0    0    0    0  0.00000000000E+00  0.00000000000E+00  0.45593999997E+02  0.45594000000E+02  0.51100000000E-03 0. -1.
         11   -1    0    0    0    0 -0.00000000000E+00 -0.00000000000E+00 -0.45593999997E+02  0.45594000000E+02  0.51100000000E-03 0.  1.
    9900012    2    1    2    0    0  0.15151562163E+02 -0.10063945294E+02 -0.44525055636E+01  0.72461611222E+02  0.70000053316E+02 0.  0.
         12    1    1    2    0    0 -0.15151562163E+02  0.10063945294E+02  0.44525055636E+01  0.18726388778E+02  0.00000000000E+00 0. -1.
         11    1    3    3    0    0  0.32401541780E+00  0.57894649693E+01 -0.65657576224E+01  0.87596840148E+01  0.51100000000E-03 0. -1.
        -11    1    3    3    0    0  0.22981666294E+01  0.22614260664E+02 -0.29823903798E+01  0.22925553601E+02  0.51100000000E-03 0.  1.
         12    1    3    3    0    0  0.12529380116E+02 -0.38467670927E+02  0.50956424386E+01  0.40776373607E+02  0.00000000000E+00 0. -1.
</event>
<event>
 7    1  0.3489826E-013  0.7246158E+02  0.7816164E-02  0.1226708E+00
        -11   -1    0    0    0    0  0.00000000000E+00  0.00000000000E+00  0.45593999997E+02  0.45594000000E+02  0.51100000000E-03 0. -1.
         11   -1    0    0    0    0 -0.00000000000E+00 -0.00000000000E+00 -0.45593999997E+02  0.45594000000E+02  0.51100000000E-03 0.  1.
    9900012    2    1    2    0    0 -0.95282907443E+01  0.11566069718E+02 -0.11230166297E+02  0.72461576735E+02  0.70000008390E+02 0.  0.
         12    1    1    2    0    0  0.95282907443E+01 -0.11566069718E+02  0.11230166297E+02  0.18726423265E+02  0.00000000000E+00 0. -1.
         11    1    3    3    0    0  0.79031087853E-01  0.17598779893E+01 -0.13446411835E+02  0.13561320288E+02  0.51100000000E-03 0. -1.
        -11    1    3    3    0    0 -0.10437913066E+02  0.31130215425E+02 -0.99850519096E+01  0.34318240099E+02  0.51100000000E-03 0.  1.
         12    1    3    3    0    0  0.83059123367E+00 -0.21324023696E+02  0.12201297447E+02  0.24582016349E+02  0.00000000000E+00 0. -1.
</event>
<event>
 7    1  0.3196678E-013  0.7246158E+02  0.7816164E-02  0.1226708E+00
        -11   -1    0    0    0    0  0.00000000000E+00  0.00000000000E+00  0.45593999997E+02  0.45594000000E+02  0.51100000000E-03 0.  1.
         11   -1    0    0    0    0 -0.00000000000E+00 -0.00000000000E+00 -0.45593999997E+02  0.45594000000E+02  0.51100000000E-03 0. -1.
    9900012    2    1    2    0    0  0.17825436342E+02  0.44513945655E+01  0.36218159567E+01  0.72461584294E+02  0.70000018237E+02 0.  0.
         12    1    1    2    0    0 -0.17825436342E+02 -0.44513945655E+01 -0.36218159567E+01  0.18726415706E+02  0.00000000000E+00 0. -1.
         11    1    3    3    0    0 -0.72721739048E+01 -0.54186836003E+00  0.25274015879E+01  0.77178943805E+01  0.51100000000E-03 0. -1.
        -11    1    3    3    0    0  0.21245797869E+01 -0.55822693737E+00  0.28482976259E+02  0.28567558409E+02  0.51100000000E-03 0.  1.
        -12    1    3    3    0    0  0.22973030460E+02  0.55514898629E+01 -0.27388561891E+02  0.36176131505E+02  0.00000000000E+00 0.  1.
</event>
<event>
 7    1  0.3196678E-013  0.7246149E+02  0.7816164E-02  0.1226708E+00
        -11   -1    0    0    0    0  0.00000000000E+00  0.00000000000E+00  0.45593999997E+02  0.45594000000E+02  0.51100000000E-03 0.  1.
         11   -1    0    0    0    0 -0.00000000000E+00 -0.00000000000E+00 -0.45593999997E+02  0.45594000000E+02  0.51100000000E-03 0. -1.
    9900012    2    1    2    0    0 -0.19230703368E+01  0.13949039201E+02  0.12345371599E+02  0.72461492208E+02  0.69999898278E+02 0.  0.
         12    1    1    2    0    0  0.19230703368E+01 -0.13949039201E+02 -0.12345371599E+02  0.18726507792E+02  0.00000000000E+00 0. -1.
         11    1    3    3    0    0  0.11447253496E+01 -0.10557067337E+01  0.12846247862E+02  0.12940285825E+02  0.51100000000E-03 0. -1.
        -11    1    3    3    0    0  0.11617890891E+01 -0.12922040286E+02  0.20544041865E+02  0.24297871007E+02  0.51100000000E-03 0.  1.
         12    1    3    3    0    0 -0.42295847756E+01  0.27926786221E+02 -0.21044918128E+02  0.35223335376E+02  0.00000000000E+00 0. -1.
</event>
<event>
 7    1  0.3196678E-013  0.7246156E+02  0.7816164E-02  0.1226708E+00
        -11   -1    0    0    0    0  0.00000000000E+00  0.00000000000E+00  0.45593999997E+02  0.45594000000E+02  0.51100000000E-03 0.  1.
         11   -1    0    0    0    0 -0.00000000000E+00 -0.00000000000E+00 -0.45593999997E+02  0.45594000000E+02  0.51100000000E-03 0. -1.
    9900012    2    1    2    0    0  0.68517287475E+01 -0.55171054238E+01  0.16531635663E+02  0.72461558352E+02  0.69999984443E+02 0.  0.
         12    1    1    2    0    0 -0.68517287475E+01  0.55171054238E+01 -0.16531635663E+02  0.18726441648E+02  0.00000000000E+00 0. -1.
         11    1    3    3    0    0  0.51724248006E+01  0.94075353488E+01 -0.53482169594E+01  0.11994128754E+02  0.51100000000E-03 0. -1.
        -11    1    3    3    0    0  0.20603402131E+02  0.87368433830E+01 -0.11519311375E+01  0.22408916915E+02  0.51100000000E-03 0.  1.
        -12    1    3    3    0    0 -0.18924098185E+02 -0.23661484156E+02  0.23031783760E+02  0.38058512684E+02  0.00000000000E+00 0.  1.
</event>
<event>
 7    1  0.3196678E-013  0.7246157E+02  0.7816164E-02  0.1226708E+00
        -11   -1    0    0    0    0  0.00000000000E+00  0.00000000000E+00  0.45593999997E+02  0.45594000000E+02  0.51100000000E-03 0.  1.
         11   -1    0    0    0    0 -0.00000000000E+00 -0.00000000000E+00 -0.45593999997E+02  0.45594000000E+02  0.51100000000E-03 0. -1.
    9900012    2    1    2    0    0 -0.16245874217E+02  0.92918245399E+01  0.64256674071E+00  0.72461566160E+02  0.69999994614E+02 0.  0.
         12    1    1    2    0    0  0.16245874217E+02 -0.92918245399E+01 -0.64256674071E+00  0.18726433840E+02  0.00000000000E+00 0. -1.
         11    1    3    3    0    0 -0.27589653905E+02  0.17321009050E+02  0.77728379248E+00  0.32585434284E+02  0.51100000000E-03 0. -1.
        -11    1    3    3    0    0 -0.99357281436E+01  0.82094296176E+01 -0.20034128388E+01  0.13043277642E+02  0.51100000000E-03 0.  1.
         12    1    3    3    0    0  0.21279507832E+02 -0.16238614128E+02  0.18686957870E+01  0.26832854234E+02  0.00000000000E+00 0. -1.
</event>
<event>
 7    1  0.3196678E-013  0.7246157E+02  0.7816164E-02  0.1226708E+00
        -11   -1    0    0    0    0  0.00000000000E+00  0.00000000000E+00  0.45593999997E+02  0.45594000000E+02  0.51100000000E-03 0. -1.
         11   -1    0    0    0    0 -0.00000000000E+00 -0.00000000000E+00 -0.45593999997E+02  0.45594000000E+02  0.51100000000E-03 0.  1.
    9900012    2    1    2    0    0  0.72774120931E+01  0.17248540430E+02 -0.45423241557E+00  0.72461569458E+02  0.69999998911E+02 0.  0.
         12    1    1    2    0    0 -0.72774120931E+01 -0.17248540430E+02  0.45423241557E+00  0.18726430542E+02  0.00000000000E+00 0. -1.
         11    1    3    3    0    0  0.83106317220E+01 -0.44994752133E+01 -0.95762302688E+00  0.94988904055E+01  0.51100000000E-03 0. -1.
        -11    1    3    3    0    0 -0.29364851531E+02  0.14387022662E+02  0.58136684152E+01  0.33212643183E+02  0.51100000000E-03 0.  1.
         12    1    3    3    0    0  0.28331631902E+02  0.73609929816E+01 -0.53102778039E+01  0.29750035870E+02  0.00000000000E+00 0. -1.
</event>
<event>
 7    1  0.3196678E-013  0.7246155E+02  0.7816164E-02  0.1226708E+00
        -11   -1    0    0    0    0  0.00000000000E+00  0.00000000000E+00  0.45593999997E+02  0.45594000000E+02  0.51100000000E-03 0.  1.
         11   -1    0    0    0    0 -0.00000000000E+00 -0.00000000000E+00 -0.45593999997E+02  0.45594000000E+02  0.51100000000E-03 0. -1.
    9900012    2    1    2    0    0 -0.61374368150E+01  0.13055981898E+02 -0.11939563047E+02  0.72461549196E+02  0.69999972515E+02 0.  0.
         12    1    1    2    0    0  0.61374368150E+01 -0.13055981898E+02  0.11939563047E+02  0.18726450804E+02  0.00000000000E+00 0. -1.
         11    1    3    3    0    0  0.10481351533E+00  0.20556746866E+02 -0.21263148070E+02  0.29575535391E+02  0.51100000000E-03 0. -1.
        -11    1    3    3    0    0  0.22334847087E+00  0.15723373784E+02  0.10233258074E+02  0.18761501506E+02  0.51100000000E-03 0.  1.
        -12    1    3    3    0    0 -0.64655988012E+01 -0.23224138751E+02 -0.90967305129E+00  0.24124512299E+02  0.00000000000E+00 0.  1.
</event>
<event>
 7    1  0.3196678E-013  0.7246154E+02  0.7816164E-02  0.1226708E+00
        -11   -1    0    0    0    0  0.00000000000E+00  0.00000000000E+00  0.45593999997E+02  0.45594000000E+02  0.51100000000E-03 0.  1.
         11   -1    0    0    0    0 -0.00000000000E+00 -0.00000000000E+00 -0.45593999997E+02  0.45594000000E+02  0.51100000000E-03 0. -1.
    9900012    2    1    2    0    0 -0.41088723602E+01  0.18061454935E+02  0.27534387061E+01  0.72461537142E+02  0.69999956813E+02 0.  0.
         12    1    1    2    0    0  0.41088723602E+01 -0.18061454935E+02 -0.27534387061E+01  0.18726462858E+02  0.00000000000E+00 0. -1.
         11    1    3    3    0    0 -0.18685909869E+02 -0.37601193722E+01  0.69630494695E+00  0.19073189722E+02  0.51100000000E-03 0. -1.
        -11    1    3    3    0    0 -0.14661754415E+01  0.28572727198E+01  0.21565584871E+02  0.21803397187E+02  0.51100000000E-03 0.  1.
        -12    1    3    3    0    0  0.16043212950E+02  0.18964301588E+02 -0.19508451112E+02  0.31584950233E+02  0.00000000000E+00 0.  1.
</event>
<event>
 7    1  0.3196678E-013  0.7246156E+02  0.7816164E-02  0.1226708E+00
        -11   -1    0    0    0    0  0.00000000000E+00  0.00000000000E+00  0.45593999997E+02  0.45594000000E+02  0.51100000000E-03 0. -1.
         11   -1    0    0    0    0 -0.00000000000E+00 -0.00000000000E+00 -0.45593999997E+02  0.45594000000E+02  0.51100000000E-03 0.  1.
    9900012    2    1    2    0    0 -0.53845967603E+01  0.13040469050E+02  0.12313885868E+02  0.72461561457E+02  0.69999988488E+02 0.  0.
         12    1    1    2    0    0  0.53845967603E+01 -0.13040469050E+02 -0.12313885868E+02  0.18726438543E+02  0.00000000000E+00 0. -1.
         11    1    3    3    0    0 -0.60004512621E+01  0.21867992832E+02  0.16274799946E+02  0.27912069780E+02  0.51100000000E-03 0. -1.
        -11    1    3    3    0    0  0.43488182886E+01  0.14933906734E+02  0.82150493818E+01  0.17590361777E+02  0.51100000000E-03 0.  1.
        -12    1    3    3    0    0 -0.37329637867E+01 -0.23761430516E+02 -0.12175963460E+02  0.26959129900E+02  0.00000000000E+00 0.  1.
</event>
<event>
 7    1  0.3196678E-013  0.7246157E+02  0.7816164E-02  0.1226708E+00
        -11   -1    0    0    0    0  0.00000000000E+00  0.00000000000E+00  0.45593999997E+02  0.45594000000E+02  0.51100000000E-03 0. -1.
         11   -1    0    0    0    0 -0.00000000000E+00 -0.00000000000E+00 -0.45593999997E+02  0.45594000000E+02  0.51100000000E-03 0.  1.
    9900012    2    1    2    0    0  0.15577244318E+02  0.88111610024E+01 -0.55128934432E+01  0.72461572341E+02  0.70000002666E+02 0.  0.
         12    1    1    2    0    0 -0.15577244318E+02 -0.88111610024E+01  0.55128934432E+01  0.18726427659E+02  0.00000000000E+00 0. -1.
         11    1    3    3    0    0 -0.10094088385E+02 -0.45211397956E+01 -0.53623738940E+01  0.12291719953E+02  0.51100000000E-03 0. -1.
        -11    1    3    3    0    0  0.10836489708E+02 -0.32758852477E+00 -0.25540266803E+02  0.27746027681E+02  0.51100000000E-03 0.  1.
         12    1    3    3    0    0  0.14834842994E+02  0.13659889323E+02  0.25389747254E+02  0.32423824707E+02  0.00000000000E+00 0. -1.
</event>
<event>
 7    1  0.3196678E-013  0.7246152E+02  0.7816164E-02  0.1226708E+00
        -11   -1    0    0    0    0  0.00000000000E+00  0.00000000000E+00  0.45593999997E+02  0.45594000000E+02  0.51100000000E-03 0. -1.
         11   -1    0    0    0    0 -0.00000000000E+00 -0.00000000000E+00 -0.45593999997E+02  0.45594000000E+02  0.51100000000E-03 0.  1.
    9900012    2    1    2    0    0 -0.27196975306E+01 -0.16597737212E+02  0.82340311494E+01  0.72461523978E+02  0.69999939665E+02 0.  0.
         12    1    1    2    0    0  0.27196975306E+01  0.16597737212E+02 -0.82340311494E+01  0.18726476022E+02  0.00000000000E+00 0. -1.
         11    1    3    3    0    0 -0.30660071474E+01  0.40328331947E+01 -0.18489758720E+01  0.53928522546E+01  0.51100000000E-03 0. -1.
        -11    1    3    3    0    0  0.18106024740E+02 -0.69176848540E+00 -0.19904384883E+02  0.26916374447E+02  0.51100000000E-03 0.  1.
         12    1    3    3    0    0 -0.17759715124E+02 -0.19938801921E+02  0.29987391905E+02  0.40152297277E+02  0.00000000000E+00 0. -1.
</event>
<event>
 7    1  0.3196678E-013  0.7246156E+02  0.7816164E-02  0.1226708E+00
        -11   -1    0    0    0    0  0.00000000000E+00  0.00000000000E+00  0.45593999997E+02  0.45594000000E+02  0.51100000000E-03 0.  1.
         11   -1    0    0    0    0 -0.00000000000E+00 -0.00000000000E+00 -0.45593999997E+02  0.45594000000E+02  0.51100000000E-03 0. -1.
    9900012    2    1    2    0    0  0.96908684087E+00  0.18698180539E+02 -0.34417025511E+00  0.72461560458E+02  0.69999987186E+02 0.  0.
         12    1    1    2    0    0 -0.96908684087E+00 -0.18698180539E+02  0.34417025511E+00  0.18726439542E+02  0.00000000000E+00 0. -1.
         11    1    3    3    0    0  0.15925273855E+01 -0.18736027536E+02  0.10817813620E+02  0.21693316092E+02  0.51100000000E-03 0.  1.
        -11    1    3    3    0    0  0.54745063341E+01  0.22026289364E+02  0.92221253438E+01  0.24498474215E+02  0.51100000000E-03 0. -1.
         12    1    3    3    0    0 -0.60979468787E+01  0.15407918711E+02 -0.20384109219E+02  0.26269770151E+02  0.00000000000E+00 0. -1.
</event>
<event>
 7    1  0.3196678E-013  0.7246160E+02  0.7816164E-02  0.1226708E+00
        -11   -1    0    0    0    0  0.00000000000E+00  0.00000000000E+00  0.45593999997E+02  0.45594000000E+02  0.51100000000E-03 0. -1.
         11   -1    0    0    0    0 -0.00000000000E+00 -0.00000000000E+00 -0.45593999997E+02  0.45594000000E+02  0.51100000000E-03 0.  1.
    9900012    2    1    2    0    0 -0.80024268192E+01  0.11249043158E+02 -0.12652992775E+02  0.72461600636E+02  0.70000039525E+02 0.  0.
         12    1    1    2    0    0  0.80024268192E+01 -0.11249043158E+02  0.12652992775E+02  0.18726399364E+02  0.00000000000E+00 0. -1.
         11    1    3    3    0    0  0.12066122544E+02 -0.89256048727E+01 -0.67494489500E+01  0.16456390764E+02  0.51100000000E-03 0. -1.
        -11    1    3    3    0    0 -0.12111431925E+02  0.25705062688E+01 -0.25587000214E+02  0.28425144960E+02  0.51100000000E-03 0.  1.
         12    1    3    3    0    0 -0.79571174380E+01  0.17604141762E+02  0.19683456389E+02  0.27580064912E+02  0.00000000000E+00 0. -1.
</event>
<event>
 7    1  0.3196678E-013  0.7246162E+02  0.7816164E-02  0.1226708E+00
        -11   -1    0    0    0    0  0.00000000000E+00  0.00000000000E+00  0.45593999997E+02  0.45594000000E+02  0.51100000000E-03 0.  1.
         11   -1    0    0    0    0 -0.00000000000E+00 -0.00000000000E+00 -0.45593999997E+02  0.45594000000E+02  0.51100000000E-03 0. -1.
    9900012    2    1    2    0    0 -0.13204976974E+02 -0.13271610074E+02 -0.41280772944E+00  0.72461615911E+02  0.70000059424E+02 0.  0.
         12    1    1    2    0    0  0.13204976974E+02  0.13271610074E+02  0.41280772944E+00  0.18726384089E+02  0.00000000000E+00 0. -1.
         11    1    3    3    0    0 -0.17225752054E+02 -0.93588710657E+01  0.74825321722E+01  0.20983405096E+02  0.51100000000E-03 0. -1.
        -11    1    3    3    0    0 -0.11880876590E+02 -0.13310507403E+02  0.14110983897E+02  0.22747410900E+02  0.51100000000E-03 0.  1.
        -12    1    3    3    0    0  0.15901651670E+02  0.93977683944E+01 -0.22006323799E+02  0.28730799915E+02  0.00000000000E+00 0.  1.
</event>
<event>
 7    1  0.3196678E-013  0.7246171E+02  0.7816164E-02  0.1226708E+00
        -11   -1    0    0    0    0  0.00000000000E+00  0.00000000000E+00  0.45593999997E+02  0.45594000000E+02  0.51100000000E-03 0.  1.
         11   -1    0    0    0    0 -0.00000000000E+00 -0.00000000000E+00 -0.45593999997E+02  0.45594000000E+02  0.51100000000E-03 0. -1.
    9900012    2    1    2    0    0 -0.69167034105E+01 -0.15244440229E+02 -0.83928714834E+01  0.72461707369E+02  0.70000178565E+02 0.  0.
         12    1    1    2    0    0  0.69167034105E+01  0.15244440229E+02  0.83928714834E+01  0.18726292631E+02  0.00000000000E+00 0. -1.
         11    1    3    3    0    0  0.90202600435E+01 -0.97330013179E+01 -0.23013755416E+02  0.26565566896E+02  0.51100000000E-03 0. -1.
        -11    1    3    3    0    0 -0.19240807508E+02  0.11134343893E+02 -0.17725360227E+01  0.22300766168E+02  0.51100000000E-03 0.  1.
        -12    1    3    3    0    0  0.33038440537E+01 -0.16645782805E+02  0.16393419956E+02  0.23595374304E+02  0.00000000000E+00 0.  1.
</event>
<event>
 7    1  0.3196678E-013  0.7246158E+02  0.7816164E-02  0.1226708E+00
        -11   -1    0    0    0    0  0.00000000000E+00  0.00000000000E+00  0.45593999997E+02  0.45594000000E+02  0.51100000000E-03 0.  1.
         11   -1    0    0    0    0 -0.00000000000E+00 -0.00000000000E+00 -0.45593999997E+02  0.45594000000E+02  0.51100000000E-03 0. -1.
    9900012    2    1    2    0    0 -0.99403582258E+01 -0.12386111854E+02 -0.99223048336E+01  0.72461584921E+02  0.70000019054E+02 0.  0.
         12    1    1    2    0    0  0.99403582258E+01  0.12386111854E+02  0.99223048336E+01  0.18726415079E+02  0.00000000000E+00 0. -1.
         11    1    3    3    0    0 -0.14143823115E+02  0.14777462026E+02 -0.61802662526E+01  0.21368593951E+02  0.51100000000E-03 0.  1.
        -11    1    3    3    0    0 -0.16332103967E+02 -0.91386734787E+01 -0.12376300680E+02  0.22437152041E+02  0.51100000000E-03 0. -1.
        -12    1    3    3    0    0  0.20535568856E+02 -0.18024900401E+02  0.86342620989E+01  0.28655838929E+02  0.00000000000E+00 0.  1.
</event>
<event>
 7    1  0.3196678E-013  0.7246154E+02  0.7816164E-02  0.1226708E+00
        -11   -1    0    0    0    0  0.00000000000E+00  0.00000000000E+00  0.45593999997E+02  0.45594000000E+02  0.51100000000E-03 0. -1.
         11   -1    0    0    0    0 -0.00000000000E+00 -0.00000000000E+00 -0.45593999997E+02  0.45594000000E+02  0.51100000000E-03 0.  1.
    9900012    2    1    2    0    0  0.91825884785E+01  0.10562138014E+02  0.12441933643E+02  0.72461537351E+02  0.69999957085E+02 0.  0.
         12    1    1    2    0    0 -0.91825884785E+01 -0.10562138014E+02 -0.12441933643E+02  0.18726462649E+02  0.00000000000E+00 0. -1.
         11    1    3    3    0    0 -0.95218297746E+00  0.18047350458E+00 -0.38232172321E+01  0.39441365815E+01  0.51100000000E-03 0. -1.
        -11    1    3    3    0    0  0.90263647581E+01  0.34410764205E+02 -0.55967537246E+01  0.36012492366E+02  0.51100000000E-03 0.  1.
         12    1    3    3    0    0  0.11084066979E+01 -0.24029099695E+02  0.21861904599E+02  0.32504908403E+02  0.00000000000E+00 0. -1.
</event>
<event>
 7    1  0.3196678E-013  0.7246158E+02  0.7816164E-02  0.1226708E+00
        -11   -1    0    0    0    0  0.00000000000E+00  0.00000000000E+00  0.45593999997E+02  0.45594000000E+02  0.51100000000E-03 0.  1.
         11   -1    0    0    0    0 -0.00000000000E+00 -0.00000000000E+00 -0.45593999997E+02  0.45594000000E+02  0.51100000000E-03 0. -1.
    9900012    2    1    2    0    0 -0.18510685333E+02 -0.27733367063E+01 -0.58489187528E+00  0.72461575715E+02  0.70000007061E+02 0.  0.
         12    1    1    2    0    0  0.18510685333E+02  0.27733367063E+01  0.58489187528E+00  0.18726424285E+02  0.00000000000E+00 0. -1.
         11    1    3    3    0    0 -0.17123394525E+02  0.43688527440E+00 -0.15092375024E+02  0.22829395369E+02  0.51100000000E-03 0. -1.
        -11    1    3    3    0    0 -0.16372371838E+02  0.15188437207E+02  0.10600362608E+01  0.22357702510E+02  0.51100000000E-03 0.  1.
        -12    1    3    3    0    0  0.14985081030E+02 -0.18398659188E+02  0.13447446888E+02  0.27274477835E+02  0.00000000000E+00 0.  1.
</event>
<event>
 7    1  0.3196678E-013  0.7246156E+02  0.7816164E-02  0.1226708E+00
        -11   -1    0    0    0    0  0.00000000000E+00  0.00000000000E+00  0.45593999997E+02  0.45594000000E+02  0.51100000000E-03 0.  1.
         11   -1    0    0    0    0 -0.00000000000E+00 -0.00000000000E+00 -0.45593999997E+02  0.45594000000E+02  0.51100000000E-03 0. -1.
    9900012    2    1    2    0    0 -0.10687817641E+02  0.30077036653E+01  0.15079919513E+02  0.72461556136E+02  0.69999981556E+02 0.  0.
         12    1    1    2    0    0  0.10687817641E+02 -0.30077036653E+01 -0.15079919513E+02  0.18726443864E+02  0.00000000000E+00 0. -1.
         11    1    3    3    0    0  0.17180420780E+02 -0.15445392267E+02 -0.49147252434E+01  0.23619515764E+02  0.51100000000E-03 0. -1.
        -11    1    3    3    0    0  0.38974993977E+01  0.95064999166E+01  0.35898238990E-01  0.10274499071E+02  0.51100000000E-03 0.  1.
        -12    1    3    3    0    0 -0.31765737819E+02  0.89465960156E+01  0.19958746518E+02  0.38567541301E+02  0.00000000000E+00 0.  1.
</event>
<event>
 7    1  0.3196678E-013  0.7246155E+02  0.7816164E-02  0.1226708E+00
        -11   -1    0    0    0    0  0.00000000000E+00  0.00000000000E+00  0.45593999997E+02  0.45594000000E+02  0.51100000000E-03 0.  1.
         11   -1    0    0    0    0 -0.00000000000E+00 -0.00000000000E+00 -0.45593999997E+02  0.45594000000E+02  0.51100000000E-03 0. -1.
    9900012    2    1    2    0    0 -0.13173740007E+02 -0.55586239446E+01  0.12092729772E+02  0.72461552412E+02  0.69999976705E+02 0.  0.
         12    1    1    2    0    0  0.13173740007E+02  0.55586239446E+01 -0.12092729772E+02  0.18726447588E+02  0.00000000000E+00 0. -1.
         11    1    3    3    0    0  0.15855153753E+01  0.32559862119E+01 -0.50688101692E+01  0.62296181272E+01  0.51100000000E-03 0. -1.
        -11    1    3    3    0    0 -0.36419329551E+02  0.40376637411E+01  0.17068595277E+01  0.36682198178E+02  0.51100000000E-03 0.  1.
         12    1    3    3    0    0  0.21660074168E+02 -0.12852273898E+02  0.15454680413E+02  0.29549736107E+02  0.00000000000E+00 0. -1.
</event>
<event>
 7    1  0.3196678E-013  0.7246216E+02  0.7816164E-02  0.1226706E+00
        -11   -1    0    0    0    0  0.00000000000E+00  0.00000000000E+00  0.45593999997E+02  0.45594000000E+02  0.51100000000E-03 0. -1.
         11   -1    0    0    0    0 -0.00000000000E+00 -0.00000000000E+00 -0.45593999997E+02  0.45594000000E+02  0.51100000000E-03 0.  1.
    9900012    2    1    2    0    0  0.10319490468E-01 -0.14281168803E+02 -0.12112194468E+02  0.72462158398E+02  0.70000766110E+02 0.  0.
         12    1    1    2    0    0 -0.10319490468E-01  0.14281168803E+02  0.12112194468E+02  0.18725841602E+02  0.00000000000E+00 0. -1.
         11    1    3    3    0    0 -0.92088017993E+01 -0.30238808988E+02 -0.40995240889E+01  0.31874656039E+02  0.51100000000E-03 0. -1.
        -11    1    3    3    0    0 -0.97608807865E+01 -0.42890268472E+01  0.24314739860E+01  0.10935383442E+02  0.51100000000E-03 0.  1.
        -12    1    3    3    0    0  0.18980002076E+02  0.20246667033E+02 -0.10444144365E+02  0.29652118917E+02  0.00000000000E+00 0.  1.
</event>
<event>
 7    1  0.3196678E-013  0.7246147E+02  0.7816164E-02  0.1226708E+00
        -11   -1    0    0    0    0  0.00000000000E+00  0.00000000000E+00  0.45593999997E+02  0.45594000000E+02  0.51100000000E-03 0. -1.
         11   -1    0    0    0    0 -0.00000000000E+00 -0.00000000000E+00 -0.45593999997E+02  0.45594000000E+02  0.51100000000E-03 0.  1.
    9900012    2    1    2    0    0  0.17476834767E+02 -0.47704985282E+01 -0.47419056944E+01  0.72461465903E+02  0.69999864010E+02 0.  0.
         12    1    1    2    0    0 -0.17476834767E+02  0.47704985282E+01  0.47419056944E+01  0.18726534097E+02  0.00000000000E+00 0. -1.
         11    1    3    3    0    0  0.10603956213E+02 -0.57550262768E+01  0.22800729061E+02  0.25796074523E+02  0.51100000000E-03 0. -1.
        -11    1    3    3    0    0 -0.10752340110E+02 -0.12790619356E+01  0.30823383657E+01  0.11258313699E+02  0.51100000000E-03 0.  1.
        -12    1    3    3    0    0  0.17625218664E+02  0.22635896842E+01 -0.30624973121E+02  0.35407077681E+02  0.00000000000E+00 0.  1.
</event>
<event>
 7    1  0.3196678E-013  0.7246166E+02  0.7816164E-02  0.1226708E+00
        -11   -1    0    0    0    0  0.00000000000E+00  0.00000000000E+00  0.45593999997E+02  0.45594000000E+02  0.51100000000E-03 0.  1.
         11   -1    0    0    0    0 -0.00000000000E+00 -0.00000000000E+00 -0.45593999997E+02  0.45594000000E+02  0.51100000000E-03 0. -1.
    9900012    2    1    2    0    0 -0.74229392884E+01  0.13797092981E+02  0.10257484113E+02  0.72461660722E+02  0.70000117799E+02 0.  0.
         12    1    1    2    0    0  0.74229392884E+01 -0.13797092981E+02 -0.10257484113E+02  0.18726339278E+02  0.00000000000E+00 0. -1.
         11    1    3    3    0    0 -0.74161899636E+01 -0.49679689462E+01 -0.74177409316E+01  0.11606182396E+02  0.51100000000E-03 0. -1.
        -11    1    3    3    0    0  0.12715459226E+02 -0.32100405812E+01 -0.14707014393E+02  0.19704911481E+02  0.51100000000E-03 0.  1.
         12    1    3    3    0    0 -0.12722208550E+02  0.21975102509E+02  0.32382239438E+02  0.41150566845E+02  0.00000000000E+00 0. -1.
</event>
<event>
 7    1  0.3196678E-013  0.7246149E+02  0.7816164E-02  0.1226708E+00
        -11   -1    0    0    0    0  0.00000000000E+00  0.00000000000E+00  0.45593999997E+02  0.45594000000E+02  0.51100000000E-03 0. -1.
         11   -1    0    0    0    0 -0.00000000000E+00 -0.00000000000E+00 -0.45593999997E+02  0.45594000000E+02  0.51100000000E-03 0.  1.
    9900012    2    1    2    0    0  0.14058708642E+02 -0.11858934210E+02  0.35214359139E+01  0.72461491512E+02  0.69999897371E+02 0.  0.
         12    1    1    2    0    0 -0.14058708642E+02  0.11858934210E+02 -0.35214359139E+01  0.18726508488E+02  0.00000000000E+00 0. -1.
         11    1    3    3    0    0  0.78549173833E+01  0.93386042568E+01 -0.11940928013E+02  0.17073225197E+02  0.51100000000E-03 0. -1.
        -11    1    3    3    0    0  0.62915150659E+01  0.65560347872E+01 -0.12852295091E+02  0.15739956904E+02  0.51100000000E-03 0.  1.
        -12    1    3    3    0    0 -0.87723807697E-01 -0.27753573254E+02  0.28314659018E+02  0.39648309411E+02  0.00000000000E+00 0.  1.
</event>
<event>
 7    1  0.3196678E-013  0.7246156E+02  0.7816164E-02  0.1226708E+00
        -11   -1    0    0    0    0  0.00000000000E+00  0.00000000000E+00  0.45593999997E+02  0.45594000000E+02  0.51100000000E-03 0.  1.
         11   -1    0    0    0    0 -0.00000000000E+00 -0.00000000000E+00 -0.45593999997E+02  0.45594000000E+02  0.51100000000E-03 0. -1.
    9900012    2    1    2    0    0 -0.11031377228E+02 -0.89030027364E+01  0.12236204800E+02  0.72461562828E+02  0.69999990273E+02 0.  0.
         12    1    1    2    0    0  0.11031377228E+02  0.89030027364E+01 -0.12236204800E+02  0.18726437172E+02  0.00000000000E+00 0. -1.
         11    1    3    3    0    0  0.45464919390E+01  0.27780893538E+02  0.65792758855E+01  0.28909090372E+02  0.51100000000E-03 0. -1.
        -11    1    3    3    0    0  0.23935955922E+01 -0.13135077133E+02 -0.21507827791E+00  0.13353119863E+02  0.51100000000E-03 0.  1.
        -12    1    3    3    0    0 -0.17971464759E+02 -0.23548819141E+02  0.58720071925E+01  0.30199352592E+02  0.00000000000E+00 0.  1.
</event>
<event>
 7    1  0.3196678E-013  0.7246149E+02  0.7816164E-02  0.1226708E+00
        -11   -1    0    0    0    0  0.00000000000E+00  0.00000000000E+00  0.45593999997E+02  0.45594000000E+02  0.51100000000E-03 0.  1.
         11   -1    0    0    0    0 -0.00000000000E+00 -0.00000000000E+00 -0.45593999997E+02  0.45594000000E+02  0.51100000000E-03 0. -1.
    9900012    2    1    2    0    0 -0.14210564953E+02  0.95432355532E+01  0.75939900220E+01  0.72461489765E+02  0.69999895096E+02 0.  0.
         12    1    1    2    0    0  0.14210564953E+02 -0.95432355532E+01 -0.75939900220E+01  0.18726510235E+02  0.00000000000E+00 0. -1.
         11    1    3    3    0    0 -0.15474246538E+02 -0.24509614425E+02 -0.10422400461E+02  0.30802596268E+02  0.51100000000E-03 0. -1.
        -11    1    3    3    0    0  0.75097011755E+00 -0.15948061829E+01  0.11750320613E+00  0.17666833737E+01  0.51100000000E-03 0.  1.
        -12    1    3    3    0    0  0.51271146759E+00  0.35647656161E+02  0.17898887276E+02  0.39892210124E+02  0.00000000000E+00 0.  1.
</event>
<event>
 7    1  0.3196678E-013  0.7246110E+02  0.7816164E-02  0.1226709E+00
        -11   -1    0    0    0    0  0.00000000000E+00  0.00000000000E+00  0.45593999997E+02  0.45594000000E+02  0.51100000000E-03 0.  1.
         11   -1    0    0    0    0 -0.00000000000E+00 -0.00000000000E+00 -0.45593999997E+02  0.45594000000E+02  0.51100000000E-03 0. -1.
    9900012    2    1    2    0    0 -0.26802132633E+01 -0.13783741313E+02  0.12390392091E+02  0.72461097323E+02  0.69999383864E+02 0.  0.
         12    1    1    2    0    0  0.26802132633E+01  0.13783741313E+02 -0.12390392091E+02  0.18726902677E+02  0.00000000000E+00 0. -1.
         11    1    3    3    0    0  0.21980711708E+02  0.17383455566E+02  0.80587295541E+01  0.29159549669E+02  0.51100000000E-03 0. -1.
        -11    1    3    3    0    0 -0.14925518427E+01 -0.48529925832E+01 -0.48897400730E+01  0.70490287458E+01  0.51100000000E-03 0.  1.
        -12    1    3    3    0    0 -0.23168373128E+02 -0.26314204295E+02  0.92214026099E+01  0.36252518908E+02  0.00000000000E+00 0.  1.
</event>
<event>
 7    1  0.3196678E-013  0.7246141E+02  0.7816164E-02  0.1226708E+00
        -11   -1    0    0    0    0  0.00000000000E+00  0.00000000000E+00  0.45593999997E+02  0.45594000000E+02  0.51100000000E-03 0. -1.
         11   -1    0    0    0    0 -0.00000000000E+00 -0.00000000000E+00 -0.45593999997E+02  0.45594000000E+02  0.51100000000E-03 0.  1.
    9900012    2    1    2    0    0  0.12162847948E+02 -0.13746891037E+02  0.37112391519E+01  0.72461409829E+02  0.69999790964E+02 0.  0.
         12    1    1    2    0    0 -0.12162847948E+02  0.13746891037E+02 -0.37112391519E+01  0.18726590171E+02  0.00000000000E+00 0. -1.
         11    1    3    3    0    0  0.32090355969E+01  0.11367115763E+02  0.12651394985E+02  0.17308004667E+02  0.51100000000E-03 0. -1.
        -11    1    3    3    0    0  0.14207727637E+02  0.98695922390E+01  0.35075635939E+01  0.17651384597E+02  0.51100000000E-03 0.  1.
        -12    1    3    3    0    0 -0.52539152854E+01 -0.34983599039E+02 -0.12447719427E+02  0.37502020565E+02  0.00000000000E+00 0.  1.
</event>
<event>
 7    1  0.3196678E-013  0.7246160E+02  0.7816164E-02  0.1226708E+00
        -11   -1    0    0    0    0  0.00000000000E+00  0.00000000000E+00  0.45593999997E+02  0.45594000000E+02  0.51100000000E-03 0.  1.
         11   -1    0    0    0    0 -0.00000000000E+00 -0.00000000000E+00 -0.45593999997E+02  0.45594000000E+02  0.51100000000E-03 0. -1.
    9900012    2    1    2    0    0 -0.50163543627E+01  0.16965385453E+02 -0.61392173093E+01  0.72461598748E+02  0.70000037067E+02 0.  0.
         12    1    1    2    0    0  0.50163543627E+01 -0.16965385453E+02  0.61392173093E+01  0.18726401252E+02  0.00000000000E+00 0. -1.
         11    1    3    3    0    0 -0.21985766991E+02 -0.22208418897E+01 -0.23008532245E+02  0.31901389393E+02  0.51100000000E-03 0. -1.
        -11    1    3    3    0    0  0.23040297871E+01  0.13194789620E+02 -0.43467262992E+01  0.14082082806E+02  0.51100000000E-03 0.  1.
        -12    1    3    3    0    0  0.14665382841E+02  0.59914377226E+01  0.21216041235E+02  0.26478126549E+02  0.00000000000E+00 0.  1.
</event>
<event>
 7    1  0.3196678E-013  0.7246142E+02  0.7816164E-02  0.1226708E+00
        -11   -1    0    0    0    0  0.00000000000E+00  0.00000000000E+00  0.45593999997E+02  0.45594000000E+02  0.51100000000E-03 0.  1.
         11   -1    0    0    0    0 -0.00000000000E+00 -0.00000000000E+00 -0.45593999997E+02  0.45594000000E+02  0.51100000000E-03 0. -1.
    9900012    2    1    2    0    0 -0.81259898360E+01  0.40762305530E+01  0.16371854106E+02  0.72461415335E+02  0.69999798136E+02 0.  0.
         12    1    1    2    0    0  0.81259898360E+01 -0.40762305530E+01 -0.16371854106E+02  0.18726584665E+02  0.00000000000E+00 0. -1.
         11    1    3    3    0    0  0.18238761086E+02 -0.52014986610E+01  0.34683356396E+00  0.18969140414E+02  0.51100000000E-03 0. -1.
        -11    1    3    3    0    0 -0.43883924085E+01  0.24103940354E+02  0.85401829000E+01  0.25945956385E+02  0.51100000000E-03 0.  1.
         12    1    3    3    0    0 -0.21976358514E+02 -0.14826211140E+02  0.74848376426E+01  0.27546318535E+02  0.00000000000E+00 0. -1.
</event>
<event>
 7    1  0.3196678E-013  0.7246154E+02  0.7816164E-02  0.1226708E+00
        -11   -1    0    0    0    0  0.00000000000E+00  0.00000000000E+00  0.45593999997E+02  0.45594000000E+02  0.51100000000E-03 0.  1.
         11   -1    0    0    0    0 -0.00000000000E+00 -0.00000000000E+00 -0.45593999997E+02  0.45594000000E+02  0.51100000000E-03 0. -1.
    9900012    2    1    2    0    0  0.18619186103E+02  0.14958391548E+00  0.19959510571E+01  0.72461540454E+02  0.69999961127E+02 0.  0.
         12    1    1    2    0    0 -0.18619186103E+02 -0.14958391548E+00 -0.19959510571E+01  0.18726459546E+02  0.00000000000E+00 0. -1.
         11    1    3    3    0    0  0.11349467559E+02  0.13702220364E+02 -0.57078599818E+01  0.18685313019E+02  0.51100000000E-03 0. -1.
        -11    1    3    3    0    0 -0.21099636141E+02 -0.65135074220E+01 -0.37204970353E+01  0.22393358897E+02  0.51100000000E-03 0.  1.
        -12    1    3    3    0    0  0.28369354686E+02 -0.70391290264E+01  0.11424308074E+02  0.31382868539E+02  0.00000000000E+00 0.  1.
</event>
<event>
 7    1  0.3196678E-013  0.7246154E+02  0.7816164E-02  0.1226708E+00
        -11   -1    0    0    0    0  0.00000000000E+00  0.00000000000E+00  0.45593999997E+02  0.45594000000E+02  0.51100000000E-03 0.  1.
         11   -1    0    0    0    0 -0.00000000000E+00 -0.00000000000E+00 -0.45593999997E+02  0.45594000000E+02  0.51100000000E-03 0. -1.
    9900012    2    1    2    0    0  0.12517753747E+02  0.10812447726E+02  0.87793561430E+01  0.72461540671E+02  0.69999961410E+02 0.  0.
         12    1    1    2    0    0 -0.12517753747E+02 -0.10812447726E+02 -0.87793561430E+01  0.18726459329E+02  0.00000000000E+00 0. -1.
         11    1    3    3    0    0  0.83663711111E+01  0.35405623403E+02  0.11104800535E+02  0.38037756628E+02  0.51100000000E-03 0. -1.
        -11    1    3    3    0    0 -0.45601203749E+01 -0.92066556970E+00 -0.73549195492E+01  0.87027101963E+01  0.51100000000E-03 0.  1.
        -12    1    3    3    0    0  0.87115030112E+01 -0.23672510107E+02  0.50294751577E+01  0.25721073847E+02  0.00000000000E+00 0.  1.
</event>
<event>
 7    1  0.3196678E-013  0.7246158E+02  0.7816164E-02  0.1226708E+00
        -11   -1    0    0    0    0  0.00000000000E+00  0.00000000000E+00  0.45593999997E+02  0.45594000000E+02  0.51100000000E-03 0. -1.
         11   -1    0    0    0    0 -0.00000000000E+00 -0.00000000000E+00 -0.45593999997E+02  0.45594000000E+02  0.51100000000E-03 0.  1.
    9900012    2    1    2    0    0  0.13927776533E+02  0.12054471720E+02 -0.33742381256E+01  0.72461582016E+02  0.70000015269E+02 0.  0.
         12    1    1    2    0    0 -0.13927776533E+02 -0.12054471720E+02  0.33742381256E+01  0.18726417984E+02  0.00000000000E+00 0. -1.
         11    1    3    3    0    0  0.11676172346E+02  0.14927144789E+02  0.17953670000E+02  0.26105304421E+02  0.51100000000E-03 0. -1.
        -11    1    3    3    0    0  0.16364647207E+00 -0.16500590580E+02  0.44781490279E+01  0.17098248116E+02  0.51100000000E-03 0.  1.
        -12    1    3    3    0    0  0.20879577149E+01  0.13627917512E+02 -0.25806057154E+02  0.29258029478E+02  0.00000000000E+00 0.  1.
</event>
<event>
 7    1  0.3196678E-013  0.7246157E+02  0.7816164E-02  0.1226708E+00
        -11   -1    0    0    0    0  0.00000000000E+00  0.00000000000E+00  0.45593999997E+02  0.45594000000E+02  0.51100000000E-03 0.  1.
         11   -1    0    0    0    0 -0.00000000000E+00 -0.00000000000E+00 -0.45593999997E+02  0.45594000000E+02  0.51100000000E-03 0. -1.
    9900012    2    1    2    0    0  0.59648224079E+01  0.17698031057E+02  0.13710085491E+01  0.72461572843E+02  0.70000003320E+02 0.  0.
         12    1    1    2    0    0 -0.59648224079E+01 -0.17698031057E+02 -0.13710085491E+01  0.18726427157E+02  0.00000000000E+00 0. -1.
         11    1    3    3    0    0 -0.14649847403E-01  0.32569893407E+00 -0.22546234641E+02  0.22548591777E+02  0.51100000000E-03 0. -1.
        -11    1    3    3    0    0  0.67821395690E+01  0.15455695184E+02 -0.74697132693E+01  0.18457316905E+02  0.51100000000E-03 0.  1.
         12    1    3    3    0    0 -0.80266731361E+00  0.19166369383E+01  0.31386956459E+02  0.31455664160E+02  0.00000000000E+00 0. -1.
</event>
<event>
 7    1  0.3777485E-013  0.7246155E+02  0.7816164E-02  0.1226708E+00
        -11   -1    0    0    0    0  0.00000000000E+00  0.00000000000E+00  0.45593999997E+02  0.45594000000E+02  0.51100000000E-03 0. -1.
         11   -1    0    0    0    0 -0.00000000000E+00 -0.00000000000E+00 -0.45593999997E+02  0.45594000000E+02  0.51100000000E-03 0.  1.
    9900012    2    1    2    0    0 -0.15975881575E+02 -0.37672073972E+00 -0.97626407163E+01  0.72461551741E+02  0.69999975831E+02 0.  0.
         12    1    1    2    0    0  0.15975881575E+02  0.37672073972E+00  0.97626407163E+01  0.18726448259E+02  0.00000000000E+00 0. -1.
         11    1    3    3    0    0 -0.12455577584E+02 -0.49316965456E+01  0.66731631090E+01  0.14966434108E+02  0.51100000000E-03 0. -1.
        -11    1    3    3    0    0  0.14434747127E+02 -0.16180886740E+02 -0.20411397217E+02  0.29779324320E+02  0.51100000000E-03 0.  1.
         12    1    3    3    0    0 -0.17955051118E+02  0.20735862546E+02  0.39755933919E+01  0.27715793313E+02  0.00000000000E+00 0. -1.
</event>
<event>
 7    1  0.3196678E-013  0.7246156E+02  0.7816164E-02  0.1226708E+00
        -11   -1    0    0    0    0  0.00000000000E+00  0.00000000000E+00  0.45593999997E+02  0.45594000000E+02  0.51100000000E-03 0. -1.
         11   -1    0    0    0    0 -0.00000000000E+00 -0.00000000000E+00 -0.45593999997E+02  0.45594000000E+02  0.51100000000E-03 0.  1.
    9900012    2    1    2    0    0 -0.62824031435E+01 -0.58083425320E+01 -0.16657551361E+02  0.72461562817E+02  0.69999990259E+02 0.  0.
         12    1    1    2    0    0  0.62824031435E+01  0.58083425320E+01  0.16657551361E+02  0.18726437183E+02  0.00000000000E+00 0. -1.
         11    1    3    3    0    0 -0.64095823590E+01  0.84231105305E+01 -0.32473892210E+01  0.11071453113E+02  0.51100000000E-03 0. -1.
        -11    1    3    3    0    0  0.11101017568E+02  0.16713575638E+02 -0.19520316597E+02  0.27993194922E+02  0.51100000000E-03 0.  1.
         12    1    3    3    0    0 -0.10973838353E+02 -0.30945028700E+02  0.61101544569E+01  0.33396914782E+02  0.00000000000E+00 0. -1.
</event>
<event>
 7    1  0.3196678E-013  0.7246160E+02  0.7816164E-02  0.1226708E+00
        -11   -1    0    0    0    0  0.00000000000E+00  0.00000000000E+00  0.45593999997E+02  0.45594000000E+02  0.51100000000E-03 0.  1.
         11   -1    0    0    0    0 -0.00000000000E+00 -0.00000000000E+00 -0.45593999997E+02  0.45594000000E+02  0.51100000000E-03 0. -1.
    9900012    2    1    2    0    0  0.10732312726E+02  0.15285875358E+02 -0.13555789076E+01  0.72461598422E+02  0.70000036641E+02 0.  0.
         12    1    1    2    0    0 -0.10732312726E+02 -0.15285875358E+02  0.13555789076E+01  0.18726401578E+02  0.00000000000E+00 0. -1.
         11    1    3    3    0    0  0.21556579117E+01 -0.11646347710E+02 -0.24320864557E+01  0.12091291114E+02  0.51100000000E-03 0. -1.
        -11    1    3    3    0    0  0.75894128494E+01 -0.13662180576E+02 -0.96541251602E+01  0.18369989068E+02  0.51100000000E-03 0.  1.
        -12    1    3    3    0    0  0.98724196459E+00  0.40594403644E+02  0.10730632708E+02  0.42000318240E+02  0.00000000000E+00 0.  1.
</event>
<event>
 7    1  0.3196678E-013  0.7246158E+02  0.7816164E-02  0.1226708E+00
        -11   -1    0    0    0    0  0.00000000000E+00  0.00000000000E+00  0.45593999997E+02  0.45594000000E+02  0.51100000000E-03 0.  1.
         11   -1    0    0    0    0 -0.00000000000E+00 -0.00000000000E+00 -0.45593999997E+02  0.45594000000E+02  0.51100000000E-03 0. -1.
    9900012    2    1    2    0    0  0.16907046364E+02  0.76791777956E+01  0.24209428345E+01  0.72461576087E+02  0.70000007546E+02 0.  0.
         12    1    1    2    0    0 -0.16907046364E+02 -0.76791777956E+01 -0.24209428345E+01  0.18726423913E+02  0.00000000000E+00 0. -1.
         11    1    3    3    0    0  0.31039496436E+02 -0.54373996617E+01  0.18031238048E+01  0.31563696074E+02  0.51100000000E-03 0. -1.
        -11    1    3    3    0    0  0.41974084953E+01 -0.96459677281E+01  0.44505247244E+01  0.11422350987E+02  0.51100000000E-03 0.  1.
         12    1    3    3    0    0 -0.18329858568E+02  0.22762545185E+02 -0.38327056947E+01  0.29475529026E+02  0.00000000000E+00 0. -1.
</event>
<event>
 7    1  0.3196678E-013  0.7246151E+02  0.7816164E-02  0.1226708E+00
        -11   -1    0    0    0    0  0.00000000000E+00  0.00000000000E+00  0.45593999997E+02  0.45594000000E+02  0.51100000000E-03 0. -1.
         11   -1    0    0    0    0 -0.00000000000E+00 -0.00000000000E+00 -0.45593999997E+02  0.45594000000E+02  0.51100000000E-03 0.  1.
    9900012    2    1    2    0    0  0.15141886327E+01 -0.94336765815E-01 -0.18664929489E+02  0.72461514492E+02  0.69999927307E+02 0.  0.
         12    1    1    2    0    0 -0.15141886327E+01  0.94336765815E-01  0.18664929489E+02  0.18726485508E+02  0.00000000000E+00 0. -1.
         11    1    3    3    0    0  0.97009838538E+00  0.44724618660E+01  0.11650990339E+02  0.12517570937E+02  0.51100000000E-03 0. -1.
        -11    1    3    3    0    0 -0.24402451980E+02 -0.19170117318E+01 -0.64381667645E+01  0.25310167683E+02  0.51100000000E-03 0.  1.
        -12    1    3    3    0    0  0.24946542227E+02 -0.26497869001E+01 -0.23877753064E+02  0.34633775871E+02  0.00000000000E+00 0.  1.
</event>
<event>
 7    1  0.3196678E-013  0.7246157E+02  0.7816164E-02  0.1226708E+00
        -11   -1    0    0    0    0  0.00000000000E+00  0.00000000000E+00  0.45593999997E+02  0.45594000000E+02  0.51100000000E-03 0. -1.
         11   -1    0    0    0    0 -0.00000000000E+00 -0.00000000000E+00 -0.45593999997E+02  0.45594000000E+02  0.51100000000E-03 0.  1.
    9900012    2    1    2    0    0  0.84412077739E+00  0.69730689393E+01 -0.17359232765E+02  0.72461569680E+02  0.69999999200E+02 0.  0.
         12    1    1    2    0    0 -0.84412077739E+00 -0.69730689393E+01  0.17359232765E+02  0.18726430320E+02  0.00000000000E+00 0. -1.
         11    1    3    3    0    0  0.16152066597E+01 -0.89392738457E+01  0.10027462470E+02  0.13530318299E+02  0.51100000000E-03 0. -1.
        -11    1    3    3    0    0 -0.13925374031E+02 -0.11348924676E+02  0.21721640375E+00  0.17965559174E+02  0.51100000000E-03 0.  1.
        -12    1    3    3    0    0  0.13154288148E+02  0.27261267461E+02 -0.27603911639E+02  0.40965692207E+02  0.00000000000E+00 0.  1.
</event>
<event>
 7    1  0.3196678E-013  0.7246156E+02  0.7816164E-02  0.1226708E+00
        -11   -1    0    0    0    0  0.00000000000E+00  0.00000000000E+00  0.45593999997E+02  0.45594000000E+02  0.51100000000E-03 0. -1.
         11   -1    0    0    0    0 -0.00000000000E+00 -0.00000000000E+00 -0.45593999997E+02  0.45594000000E+02  0.51100000000E-03 0.  1.
    9900012    2    1    2    0    0  0.82227175640E+00 -0.20450256506E+01 -0.18596266204E+02  0.72461564742E+02  0.69999992767E+02 0.  0.
         12    1    1    2    0    0 -0.82227175640E+00  0.20450256506E+01  0.18596266204E+02  0.18726435258E+02  0.00000000000E+00 0. -1.
         11    1    3    3    0    0 -0.15265684091E+02 -0.17143161173E+01  0.55030805322E+01  0.16317594373E+02  0.51100000000E-03 0. -1.
        -11    1    3    3    0    0 -0.90573488048E+01  0.12026435704E+02  0.48883599697E+01  0.15829301519E+02  0.51100000000E-03 0.  1.
        -12    1    3    3    0    0  0.25145304652E+02 -0.12357145238E+02 -0.28987706706E+02  0.40314668850E+02  0.00000000000E+00 0.  1.
</event>
<event>
 7    1  0.3196678E-013  0.7246161E+02  0.7816164E-02  0.1226708E+00
        -11   -1    0    0    0    0  0.00000000000E+00  0.00000000000E+00  0.45593999997E+02  0.45594000000E+02  0.51100000000E-03 0. -1.
         11   -1    0    0    0    0 -0.00000000000E+00 -0.00000000000E+00 -0.45593999997E+02  0.45594000000E+02  0.51100000000E-03 0.  1.
    9900012    2    1    2    0    0  0.12157497544E+02  0.12801850151E+02 -0.62438519106E+01  0.72461606847E+02  0.70000047617E+02 0.  0.
         12    1    1    2    0    0 -0.12157497544E+02 -0.12801850151E+02  0.62438519106E+01  0.18726393153E+02  0.00000000000E+00 0. -1.
         11    1    3    3    0    0 -0.44970282957E+01 -0.27985455674E+01  0.10116910390E+02  0.11419588297E+02  0.51100000000E-03 0. -1.
        -11    1    3    3    0    0  0.26673199026E+02  0.22557442154E+02  0.61206516547E+01  0.35464913926E+02  0.51100000000E-03 0.  1.
         12    1    3    3    0    0 -0.10018673186E+02 -0.69570464361E+01 -0.22481413955E+02  0.25577104624E+02  0.00000000000E+00 0. -1.
</event>
<event>
 7    1  0.3196678E-013  0.7246162E+02  0.7816164E-02  0.1226708E+00
        -11   -1    0    0    0    0  0.00000000000E+00  0.00000000000E+00  0.45593999997E+02  0.45594000000E+02  0.51100000000E-03 0.  1.
         11   -1    0    0    0    0 -0.00000000000E+00 -0.00000000000E+00 -0.45593999997E+02  0.45594000000E+02  0.51100000000E-03 0. -1.
    9900012    2    1    2    0    0  0.14856702980E+02 -0.11399324025E+02 -0.10568327090E+00  0.72461618058E+02  0.70000062221E+02 0.  0.
         12    1    1    2    0    0 -0.14856702980E+02  0.11399324025E+02  0.10568327090E+00  0.18726381942E+02  0.00000000000E+00 0. -1.
         11    1    3    3    0    0  0.16506714684E+02  0.84172462463E+00  0.64907880527E+01  0.17756983410E+02  0.51100000000E-03 0. -1.
        -11    1    3    3    0    0  0.23424642728E+02  0.14368531607E+01  0.47962248650E+01  0.23953751421E+02  0.51100000000E-03 0.  1.
         12    1    3    3    0    0 -0.25074654432E+02 -0.13677901810E+02 -0.11392696189E+02  0.30750883227E+02  0.00000000000E+00 0. -1.
</event>
<event>
 7    1  0.3196678E-013  0.7246148E+02  0.7816164E-02  0.1226708E+00
        -11   -1    0    0    0    0  0.00000000000E+00  0.00000000000E+00  0.45593999997E+02  0.45594000000E+02  0.51100000000E-03 0. -1.
         11   -1    0    0    0    0 -0.00000000000E+00 -0.00000000000E+00 -0.45593999997E+02  0.45594000000E+02  0.51100000000E-03 0.  1.
    9900012    2    1    2    0    0 -0.85353400350E+01 -0.22263452296E+01 -0.16518896923E+02  0.72461478750E+02  0.69999880746E+02 0.  0.
         12    1    1    2    0    0  0.85353400350E+01  0.22263452296E+01  0.16518896923E+02  0.18726521250E+02  0.00000000000E+00 0. -1.
         11    1    3    3    0    0  0.37097211739E+01 -0.11701315032E+02  0.82812216646E+01  0.14807479096E+02  0.51100000000E-03 0. -1.
        -11    1    3    3    0    0  0.95452244238E+01  0.10728060168E+02  0.93422851797E+01  0.17131283575E+02  0.51100000000E-03 0.  1.
        -12    1    3    3    0    0 -0.21790285633E+02 -0.12530903659E+01 -0.34142403767E+02  0.40522716079E+02  0.00000000000E+00 0.  1.
</event>
<event>
 7    1  0.3196678E-013  0.7246160E+02  0.7816164E-02  0.1226708E+00
        -11   -1    0    0    0    0  0.00000000000E+00  0.00000000000E+00  0.45593999997E+02  0.45594000000E+02  0.51100000000E-03 0.  1.
         11   -1    0    0    0    0 -0.00000000000E+00 -0.00000000000E+00 -0.45593999997E+02  0.45594000000E+02  0.51100000000E-03 0. -1.
    9900012    2    1    2    0    0 -0.42859215468E+01 -0.90274104374E+01  0.15837137427E+02  0.72461596592E+02  0.70000034258E+02 0.  0.
         12    1    1    2    0    0  0.42859215468E+01  0.90274104374E+01 -0.15837137427E+02  0.18726403408E+02  0.00000000000E+00 0. -1.
         11    1    3    3    0    0 -0.88156336483E+00 -0.91795047447E+01  0.18124987662E+01  0.93981707456E+01  0.51100000000E-03 0. -1.
        -11    1    3    3    0    0 -0.26118033619E+02 -0.15329152023E+02  0.18091213741E+02  0.35276431179E+02  0.51100000000E-03 0.  1.
        -12    1    3    3    0    0  0.22713675437E+02  0.15481246330E+02 -0.40665750799E+01  0.27786994668E+02  0.00000000000E+00 0.  1.
</event>
<event>
 7    1  0.3196678E-013  0.7246157E+02  0.7816164E-02  0.1226708E+00
        -11   -1    0    0    0    0  0.00000000000E+00  0.00000000000E+00  0.45593999997E+02  0.45594000000E+02  0.51100000000E-03 0.  1.
         11   -1    0    0    0    0 -0.00000000000E+00 -0.00000000000E+00 -0.45593999997E+02  0.45594000000E+02  0.51100000000E-03 0. -1.
    9900012    2    1    2    0    0  0.18156232655E+02 -0.42010565308E+01  0.18388832559E+01  0.72461570767E+02  0.70000000616E+02 0.  0.
         12    1    1    2    0    0 -0.18156232655E+02  0.42010565308E+01 -0.18388832559E+01  0.18726429233E+02  0.00000000000E+00 0. -1.
         11    1    3    3    0    0  0.32937121780E+01  0.72369681003E+01  0.21123997111E+02  0.22570899437E+02  0.51100000000E-03 0. -1.
        -11    1    3    3    0    0  0.14221252892E+02  0.86063164516E+01  0.59515392796E+01  0.17655977366E+02  0.51100000000E-03 0.  1.
         12    1    3    3    0    0  0.64126758511E+00 -0.20044341083E+02 -0.25236653134E+02  0.32234693964E+02  0.00000000000E+00 0. -1.
</event>
<event>
 7    1  0.3196678E-013  0.7246156E+02  0.7816164E-02  0.1226708E+00
        -11   -1    0    0    0    0  0.00000000000E+00  0.00000000000E+00  0.45593999997E+02  0.45594000000E+02  0.51100000000E-03 0.  1.
         11   -1    0    0    0    0 -0.00000000000E+00 -0.00000000000E+00 -0.45593999997E+02  0.45594000000E+02  0.51100000000E-03 0. -1.
    9900012    2    1    2    0    0  0.16480044035E+02  0.55647789690E+01  0.69369294492E+01  0.72461558626E+02  0.69999984800E+02 0.  0.
         12    1    1    2    0    0 -0.16480044035E+02 -0.55647789690E+01 -0.69369294492E+01  0.18726441374E+02  0.00000000000E+00 0. -1.
         11    1    3    3    0    0 -0.45935869094E+01  0.29796655916E+02  0.13281323712E+02  0.32944427514E+02  0.51100000000E-03 0.  1.
        -11    1    3    3    0    0  0.15409315132E+02 -0.24395724075E+01 -0.67456822482E+01  0.16997139042E+02  0.51100000000E-03 0. -1.
        -12    1    3    3    0    0  0.56643158122E+01 -0.21792304539E+02  0.40128798592E+00  0.22519992069E+02  0.00000000000E+00 0.  1.
</event>
<event>
 7    1  0.3196678E-013  0.7246145E+02  0.7816164E-02  0.1226708E+00
        -11   -1    0    0    0    0  0.00000000000E+00  0.00000000000E+00  0.45593999997E+02  0.45594000000E+02  0.51100000000E-03 0.  1.
         11   -1    0    0    0    0 -0.00000000000E+00 -0.00000000000E+00 -0.45593999997E+02  0.45594000000E+02  0.51100000000E-03 0. -1.
    9900012    2    1    2    0    0 -0.25670150370E+00  0.15816955145E+02 -0.10022063805E+02  0.72461448565E+02  0.69999841425E+02 0.  0.
         12    1    1    2    0    0  0.25670150370E+00 -0.15816955145E+02  0.10022063805E+02  0.18726551435E+02  0.00000000000E+00 0. -1.
         11    1    3    3    0    0  0.33426566005E+02  0.15317685574E+02 -0.54143721109E+01  0.37165605495E+02  0.51100000000E-03 0. -1.
        -11    1    3    3    0    0  0.22994036790E-01 -0.27617120706E+00  0.10705586221E+01  0.11058459593E+01  0.51100000000E-03 0.  1.
        -12    1    3    3    0    0 -0.33706261545E+02  0.77544077790E+00 -0.56782503167E+01  0.34189997110E+02  0.00000000000E+00 0.  1.
</event>
<event>
 7    1  0.3196678E-013  0.7246155E+02  0.7816164E-02  0.1226708E+00
        -11   -1    0    0    0    0  0.00000000000E+00  0.00000000000E+00  0.45593999997E+02  0.45594000000E+02  0.51100000000E-03 0.  1.
         11   -1    0    0    0    0 -0.00000000000E+00 -0.00000000000E+00 -0.45593999997E+02  0.45594000000E+02  0.51100000000E-03 0. -1.
    9900012    2    1    2    0    0  0.12005765084E+02  0.12981739741E+02  0.61656982605E+01  0.72461553540E+02  0.69999978175E+02 0.  0.
         12    1    1    2    0    0 -0.12005765084E+02 -0.12981739741E+02 -0.61656982605E+01  0.18726446460E+02  0.00000000000E+00 0. -1.
         11    1    3    3    0    0 -0.12261991400E+02  0.14772460813E+02  0.12765176718E+02  0.23054972749E+02  0.51100000000E-03 0. -1.
        -11    1    3    3    0    0  0.19503619965E+02  0.17551953831E+02  0.44704695692E+01  0.26616674726E+02  0.51100000000E-03 0.  1.
         12    1    3    3    0    0  0.47641365194E+01 -0.19342674902E+02 -0.11069948027E+02  0.22789906065E+02  0.00000000000E+00 0. -1.
</event>
<event>
 7    1  0.3196678E-013  0.7246170E+02  0.7816164E-02  0.1226708E+00
        -11   -1    0    0    0    0  0.00000000000E+00  0.00000000000E+00  0.45593999997E+02  0.45594000000E+02  0.51100000000E-03 0.  1.
         11   -1    0    0    0    0 -0.00000000000E+00 -0.00000000000E+00 -0.45593999997E+02  0.45594000000E+02  0.51100000000E-03 0. -1.
    9900012    2    1    2    0    0  0.14288518196E+02  0.85855951879E+01  0.85323062688E+01  0.72461696381E+02  0.70000164251E+02 0.  0.
         12    1    1    2    0    0 -0.14288518196E+02 -0.85855951879E+01 -0.85323062688E+01  0.18726303619E+02  0.00000000000E+00 0. -1.
         11    1    3    3    0    0  0.11037301934E+01  0.31457544335E+01  0.83577828546E+01  0.89981401302E+01  0.51100000000E-03 0. -1.
        -11    1    3    3    0    0 -0.24992478706E+02  0.11748357314E+01 -0.86023043850E+00  0.25034860246E+02  0.51100000000E-03 0.  1.
         12    1    3    3    0    0  0.38177266708E+02  0.42650050230E+01  0.10347538526E+01  0.38428696005E+02  0.00000000000E+00 0. -1.
</event>
<event>
 7    1  0.3196678E-013  0.7246154E+02  0.7816164E-02  0.1226708E+00
        -11   -1    0    0    0    0  0.00000000000E+00  0.00000000000E+00  0.45593999997E+02  0.45594000000E+02  0.51100000000E-03 0. -1.
         11   -1    0    0    0    0 -0.00000000000E+00 -0.00000000000E+00 -0.45593999997E+02  0.45594000000E+02  0.51100000000E-03 0.  1.
    9900012    2    1    2    0    0 -0.22715365264E+01  0.13459025135E+02  0.12820885899E+02  0.72461538748E+02  0.69999958905E+02 0.  0.
         12    1    1    2    0    0  0.22715365264E+01 -0.13459025135E+02 -0.12820885899E+02  0.18726461252E+02  0.00000000000E+00 0. -1.
         11    1    3    3    0    0 -0.11822222365E+02  0.62295193713E+00  0.70103765221E+01  0.13758575144E+02  0.51100000000E-03 0. -1.
        -11    1    3    3    0    0  0.12220179075E+01 -0.10643159574E+02 -0.20088695902E+02  0.22766771330E+02  0.51100000000E-03 0.  1.
         12    1    3    3    0    0  0.83286679309E+01  0.23479232772E+02  0.25899205279E+02  0.35936192274E+02  0.00000000000E+00 0. -1.
</event>
<event>
 7    1  0.3196678E-013  0.7246158E+02  0.7816164E-02  0.1226708E+00
        -11   -1    0    0    0    0  0.00000000000E+00  0.00000000000E+00  0.45593999997E+02  0.45594000000E+02  0.51100000000E-03 0.  1.
         11   -1    0    0    0    0 -0.00000000000E+00 -0.00000000000E+00 -0.45593999997E+02  0.45594000000E+02  0.51100000000E-03 0. -1.
    9900012    2    1    2    0    0 -0.90412890027E+01  0.11069655518E+02  0.12099440272E+02  0.72461584566E+02  0.70000018591E+02 0.  0.
         12    1    1    2    0    0  0.90412890027E+01 -0.11069655518E+02 -0.12099440272E+02  0.18726415434E+02  0.00000000000E+00 0. -1.
         11    1    3    3    0    0  0.12098189720E+02 -0.17078721467E+01 -0.53651231800E+01  0.13344196070E+02  0.51100000000E-03 0. -1.
        -11    1    3    3    0    0 -0.75128134287E+01 -0.19657069280E+02  0.38444666878E+01  0.21392116835E+02  0.51100000000E-03 0.  1.
         12    1    3    3    0    0 -0.13626665294E+02  0.32434596945E+02  0.13620096764E+02  0.37725271661E+02  0.00000000000E+00 0. -1.
</event>
<event>
 7    1  0.3196678E-013  0.7246155E+02  0.7816164E-02  0.1226708E+00
        -11   -1    0    0    0    0  0.00000000000E+00  0.00000000000E+00  0.45593999997E+02  0.45594000000E+02  0.51100000000E-03 0. -1.
         11   -1    0    0    0    0 -0.00000000000E+00 -0.00000000000E+00 -0.45593999997E+02  0.45594000000E+02  0.51100000000E-03 0.  1.
    9900012    2    1    2    0    0  0.42849316666E+01  0.17240537467E+02 -0.59230995782E+01  0.72461551320E+02  0.69999975282E+02 0.  0.
         12    1    1    2    0    0 -0.42849316666E+01 -0.17240537467E+02  0.59230995782E+01  0.18726448680E+02  0.00000000000E+00 0. -1.
         11    1    3    3    0    0 -0.65912461907E+01 -0.22592929975E+01  0.12122427838E+02  0.13982209702E+02  0.51100000000E-03 0. -1.
        -11    1    3    3    0    0  0.21824021732E+01  0.16807676698E+00 -0.32659741253E+02  0.32733008234E+02  0.51100000000E-03 0.  1.
         12    1    3    3    0    0  0.86937756841E+01  0.19331753698E+02  0.14614213837E+02  0.25746333385E+02  0.00000000000E+00 0. -1.
</event>
<event>
 7    1  0.3196678E-013  0.7246157E+02  0.7816164E-02  0.1226708E+00
        -11   -1    0    0    0    0  0.00000000000E+00  0.00000000000E+00  0.45593999997E+02  0.45594000000E+02  0.51100000000E-03 0.  1.
         11   -1    0    0    0    0 -0.00000000000E+00 -0.00000000000E+00 -0.45593999997E+02  0.45594000000E+02  0.51100000000E-03 0. -1.
    9900012    2    1    2    0    0 -0.82445500425E+00  0.15614004931E+02  0.10305445195E+02  0.72461572772E+02  0.70000003228E+02 0.  0.
         12    1    1    2    0    0  0.82445500425E+00 -0.15614004931E+02 -0.10305445195E+02  0.18726427228E+02  0.00000000000E+00 0. -1.
         11    1    3    3    0    0 -0.15599317044E+02  0.16908104014E+01 -0.24370393697E+02  0.28984713579E+02  0.51100000000E-03 0. -1.
        -11    1    3    3    0    0 -0.10531813125E+01  0.67058941365E+01  0.31795336307E+01  0.74958416083E+01  0.51100000000E-03 0.  1.
        -12    1    3    3    0    0  0.15828043352E+02  0.72173003935E+01  0.31496305261E+02  0.35981017585E+02  0.00000000000E+00 0.  1.
</event>
<event>
 7    1  0.3549137E-013  0.7246168E+02  0.7816164E-02  0.1226708E+00
        -11   -1    0    0    0    0  0.00000000000E+00  0.00000000000E+00  0.45593999997E+02  0.45594000000E+02  0.51100000000E-03 0.  1.
         11   -1    0    0    0    0 -0.00000000000E+00 -0.00000000000E+00 -0.45593999997E+02  0.45594000000E+02  0.51100000000E-03 0. -1.
    9900012    2    1    2    0    0 -0.11855267854E+01  0.17189018067E+02  0.73353511049E+01  0.72461676503E+02  0.70000138357E+02 0.  0.
         12    1    1    2    0    0  0.11855267854E+01 -0.17189018067E+02 -0.73353511049E+01  0.18726323497E+02  0.00000000000E+00 0. -1.
         11    1    3    3    0    0  0.96827485501E+01  0.11229454226E+02  0.23923158481E+01  0.15019302150E+02  0.51100000000E-03 0. -1.
        -11    1    3    3    0    0 -0.10656103135E+02  0.11355236316E+02  0.28930167963E+02  0.32854962250E+02  0.51100000000E-03 0.  1.
         12    1    3    3    0    0 -0.21217220096E+00 -0.53956724752E+01 -0.23987132706E+02  0.24587412104E+02  0.00000000000E+00 0. -1.
</event>
<event>
 7    1  0.3196678E-013  0.7246137E+02  0.7816164E-02  0.1226709E+00
        -11   -1    0    0    0    0  0.00000000000E+00  0.00000000000E+00  0.45593999997E+02  0.45594000000E+02  0.51100000000E-03 0.  1.
         11   -1    0    0    0    0 -0.00000000000E+00 -0.00000000000E+00 -0.45593999997E+02  0.45594000000E+02  0.51100000000E-03 0. -1.
    9900012    2    1    2    0    0  0.31220307582E+01 -0.17004186559E+02 -0.71970186524E+01  0.72461374194E+02  0.69999744542E+02 0.  0.
         12    1    1    2    0    0 -0.31220307582E+01  0.17004186559E+02  0.71970186524E+01  0.18726625806E+02  0.00000000000E+00 0. -1.
         11    1    3    3    0    0  0.19575262593E+01 -0.49161889477E+01 -0.94650975874E+01  0.10843841359E+02  0.51100000000E-03 0. -1.
        -11    1    3    3    0    0  0.29722570083E+02 -0.64304400683E+01 -0.67292469960E+01  0.31145858428E+02  0.51100000000E-03 0.  1.
         12    1    3    3    0    0 -0.28558065584E+02 -0.56575575433E+01  0.89973259310E+01  0.30471674407E+02  0.00000000000E+00 0. -1.
</event>
<event>
 7    1  0.3196678E-013  0.7246158E+02  0.7816164E-02  0.1226708E+00
        -11   -1    0    0    0    0  0.00000000000E+00  0.00000000000E+00  0.45593999997E+02  0.45594000000E+02  0.51100000000E-03 0.  1.
         11   -1    0    0    0    0 -0.00000000000E+00 -0.00000000000E+00 -0.45593999997E+02  0.45594000000E+02  0.51100000000E-03 0. -1.
    9900012    2    1    2    0    0  0.18491444012E+02  0.15403553095E+01  0.25243811215E+01  0.72461582933E+02  0.70000016465E+02 0.  0.
         12    1    1    2    0    0 -0.18491444012E+02 -0.15403553095E+01 -0.25243811215E+01  0.18726417067E+02  0.00000000000E+00 0. -1.
         11    1    3    3    0    0 -0.41134722058E+01 -0.21974284643E+02 -0.16350977198E+02  0.27697369817E+02  0.51100000000E-03 0. -1.
        -11    1    3    3    0    0  0.12208020435E+00  0.13113110438E+02 -0.78665866007E+00  0.13137252416E+02  0.51100000000E-03 0.  1.
        -12    1    3    3    0    0  0.22482836013E+02  0.10401529515E+02  0.19662016980E+02  0.31626960700E+02  0.00000000000E+00 0.  1.
</event>
<event>
 7    1  0.3196678E-013  0.7246156E+02  0.7816164E-02  0.1226708E+00
        -11   -1    0    0    0    0  0.00000000000E+00  0.00000000000E+00  0.45593999997E+02  0.45594000000E+02  0.51100000000E-03 0.  1.
         11   -1    0    0    0    0 -0.00000000000E+00 -0.00000000000E+00 -0.45593999997E+02  0.45594000000E+02  0.51100000000E-03 0. -1.
    9900012    2    1    2    0    0 -0.51816731440E+01 -0.10242464237E+02  0.14796006016E+02  0.72461558687E+02  0.69999984880E+02 0.  0.
         12    1    1    2    0    0  0.51816731440E+01  0.10242464237E+02 -0.14796006016E+02  0.18726441313E+02  0.00000000000E+00 0. -1.
         11    1    3    3    0    0  0.18872178745E+02  0.10912318146E+01  0.15574404655E+01  0.18967749959E+02  0.51100000000E-03 0. -1.
        -11    1    3    3    0    0 -0.10815168499E+02  0.13578897380E+02  0.17859528396E+02  0.24906165471E+02  0.51100000000E-03 0.  1.
        -12    1    3    3    0    0 -0.13238683389E+02 -0.24912593431E+02 -0.46209628454E+01  0.28587643257E+02  0.00000000000E+00 0.  1.
</event>
<event>
 7    1  0.3196678E-013  0.7246158E+02  0.7816164E-02  0.1226708E+00
        -11   -1    0    0    0    0  0.00000000000E+00  0.00000000000E+00  0.45593999997E+02  0.45594000000E+02  0.51100000000E-03 0.  1.
         11   -1    0    0    0    0 -0.00000000000E+00 -0.00000000000E+00 -0.45593999997E+02  0.45594000000E+02  0.51100000000E-03 0. -1.
    9900012    2    1    2    0    0  0.18588823182E+02  0.19045818333E+01  0.12276827327E+01  0.72461575243E+02  0.70000006447E+02 0.  0.
         12    1    1    2    0    0 -0.18588823182E+02 -0.19045818333E+01 -0.12276827327E+01  0.18726424757E+02  0.00000000000E+00 0. -1.
         11    1    3    3    0    0 -0.36508952197E+01  0.22729511121E+02  0.33203733251E+01  0.23259075454E+02  0.51100000000E-03 0.  1.
        -11    1    3    3    0    0  0.42730698339E+01  0.19134022209E+01  0.14893035513E+02  0.15611621982E+02  0.51100000000E-03 0. -1.
         12    1    3    3    0    0  0.17966648568E+02 -0.22738331508E+02 -0.16985726105E+02  0.33590877807E+02  0.00000000000E+00 0. -1.
</event>
<event>
 7    1  0.3196678E-013  0.7246157E+02  0.7816164E-02  0.1226708E+00
        -11   -1    0    0    0    0  0.00000000000E+00  0.00000000000E+00  0.45593999997E+02  0.45594000000E+02  0.51100000000E-03 0.  1.
         11   -1    0    0    0    0 -0.00000000000E+00 -0.00000000000E+00 -0.45593999997E+02  0.45594000000E+02  0.51100000000E-03 0. -1.
    9900012    2    1    2    0    0 -0.65490640735E+01  0.17149360799E+02  0.36997683190E+01  0.72461572106E+02  0.70000002360E+02 0.  0.
         12    1    1    2    0    0  0.65490640735E+01 -0.17149360799E+02 -0.36997683190E+01  0.18726427894E+02  0.00000000000E+00 0. -1.
         11    1    3    3    0    0 -0.25637673453E+02  0.67010924068E+01 -0.14093285149E+02  0.30013590690E+02  0.51100000000E-03 0. -1.
        -11    1    3    3    0    0  0.65925630757E+00 -0.56587327488E+01 -0.60276521788E+01  0.82938812538E+01  0.51100000000E-03 0.  1.
        -12    1    3    3    0    0  0.18429353072E+02  0.16107001141E+02  0.23820705647E+02  0.34154100163E+02  0.00000000000E+00 0.  1.
</event>
<event>
 7    1  0.3196678E-013  0.7246159E+02  0.7816164E-02  0.1226708E+00
        -11   -1    0    0    0    0  0.00000000000E+00  0.00000000000E+00  0.45593999997E+02  0.45594000000E+02  0.51100000000E-03 0. -1.
         11   -1    0    0    0    0 -0.00000000000E+00 -0.00000000000E+00 -0.45593999997E+02  0.45594000000E+02  0.51100000000E-03 0.  1.
    9900012    2    1    2    0    0 -0.16612401189E+02  0.73182203528E+01 -0.45989532709E+01  0.72461585672E+02  0.70000020032E+02 0.  0.
         12    1    1    2    0    0  0.16612401189E+02 -0.73182203528E+01  0.45989532709E+01  0.18726414328E+02  0.00000000000E+00 0. -1.
         11    1    3    3    0    0  0.29766827607E+01  0.19894783990E+02  0.17510879665E+02  0.26670095184E+02  0.51100000000E-03 0. -1.
        -11    1    3    3    0    0  0.40996647263E+01  0.44611732335E+01  0.34744217461E+01  0.69843342001E+01  0.51100000000E-03 0.  1.
        -12    1    3    3    0    0 -0.23688748676E+02 -0.17037736870E+02 -0.25584254682E+02  0.38807156287E+02  0.00000000000E+00 0.  1.
</event>
<event>
 7    1  0.3196678E-013  0.7246150E+02  0.7816164E-02  0.1226708E+00
        -11   -1    0    0    0    0  0.00000000000E+00  0.00000000000E+00  0.45593999997E+02  0.45594000000E+02  0.51100000000E-03 0.  1.
         11   -1    0    0    0    0 -0.00000000000E+00 -0.00000000000E+00 -0.45593999997E+02  0.45594000000E+02  0.51100000000E-03 0. -1.
    9900012    2    1    2    0    0  0.23630764647E+01 -0.18576140590E+02 -0.15656998585E+00  0.72461504232E+02  0.69999913941E+02 0.  0.
         12    1    1    2    0    0 -0.23630764647E+01  0.18576140590E+02  0.15656998585E+00  0.18726495768E+02  0.00000000000E+00 0. -1.
         11    1    3    3    0    0 -0.12605654568E+02 -0.16380823707E+02  0.14079068712E+02  0.25009080120E+02  0.51100000000E-03 0. -1.
        -11    1    3    3    0    0 -0.11075791931E+02 -0.60046314335E+01  0.62826411014E+01  0.14078364430E+02  0.51100000000E-03 0.  1.
         12    1    3    3    0    0  0.26044522963E+02  0.38093145504E+01 -0.20518279799E+02  0.33374059682E+02  0.00000000000E+00 0. -1.
</event>
<event>
 7    1  0.3196678E-013  0.7246157E+02  0.7816164E-02  0.1226708E+00
        -11   -1    0    0    0    0  0.00000000000E+00  0.00000000000E+00  0.45593999997E+02  0.45594000000E+02  0.51100000000E-03 0. -1.
         11   -1    0    0    0    0 -0.00000000000E+00 -0.00000000000E+00 -0.45593999997E+02  0.45594000000E+02  0.51100000000E-03 0.  1.
    9900012    2    1    2    0    0  0.67021418227E+00  0.96976058987E+01 -0.16005820957E+02  0.72461573440E+02  0.70000004097E+02 0.  0.
         12    1    1    2    0    0 -0.67021418227E+00 -0.96976058987E+01  0.16005820957E+02  0.18726426560E+02  0.00000000000E+00 0. -1.
         11    1    3    3    0    0  0.17669331073E+02  0.97583700073E+01  0.57942154620E+01  0.21000094734E+02  0.51100000000E-03 0. -1.
        -11    1    3    3    0    0  0.66087557947E+01  0.10658967115E+02  0.56033144783E+01  0.13736315609E+02  0.51100000000E-03 0.  1.
        -12    1    3    3    0    0 -0.23607872685E+02 -0.10719731223E+02 -0.27403350897E+02  0.37725163096E+02  0.00000000000E+00 0.  1.
</event>
<event>
 7    1  0.3196678E-013  0.7246139E+02  0.7816164E-02  0.1226708E+00
        -11   -1    0    0    0    0  0.00000000000E+00  0.00000000000E+00  0.45593999997E+02  0.45594000000E+02  0.51100000000E-03 0. -1.
         11   -1    0    0    0    0 -0.00000000000E+00 -0.00000000000E+00 -0.45593999997E+02  0.45594000000E+02  0.51100000000E-03 0.  1.
    9900012    2    1    2    0    0  0.61077983641E+01 -0.97944290665E+01 -0.14746176656E+02  0.72461394126E+02  0.69999770507E+02 0.  0.
         12    1    1    2    0    0 -0.61077983641E+01  0.97944290665E+01  0.14746176656E+02  0.18726605874E+02  0.00000000000E+00 0. -1.
         11    1    3    3    0    0 -0.22565221910E+02 -0.37452429097E+01  0.13023033387E+02  0.26321388321E+02  0.51100000000E-03 0. -1.
        -11    1    3    3    0    0  0.75183364901E+00 -0.83849898043E+01 -0.94896647057E+01  0.12685702359E+02  0.51100000000E-03 0.  1.
        -12    1    3    3    0    0  0.27921186626E+02  0.23358036475E+01 -0.18279545337E+02  0.33454303445E+02  0.00000000000E+00 0.  1.
</event>
<event>
 7    1  0.3196678E-013  0.7246157E+02  0.7816164E-02  0.1226708E+00
        -11   -1    0    0    0    0  0.00000000000E+00  0.00000000000E+00  0.45593999997E+02  0.45594000000E+02  0.51100000000E-03 0.  1.
         11   -1    0    0    0    0 -0.00000000000E+00 -0.00000000000E+00 -0.45593999997E+02  0.45594000000E+02  0.51100000000E-03 0. -1.
    9900012    2    1    2    0    0  0.81369250201E+01  0.13634542181E+02  0.99281797541E+01  0.72461573686E+02  0.70000004418E+02 0.  0.
         12    1    1    2    0    0 -0.81369250201E+01 -0.13634542181E+02 -0.99281797541E+01  0.18726426314E+02  0.00000000000E+00 0. -1.
         11    1    3    3    0    0 -0.16780617870E+02  0.71726133486E+01 -0.80726595820E+01  0.19955033233E+02  0.51100000000E-03 0. -1.
        -11    1    3    3    0    0 -0.35433224233E+01  0.16560032942E+02 -0.76416799080E+00  0.16952102460E+02  0.51100000000E-03 0.  1.
        -12    1    3    3    0    0  0.28460865313E+02 -0.10098104109E+02  0.18765007327E+02  0.35554437993E+02  0.00000000000E+00 0.  1.
</event>
<event>
 7    1  0.3196678E-013  0.7246157E+02  0.7816164E-02  0.1226708E+00
        -11   -1    0    0    0    0  0.00000000000E+00  0.00000000000E+00  0.45593999997E+02  0.45594000000E+02  0.51100000000E-03 0. -1.
         11   -1    0    0    0    0 -0.00000000000E+00 -0.00000000000E+00 -0.45593999997E+02  0.45594000000E+02  0.51100000000E-03 0.  1.
    9900012    2    1    2    0    0  0.74883479547E+01  0.14870875311E+02 -0.85709264416E+01  0.72461573014E+02  0.70000003543E+02 0.  0.
         12    1    1    2    0    0 -0.74883479547E+01 -0.14870875311E+02  0.85709264416E+01  0.18726426986E+02  0.00000000000E+00 0. -1.
         11    1    3    3    0    0  0.39571922434E+01  0.13947573055E+01 -0.59875292666E+01  0.73113080480E+01  0.51100000000E-03 0. -1.
        -11    1    3    3    0    0 -0.25296528837E+02  0.21764294364E+02 -0.88129169773E+01  0.34514727093E+02  0.51100000000E-03 0.  1.
         12    1    3    3    0    0  0.28827684549E+02 -0.82881763592E+01  0.62295198024E+01  0.30635537873E+02  0.00000000000E+00 0. -1.
</event>
<event>
 7    1  0.3196678E-013  0.7246157E+02  0.7816164E-02  0.1226708E+00
        -11   -1    0    0    0    0  0.00000000000E+00  0.00000000000E+00  0.45593999997E+02  0.45594000000E+02  0.51100000000E-03 0.  1.
         11   -1    0    0    0    0 -0.00000000000E+00 -0.00000000000E+00 -0.45593999997E+02  0.45594000000E+02  0.51100000000E-03 0. -1.
    9900012    2    1    2    0    0 -0.17888629946E+02 -0.29325551650E+01 -0.46985482437E+01  0.72461566364E+02  0.69999994880E+02 0.  0.
         12    1    1    2    0    0  0.17888629946E+02  0.29325551650E+01  0.46985482437E+01  0.18726433636E+02  0.00000000000E+00 0. -1.
         11    1    3    3    0    0 -0.79475466323E+00 -0.28075119451E+01  0.16318333011E+01  0.33431479896E+01  0.51100000000E-03 0. -1.
        -11    1    3    3    0    0 -0.25599829949E+02 -0.24622757706E+02 -0.18972121970E+02  0.40268758397E+02  0.51100000000E-03 0.  1.
         12    1    3    3    0    0  0.85059546669E+01  0.24497714487E+02  0.12641740425E+02  0.28849659978E+02  0.00000000000E+00 0. -1.
</event>
